 Entering Gaussian System, Link 0=g09
 Initial command:
 /usr/local/gaussian/g09.D01/g09/l1.exe "/nqs/iawad/Gau-32185.inp" -scrdir="/nqs/iawad/"
 Entering Link 1 = /usr/local/gaussian/g09.D01/g09/l1.exe PID=     32186.
  
 Copyright (c) 1988,1990,1992,1993,1995,1998,2003,2009,2013,
            Gaussian, Inc.  All Rights Reserved.
  
 This is part of the Gaussian(R) 09 program.  It is based on
 the Gaussian(R) 03 system (copyright 2003, Gaussian, Inc.),
 the Gaussian(R) 98 system (copyright 1998, Gaussian, Inc.),
 the Gaussian(R) 94 system (copyright 1995, Gaussian, Inc.),
 the Gaussian 92(TM) system (copyright 1992, Gaussian, Inc.),
 the Gaussian 90(TM) system (copyright 1990, Gaussian, Inc.),
 the Gaussian 88(TM) system (copyright 1988, Gaussian, Inc.),
 the Gaussian 86(TM) system (copyright 1986, Carnegie Mellon
 University), and the Gaussian 82(TM) system (copyright 1983,
 Carnegie Mellon University). Gaussian is a federally registered
 trademark of Gaussian, Inc.
  
 This software contains proprietary and confidential information,
 including trade secrets, belonging to Gaussian, Inc.
  
 This software is provided under written license and may be
 used, copied, transmitted, or stored only in accord with that
 written license.
  
 The following legend is applicable only to US Government
 contracts under FAR:
  
                    RESTRICTED RIGHTS LEGEND
  
 Use, reproduction and disclosure by the US Government is
 subject to restrictions as set forth in subparagraphs (a)
 and (c) of the Commercial Computer Software - Restricted
 Rights clause in FAR 52.227-19.
  
 Gaussian, Inc.
 340 Quinnipiac St., Bldg. 40, Wallingford CT 06492
  
  
 ---------------------------------------------------------------
 Warning -- This program may not be used in any manner that
 competes with the business of Gaussian, Inc. or will provide
 assistance to any competitor of Gaussian, Inc.  The licensee
 of this program is prohibited from giving any competitor of
 Gaussian, Inc. access to this program.  By using this program,
 the user acknowledges that Gaussian, Inc. is engaged in the
 business of creating and licensing software in the field of
 computational chemistry and represents and warrants to the
 licensee that it is not a competitor of Gaussian, Inc. and that
 it will not use this program in any manner prohibited above.
 ---------------------------------------------------------------
  

 Cite this work as:
 Gaussian 09, Revision D.01,
 M. J. Frisch, G. W. Trucks, H. B. Schlegel, G. E. Scuseria, 
 M. A. Robb, J. R. Cheeseman, G. Scalmani, V. Barone, B. Mennucci, 
 G. A. Petersson, H. Nakatsuji, M. Caricato, X. Li, H. P. Hratchian, 
 A. F. Izmaylov, J. Bloino, G. Zheng, J. L. Sonnenberg, M. Hada, 
 M. Ehara, K. Toyota, R. Fukuda, J. Hasegawa, M. Ishida, T. Nakajima, 
 Y. Honda, O. Kitao, H. Nakai, T. Vreven, J. A. Montgomery, Jr., 
 J. E. Peralta, F. Ogliaro, M. Bearpark, J. J. Heyd, E. Brothers, 
 K. N. Kudin, V. N. Staroverov, T. Keith, R. Kobayashi, J. Normand, 
 K. Raghavachari, A. Rendell, J. C. Burant, S. S. Iyengar, J. Tomasi, 
 M. Cossi, N. Rega, J. M. Millam, M. Klene, J. E. Knox, J. B. Cross, 
 V. Bakken, C. Adamo, J. Jaramillo, R. Gomperts, R. E. Stratmann, 
 O. Yazyev, A. J. Austin, R. Cammi, C. Pomelli, J. W. Ochterski, 
 R. L. Martin, K. Morokuma, V. G. Zakrzewski, G. A. Voth, 
 P. Salvador, J. J. Dannenberg, S. Dapprich, A. D. Daniels, 
 O. Farkas, J. B. Foresman, J. V. Ortiz, J. Cioslowski, 
 and D. J. Fox, Gaussian, Inc., Wallingford CT, 2013.
 
 ******************************************
 Gaussian 09:  AM64L-G09RevD.01 24-Apr-2013
                 5-Jun-2016 
 ******************************************
 %NPROCS=4
 Will use up to    4 processors via shared memory.
 %rwf=/nqs/iawad//glo_2w_ALPHA_G3MP2B3_00.rwf
 %nosave
 %chk=/home/iawad/scratch/MAIN/PRO_Halides/direct/TsF/glo_2w_ALPHA/glo_2w_ALPHA_G
 3MP2B3_00.chk
 ----------------------------------------------------------
 # opt=(TS, CalcFC, NoEigenTest, MaxCycle=500) Freq G3MP2B3
 ----------------------------------------------------------
 1/5=1,6=500,10=4,11=1,14=-1,18=20,26=3,38=1/1,3;
 2/9=110,12=2,17=6,18=5,40=1/2;
 3/5=33,7=1,11=2,16=1,25=1,30=1,71=2,74=-5,140=1/1,2,3;
 4//1;
 5/5=2,38=5/2;
 8/6=4,10=90,11=11/1;
 11/6=1,8=1,9=11,15=111,16=1/1,2,10;
 10/6=1,13=1/2;
 6/7=2,8=2,9=2,10=2,28=1/1;
 7/10=1,18=20,25=1/1,2,3,16;
 1/5=1,6=500,10=4,11=1,14=-1,18=20,26=3/3(2);
 2/9=110/2;
 99//99;
 2/9=110/2;
 3/5=33,7=1,11=2,16=1,25=1,30=1,71=1,74=-5/1,2,3;
 4/5=5,16=3,69=1/1;
 5/5=2,38=5/2;
 7//1,2,3,16;
 1/5=1,6=500,11=1,14=-1,18=20,26=3/3(-5);
 2/9=110/2;
 6/7=2,8=2,9=2,10=2,19=2,28=1/1;
 99/9=1/99;
 -----------------------
 glo_2w_ALPHA_G3MP2B3_00
 -----------------------
 Symbolic Z-matrix:
 Charge =  0 Multiplicity = 1
 C
 O                    1    B1
 H                    2    B2       1    A1
 H                    1    B3       2    A2       3    D1       0
 O                    1    B4       2    A3       3    D2       0
 H                    5    B5       1    A4       2    D3       0
 O                    5    B6       1    A5       2    D4       0
 H                    7    B7       5    A6       1    D5       0
 C                    1    B8       2    A7       7    D6       0
 C                    9    B9       1    A8       2    D7       0
 C                    10   B10      9    A9       1    D8       0
 C                    2    B11      1    A10      9    D9       0
 H                    9    B12      1    A11      2    D10      0
 H                    11   B13      10   A12      9    D11      0
 H                    12   B14      2    A13      1    D12      0
 H                    10   B15      9    A14      1    D13      0
 O                    9    B16      1    A15      2    D14      0
 O                    10   B17      9    A16      1    D15      0
 O                    11   B18      10   A17      9    D16      0
 H                    18   B19      10   A18      9    D17      0
 H                    17   B20      9    A19      1    D18      0
 H                    19   B21      11   A20      10   D19      0
 C                    12   B22      2    A21      1    D20      0
 O                    23   B23      12   A22      2    D21      0
 H                    23   B24      12   A23      2    D22      0
 H                    23   B25      12   A24      2    D23      0
 H                    24   B26      23   A25      12   D24      0
 H                    1    B27      9    A26      17   D25      0
 O                    1    B28      9    A27      17   D26      0
 H                    5    B29      1    A28      29   D27      0
       Variables:
  B1                    1.70313                  
  B2                    2.74038                  
  B3                    3.53444                  
  B4                    3.1464                   
  B5                    1.36734                  
  B6                    2.45658                  
  B7                    1.10345                  
  B8                    1.53494                  
  B9                    1.52809                  
  B10                   1.53246                  
  B11                   1.42462                  
  B12                   1.10094                  
  B13                   1.09549                  
  B14                   1.10487                  
  B15                   1.10267                  
  B16                   1.41731                  
  B17                   1.42575                  
  B18                   1.43437                  
  B19                   0.97147                  
  B20                   0.97203                  
  B21                   0.97289                  
  B22                   1.52819                  
  B23                   1.44426                  
  B24                   1.09329                  
  B25                   1.09578                  
  B26                   0.9705                   
  B27                   1.10504                  
  B28                   1.28661                  
  B29                   1.08187                  
  A1                  118.4678                   
  A2                   97.17377                  
  A3                   86.91121                  
  A4                   76.56469                  
  A5                   71.07309                  
  A6                   94.18316                  
  A7                   98.11961                  
  A8                  109.61756                  
  A9                  113.25824                  
  A10                 109.17344                  
  A11                 108.45868                  
  A12                 108.89419                  
  A13                 109.21271                  
  A14                 107.0147                   
  A15                 108.45029                  
  A16                 107.01578                  
  A17                 109.79667                  
  A18                 106.5451                   
  A19                 105.59409                  
  A20                 107.05105                  
  A21                 110.51452                  
  A22                 112.98571                  
  A23                 110.07587                  
  A24                 109.48008                  
  A25                 107.64205                  
  A26                 112.13555                  
  A27                 117.44259                  
  A28                  27.26487                  
  D1                    6.31599                  
  D2                   -5.07335                  
  D3                   23.13348                  
  D4                   21.71803                  
  D5                  -10.05494                  
  D6                  172.61363                  
  D7                   63.93121                  
  D8                  -60.02073                  
  D9                  -73.70947                  
  D10                 -54.79883                  
  D11                 -69.58837                  
  D12                 -47.34866                  
  D13                  59.37411                  
  D14                -175.08158                  
  D15                 177.71302                  
  D16                 175.89842                  
  D17                 174.05423                  
  D18                -167.66791                  
  D19                 -59.94442                  
  D20                -166.8185                   
  D21                  74.8454                   
  D22                 -42.9371                   
  D23                -162.26147                  
  D24                  72.55055                  
  D25                 -75.71769                  
  D26                  66.36579                  
  D27                  -9.63767                  
 
 Add virtual bond connecting atoms H8         and O2         Dist= 2.58D+00.
 Add virtual bond connecting atoms H6         and O5         Dist= 2.58D+00.
 Add virtual bond connecting atoms O29        and H30        Dist= 2.67D+00.

 GradGradGradGradGradGradGradGradGradGradGradGradGradGradGradGradGradGrad
 Berny optimization.
 Initialization pass.
                           ----------------------------
                           !    Initial Parameters    !
                           ! (Angstroms and Degrees)  !
 --------------------------                            --------------------------
 ! Name  Definition              Value          Derivative Info.                !
 --------------------------------------------------------------------------------
 ! R1    R(1,9)                  1.5349         calculate D2E/DX2 analytically  !
 ! R2    R(1,28)                 1.105          calculate D2E/DX2 analytically  !
 ! R3    R(1,29)                 1.2866         calculate D2E/DX2 analytically  !
 ! R4    R(2,8)                  1.3663         calculate D2E/DX2 analytically  !
 ! R5    R(2,12)                 1.4246         calculate D2E/DX2 analytically  !
 ! R6    R(3,7)                  0.9879         calculate D2E/DX2 analytically  !
 ! R7    R(4,5)                  0.9697         calculate D2E/DX2 analytically  !
 ! R8    R(5,6)                  1.3673         calculate D2E/DX2 analytically  !
 ! R9    R(5,30)                 1.0819         calculate D2E/DX2 analytically  !
 ! R10   R(6,7)                  1.1042         calculate D2E/DX2 analytically  !
 ! R11   R(7,8)                  1.1035         calculate D2E/DX2 analytically  !
 ! R12   R(9,10)                 1.5281         calculate D2E/DX2 analytically  !
 ! R13   R(9,13)                 1.1009         calculate D2E/DX2 analytically  !
 ! R14   R(9,17)                 1.4173         calculate D2E/DX2 analytically  !
 ! R15   R(10,11)                1.5325         calculate D2E/DX2 analytically  !
 ! R16   R(10,16)                1.1027         calculate D2E/DX2 analytically  !
 ! R17   R(10,18)                1.4257         calculate D2E/DX2 analytically  !
 ! R18   R(11,12)                1.5379         calculate D2E/DX2 analytically  !
 ! R19   R(11,14)                1.0955         calculate D2E/DX2 analytically  !
 ! R20   R(11,19)                1.4344         calculate D2E/DX2 analytically  !
 ! R21   R(12,15)                1.1049         calculate D2E/DX2 analytically  !
 ! R22   R(12,23)                1.5282         calculate D2E/DX2 analytically  !
 ! R23   R(17,21)                0.972          calculate D2E/DX2 analytically  !
 ! R24   R(18,20)                0.9715         calculate D2E/DX2 analytically  !
 ! R25   R(19,22)                0.9729         calculate D2E/DX2 analytically  !
 ! R26   R(23,24)                1.4443         calculate D2E/DX2 analytically  !
 ! R27   R(23,25)                1.0933         calculate D2E/DX2 analytically  !
 ! R28   R(23,26)                1.0958         calculate D2E/DX2 analytically  !
 ! R29   R(24,27)                0.9705         calculate D2E/DX2 analytically  !
 ! R30   R(29,30)                1.4114         calculate D2E/DX2 analytically  !
 ! A1    A(9,1,28)             112.1356         calculate D2E/DX2 analytically  !
 ! A2    A(9,1,29)             117.4426         calculate D2E/DX2 analytically  !
 ! A3    A(28,1,29)            118.3515         calculate D2E/DX2 analytically  !
 ! A4    A(8,2,12)             110.8612         calculate D2E/DX2 analytically  !
 ! A5    A(4,5,6)              111.5552         calculate D2E/DX2 analytically  !
 ! A6    A(4,5,30)             106.9452         calculate D2E/DX2 analytically  !
 ! A7    A(6,5,30)             101.2637         calculate D2E/DX2 analytically  !
 ! A8    A(3,7,6)              108.8633         calculate D2E/DX2 analytically  !
 ! A9    A(3,7,8)               98.9929         calculate D2E/DX2 analytically  !
 ! A10   A(6,7,8)              101.1771         calculate D2E/DX2 analytically  !
 ! A11   A(1,9,10)             109.6176         calculate D2E/DX2 analytically  !
 ! A12   A(1,9,13)             108.4587         calculate D2E/DX2 analytically  !
 ! A13   A(1,9,17)             108.4503         calculate D2E/DX2 analytically  !
 ! A14   A(10,9,13)            108.8557         calculate D2E/DX2 analytically  !
 ! A15   A(10,9,17)            110.7186         calculate D2E/DX2 analytically  !
 ! A16   A(13,9,17)            110.7036         calculate D2E/DX2 analytically  !
 ! A17   A(9,10,11)            113.2582         calculate D2E/DX2 analytically  !
 ! A18   A(9,10,16)            107.0147         calculate D2E/DX2 analytically  !
 ! A19   A(9,10,18)            107.0158         calculate D2E/DX2 analytically  !
 ! A20   A(11,10,16)           108.4002         calculate D2E/DX2 analytically  !
 ! A21   A(11,10,18)           110.6982         calculate D2E/DX2 analytically  !
 ! A22   A(16,10,18)           110.39           calculate D2E/DX2 analytically  !
 ! A23   A(10,11,12)           110.822          calculate D2E/DX2 analytically  !
 ! A24   A(10,11,14)           108.8942         calculate D2E/DX2 analytically  !
 ! A25   A(10,11,19)           109.7967         calculate D2E/DX2 analytically  !
 ! A26   A(12,11,14)           109.2836         calculate D2E/DX2 analytically  !
 ! A27   A(12,11,19)           112.7775         calculate D2E/DX2 analytically  !
 ! A28   A(14,11,19)           105.0508         calculate D2E/DX2 analytically  !
 ! A29   A(2,12,11)            107.2798         calculate D2E/DX2 analytically  !
 ! A30   A(2,12,15)            109.2127         calculate D2E/DX2 analytically  !
 ! A31   A(2,12,23)            110.5145         calculate D2E/DX2 analytically  !
 ! A32   A(11,12,15)           108.0948         calculate D2E/DX2 analytically  !
 ! A33   A(11,12,23)           113.0071         calculate D2E/DX2 analytically  !
 ! A34   A(15,12,23)           108.6496         calculate D2E/DX2 analytically  !
 ! A35   A(9,17,21)            105.5941         calculate D2E/DX2 analytically  !
 ! A36   A(10,18,20)           106.5451         calculate D2E/DX2 analytically  !
 ! A37   A(11,19,22)           107.051          calculate D2E/DX2 analytically  !
 ! A38   A(12,23,24)           112.9857         calculate D2E/DX2 analytically  !
 ! A39   A(12,23,25)           110.0759         calculate D2E/DX2 analytically  !
 ! A40   A(12,23,26)           109.4801         calculate D2E/DX2 analytically  !
 ! A41   A(24,23,25)           105.6042         calculate D2E/DX2 analytically  !
 ! A42   A(24,23,26)           109.9446         calculate D2E/DX2 analytically  !
 ! A43   A(25,23,26)           108.6141         calculate D2E/DX2 analytically  !
 ! A44   A(23,24,27)           107.6421         calculate D2E/DX2 analytically  !
 ! A45   A(1,29,30)            112.1823         calculate D2E/DX2 analytically  !
 ! A46   L(5,6,7,1,-1)         167.6818         calculate D2E/DX2 analytically  !
 ! A47   L(2,8,7,24,-1)        173.795          calculate D2E/DX2 analytically  !
 ! A48   L(5,30,29,8,-1)       169.5487         calculate D2E/DX2 analytically  !
 ! A49   L(5,6,7,1,-2)         182.9801         calculate D2E/DX2 analytically  !
 ! A50   L(2,8,7,24,-2)        188.7693         calculate D2E/DX2 analytically  !
 ! A51   L(5,30,29,8,-2)       177.5923         calculate D2E/DX2 analytically  !
 ! D1    D(28,1,9,10)          163.2951         calculate D2E/DX2 analytically  !
 ! D2    D(28,1,9,13)           44.5651         calculate D2E/DX2 analytically  !
 ! D3    D(28,1,9,17)          -75.7177         calculate D2E/DX2 analytically  !
 ! D4    D(29,1,9,10)          -54.6214         calculate D2E/DX2 analytically  !
 ! D5    D(29,1,9,13)         -173.3515         calculate D2E/DX2 analytically  !
 ! D6    D(29,1,9,17)           66.3658         calculate D2E/DX2 analytically  !
 ! D7    D(9,1,29,30)         -179.3991         calculate D2E/DX2 analytically  !
 ! D8    D(28,1,29,30)         -39.7001         calculate D2E/DX2 analytically  !
 ! D9    D(12,2,7,3)            22.1751         calculate D2E/DX2 analytically  !
 ! D10   D(12,2,7,6)           -87.7912         calculate D2E/DX2 analytically  !
 ! D11   D(8,2,12,11)         -176.0356         calculate D2E/DX2 analytically  !
 ! D12   D(8,2,12,15)           67.037          calculate D2E/DX2 analytically  !
 ! D13   D(8,2,12,23)          -52.4329         calculate D2E/DX2 analytically  !
 ! D14   D(4,5,7,3)            149.5393         calculate D2E/DX2 analytically  !
 ! D15   D(4,5,7,8)           -109.3269         calculate D2E/DX2 analytically  !
 ! D16   D(30,5,7,3)           -99.1237         calculate D2E/DX2 analytically  !
 ! D17   D(30,5,7,8)             2.0101         calculate D2E/DX2 analytically  !
 ! D18   D(4,5,29,1)            81.1577         calculate D2E/DX2 analytically  !
 ! D19   D(6,5,29,1)           -34.2975         calculate D2E/DX2 analytically  !
 ! D20   D(1,9,10,11)          -60.0207         calculate D2E/DX2 analytically  !
 ! D21   D(1,9,10,16)           59.3741         calculate D2E/DX2 analytically  !
 ! D22   D(1,9,10,18)          177.713          calculate D2E/DX2 analytically  !
 ! D23   D(13,9,10,11)          58.4635         calculate D2E/DX2 analytically  !
 ! D24   D(13,9,10,16)         177.8584         calculate D2E/DX2 analytically  !
 ! D25   D(13,9,10,18)         -63.8027         calculate D2E/DX2 analytically  !
 ! D26   D(17,9,10,11)        -179.6266         calculate D2E/DX2 analytically  !
 ! D27   D(17,9,10,16)         -60.2317         calculate D2E/DX2 analytically  !
 ! D28   D(17,9,10,18)          58.1072         calculate D2E/DX2 analytically  !
 ! D29   D(1,9,17,21)         -167.6679         calculate D2E/DX2 analytically  !
 ! D30   D(10,9,17,21)         -47.3633         calculate D2E/DX2 analytically  !
 ! D31   D(13,9,17,21)          73.4563         calculate D2E/DX2 analytically  !
 ! D32   D(9,10,11,12)          50.6505         calculate D2E/DX2 analytically  !
 ! D33   D(9,10,11,14)         -69.5884         calculate D2E/DX2 analytically  !
 ! D34   D(9,10,11,19)         175.8984         calculate D2E/DX2 analytically  !
 ! D35   D(16,10,11,12)        -67.9461         calculate D2E/DX2 analytically  !
 ! D36   D(16,10,11,14)        171.815          calculate D2E/DX2 analytically  !
 ! D37   D(16,10,11,19)         57.3018         calculate D2E/DX2 analytically  !
 ! D38   D(18,10,11,12)        170.8419         calculate D2E/DX2 analytically  !
 ! D39   D(18,10,11,14)         50.6031         calculate D2E/DX2 analytically  !
 ! D40   D(18,10,11,19)        -63.9101         calculate D2E/DX2 analytically  !
 ! D41   D(9,10,18,20)         174.0542         calculate D2E/DX2 analytically  !
 ! D42   D(11,10,18,20)         50.2005         calculate D2E/DX2 analytically  !
 ! D43   D(16,10,18,20)        -69.8279         calculate D2E/DX2 analytically  !
 ! D44   D(10,11,12,2)         -56.2989         calculate D2E/DX2 analytically  !
 ! D45   D(10,11,12,15)         61.36           calculate D2E/DX2 analytically  !
 ! D46   D(10,11,12,23)       -178.3594         calculate D2E/DX2 analytically  !
 ! D47   D(14,11,12,2)          63.7077         calculate D2E/DX2 analytically  !
 ! D48   D(14,11,12,15)       -178.6335         calculate D2E/DX2 analytically  !
 ! D49   D(14,11,12,23)        -58.3529         calculate D2E/DX2 analytically  !
 ! D50   D(19,11,12,2)        -179.8504         calculate D2E/DX2 analytically  !
 ! D51   D(19,11,12,15)        -62.1915         calculate D2E/DX2 analytically  !
 ! D52   D(19,11,12,23)         58.0891         calculate D2E/DX2 analytically  !
 ! D53   D(10,11,19,22)        -59.9444         calculate D2E/DX2 analytically  !
 ! D54   D(12,11,19,22)         64.1732         calculate D2E/DX2 analytically  !
 ! D55   D(14,11,19,22)       -176.8922         calculate D2E/DX2 analytically  !
 ! D56   D(2,12,23,24)          74.8454         calculate D2E/DX2 analytically  !
 ! D57   D(2,12,23,25)         -42.9371         calculate D2E/DX2 analytically  !
 ! D58   D(2,12,23,26)        -162.2615         calculate D2E/DX2 analytically  !
 ! D59   D(11,12,23,24)       -164.9268         calculate D2E/DX2 analytically  !
 ! D60   D(11,12,23,25)         77.2907         calculate D2E/DX2 analytically  !
 ! D61   D(11,12,23,26)        -42.0337         calculate D2E/DX2 analytically  !
 ! D62   D(15,12,23,24)        -44.9639         calculate D2E/DX2 analytically  !
 ! D63   D(15,12,23,25)       -162.7464         calculate D2E/DX2 analytically  !
 ! D64   D(15,12,23,26)         77.9293         calculate D2E/DX2 analytically  !
 ! D65   D(12,23,24,27)         72.5506         calculate D2E/DX2 analytically  !
 ! D66   D(25,23,24,27)       -167.078          calculate D2E/DX2 analytically  !
 ! D67   D(26,23,24,27)        -50.0839         calculate D2E/DX2 analytically  !
 --------------------------------------------------------------------------------
 Trust Radius=3.00D-01 FncErr=1.00D-07 GrdErr=1.00D-06
 Number of steps in this run=    180 maximum allowed number of steps=    180.
 Search for a saddle point of order  1.
 GradGradGradGradGradGradGradGradGradGradGradGradGradGradGradGradGradGrad

                          Input orientation:                          
 ---------------------------------------------------------------------
 Center     Atomic      Atomic             Coordinates (Angstroms)
 Number     Number       Type             X           Y           Z
 ---------------------------------------------------------------------
      1          6           0        0.000000    0.000000    0.000000
      2          8           0        0.000000    0.000000    1.703127
      3          1           0        2.409026    0.000000    3.009369
      4          1           0        3.485492   -0.385786   -0.441378
      5          8           0        3.129515    0.277835    0.169539
      6          1           0        2.794086   -0.276490    1.373625
      7          8           0        2.297141   -0.659327    2.282279
      8          1           0        1.236767   -0.471973    2.041212
      9          6           0       -1.502353    0.227966   -0.216795
     10          6           0       -1.898860    1.595890    0.336942
     11          6           0       -1.623304    1.744489    1.837081
     12          6           0       -0.179414    1.333580    2.171014
     13          1           0       -2.055613   -0.551180    0.329921
     14          1           0       -2.318858    1.104283    2.390647
     15          1           0        0.504352    2.006340    1.622742
     16          1           0       -1.300493    2.348368   -0.203068
     17          8           0       -1.771626    0.152236   -1.606226
     18          8           0       -3.286214    1.772117    0.059545
     19          8           0       -1.931799    3.080664    2.257653
     20          1           0       -3.553014    2.597718    0.496517
     21          1           0       -2.674753    0.494390   -1.716393
     22          1           0       -1.362329    3.679856    1.744638
     23          6           0        0.137635    1.424819    3.663168
     24          8           0        1.553935    1.380714    3.942542
     25          1           0       -0.293055    0.569917    4.191305
     26          1           0       -0.295811    2.343856    4.073314
     27          1           0        1.934877    2.229365    3.665862
     28          1           0        0.279281   -1.063897   -0.106064
     29          8           0        0.807037    0.891984   -0.456538
     30          1           0        2.157616    0.565488   -0.208747
 ---------------------------------------------------------------------
                    Distance matrix (angstroms):
                    1          2          3          4          5
     1  C    0.000000
     2  O    1.703127   0.000000
     3  H    3.854829   2.740378   0.000000
     4  H    3.534445   4.110522   3.635281   0.000000
     5  O    3.146395   3.496134   2.942947   0.969707   0.000000
     6  H    3.125734   2.827001   1.703049   1.945308   1.367338
     7  O    3.304598   2.459062   0.987872   2.984177   2.456582
     8  H    2.432878   1.366255   1.591942   3.350738   2.765478
     9  C    1.534938   2.448497   5.075332   5.030480   4.648220
    10  C    2.503211   2.831783   5.314754   5.789998   5.200948
    11  C    3.008857   2.386692   4.547217   5.985753   5.246052
    12  C    2.554197   1.424620   3.030065   4.817919   4.008680
    13  H    2.153647   2.532793   5.236053   5.596973   5.253432
    14  H    3.508809   2.658802   4.894399   6.628058   5.941474
    15  H    2.629271   2.070322   3.094498   4.343968   3.462804
    16  H    2.692090   3.292369   5.440139   5.517069   4.904174
    17  O    2.396204   3.756814   6.229345   5.411435   5.214432
    18  O    3.734052   4.079334   6.654143   7.124849   6.588366
    19  O    4.280109   3.678292   5.375716   6.974818   6.150851
    20  H    4.429286   4.563766   6.971979   7.702046   7.081312
    21  H    3.216322   4.369421   6.958595   6.352085   6.106813
    22  H    4.294304   3.924157   5.418856   6.693989   5.850757
    23  C    3.932920   2.427100   2.759851   5.597655   4.740503
    24  O    4.456985   3.055497   1.873062   5.105897   4.234896
    25  H    4.240014   2.569380   3.003834   6.054134   5.289036
    26  H    4.708827   3.346483   3.733870   6.490889   5.589344
    27  H    4.706629   3.544876   2.371891   5.110072   4.178505
    28  H    1.105045   2.117321   3.920920   3.294246   3.162283
    29  O    1.286612   2.472064   3.921035   2.967667   2.482550
    30  H    2.240236   2.937745   3.277080   1.649937   1.081865
                    6          7          8          9         10
     6  H    0.000000
     7  O    1.104161   0.000000
     8  H    1.705617   1.103452   0.000000
     9  C    4.609046   4.633446   3.618189   0.000000
    10  C    5.157932   5.145558   4.124652   1.528089   0.000000
    11  C    4.879803   4.620218   3.624138   2.555949   1.532458
    12  C    3.474170   3.180783   2.298356   2.945196   2.527671
    13  H    4.968336   4.771778   3.711409   1.100938   2.152796
    14  H    5.392872   4.942622   3.905018   2.869384   2.153086
    15  H    3.242878   3.279461   2.617936   3.251673   2.756298
    16  H    5.112868   5.307179   4.407812   2.130033   1.102668
    17  O    5.468916   5.686296   4.769053   1.417308   2.424093
    18  O    6.549325   6.482771   5.424049   2.375484   1.425748
    19  O    5.863956   5.645535   4.765279   3.800684   2.427915
    20  H    7.022541   6.929762   5.895006   3.213992   1.940451
    21  H    6.328560   6.483839   5.509395   1.922055   2.455910
    22  H    5.750314   5.701692   4.907234   3.972704   2.571457
    23  C    3.897845   3.303632   2.727023   4.379056   3.903890
    24  O    3.299035   2.733239   2.673593   5.288649   4.996843
    25  H    4.264524   3.444493   2.837039   4.583740   4.299691
    26  H    4.868470   4.353196   3.795673   4.933333   4.133969
    27  H    3.503127   3.223364   3.228634   5.558343   5.116692
    28  H    3.022207   3.152716   2.424448   2.203496   3.466269
    29  O    2.943331   3.482542   2.878160   2.414888   2.906368
    30  H    1.902084   2.779362   2.643218   3.675509   4.220724
                   11         12         13         14         15
    11  C    0.000000
    12  C    1.537912   0.000000
    13  H    2.780021   3.234512   0.000000
    14  H    1.095488   2.162877   2.656398   0.000000
    15  H    2.154397   1.104873   3.842619   3.061683   0.000000
    16  H    2.151995   2.814760   3.043298   3.051585   2.589987
    17  O    3.796528   4.265940   2.079449   4.144979   4.363944
    18  O    2.434270   3.781907   2.642951   2.610712   4.106926
    19  O    1.434369   2.476017   4.113608   2.018312   2.737172
    20  H    2.499779   3.972803   3.490777   2.709469   4.252098
    21  H    3.910942   4.694985   2.379905   4.167303   4.852064
    22  H    1.955071   2.661972   4.514835   2.822384   2.509982
    23  C    2.556891   1.528192   4.452578   2.785034   2.153134
    24  O    3.828856   2.478917   5.460044   4.181305   2.621927
    25  H    2.948143   2.162792   4.390189   2.762570   3.049046
    26  H    2.668748   2.157071   5.048874   2.908716   2.599900
    27  H    4.029913   2.739932   5.897792   4.581075   2.504093
    28  H    3.909306   3.338170   2.429958   4.205342   3.530692
    29  O    3.448770   2.841148   3.300910   4.233528   2.378406
    30  H    4.457669   3.422709   4.391858   5.204419   2.857217
                   16         17         18         19         20
    16  H    0.000000
    17  O    2.648361   0.000000
    18  O    2.084255   2.773587   0.000000
    19  O    2.643852   4.850866   2.894550   0.000000
    20  H    2.371802   3.684461   0.971465   2.441962   0.000000
    21  H    2.759706   0.972031   2.271657   4.799358   3.176838
    22  H    2.360136   4.882614   3.190666   0.972889   2.743708
    23  C    4.227167   5.747283   4.982917   2.999975   5.002427
    24  O    5.125445   6.584628   6.217548   4.228359   6.279898
    25  H    4.846476   5.997665   5.241729   3.567679   5.328299
    26  H    4.392818   6.264056   5.037831   2.552639   4.844306
    27  H    5.044839   6.771081   6.361949   4.202254   6.348022
    28  H    3.761469   2.817034   4.558855   5.258652   5.334512
    29  O    2.574294   2.918649   4.218493   4.433777   4.777855
    30  H    3.890658   4.190783   5.582403   5.397458   6.102349
                   21         22         23         24         25
    21  H    0.000000
    22  H    4.883481   0.000000
    23  C    6.141246   3.319012   0.000000
    24  O    7.119755   4.315255   1.444264   0.000000
    25  H    6.370171   4.098932   1.093288   2.032399   0.000000
    26  H    6.526913   2.888787   1.095776   2.089570   1.777861
    27  H    7.295717   4.082474   1.969106   0.970504   2.827285
    28  H    3.707793   5.350063   4.518948   4.898171   4.632958
    29  O    3.724000   4.162159   4.207612   4.488721   4.787105
    30  H    5.062592   5.089698   4.450899   4.273432   5.036493
                   26         27         28         29         30
    26  H    0.000000
    27  H    2.270484   0.000000
    28  H    5.423165   5.273898   0.000000
    29  O    4.883009   4.478258   2.055925   0.000000
    30  H    5.245755   4.222641   2.488690   1.411405   0.000000
 Stoichiometry    C6H16O8
 Framework group  C1[X(C6H16O8)]
 Deg. of freedom    84
 Full point group                 C1      NOp   1
 Largest Abelian subgroup         C1      NOp   1
 Largest concise Abelian subgroup C1      NOp   1
                         Standard orientation:                         
 ---------------------------------------------------------------------
 Center     Atomic      Atomic             Coordinates (Angstroms)
 Number     Number       Type             X           Y           Z
 ---------------------------------------------------------------------
      1          6           0        0.122634   -1.472280   -0.316127
      2          8           0       -0.598003   -0.049491   -0.913619
      3          1           0       -3.273076    0.345794   -0.469314
      4          1           0       -2.842997   -3.028329    0.813493
      5          8           0       -2.647425   -2.104820    1.035340
      6          1           0       -2.978708   -1.261231    0.011513
      7          8           0       -3.006394   -0.537596   -0.822008
      8          1           0       -1.930544   -0.345043   -0.973922
      9          6           0        1.586196   -1.112776   -0.607293
     10          6           0        1.990728    0.104007    0.223881
     11          6           0        1.144663    1.347099   -0.071627
     12          6           0       -0.355674    1.016797   -0.000466
     13          1           0        1.677394   -0.860550   -1.675061
     14          1           0        1.387730    1.711125   -1.075867
     15          1           0       -0.583706    0.675823    1.025440
     16          1           0        1.851309   -0.168118    1.283309
     17          8           0        2.395303   -2.231125   -0.285731
     18          8           0        3.367667    0.355469   -0.047343
     19          8           0        1.521282    2.412365    0.811991
     20          1           0        3.592556    1.183644    0.407954
     21          1           0        3.309992   -1.902260   -0.291800
     22          1           0        1.363458    2.099463    1.719568
     23          6           0       -1.247056    2.214411   -0.326855
     24          8           0       -2.622370    2.018019    0.067911
     25          1           0       -1.272015    2.380283   -1.407199
     26          1           0       -0.844226    3.112009    0.155607
     27          1           0       -2.661304    2.073662    1.036036
     28          1           0       -0.303699   -2.139049   -1.087349
     29          8           0       -0.206419   -1.669723    0.911925
     30          1           0       -1.570234   -2.005559    1.050792
 ---------------------------------------------------------------------
 Rotational constants (GHZ):      0.7915423      0.5228453      0.3552958
 Standard basis: GTBas1 (6D, 7F)
 There are   242 symmetry adapted cartesian basis functions of A   symmetry.
 There are   242 symmetry adapted basis functions of A   symmetry.
   242 basis functions,   456 primitive gaussians,   242 cartesian basis functions
    58 alpha electrons       58 beta electrons
       nuclear repulsion energy      1115.1155048753 Hartrees.
 NAtoms=   30 NActive=   30 NUniq=   30 SFac= 1.00D+00 NAtFMM=   60 NAOKFM=F Big=F
 Integral buffers will be    131072 words long.
 Raffenetti 2 integral format.
 Two-electron integral symmetry is turned on.
 One-electron integrals computed using PRISM.
 NBasis=   242 RedAO= T EigKep=  1.85D-03  NBF=   242
 NBsUse=   242 1.00D-06 EigRej= -1.00D+00 NBFU=   242
 ExpMin= 1.61D-01 ExpMax= 5.48D+03 ExpMxC= 8.25D+02 IAcc=1 IRadAn=         1 AccDes= 0.00D+00
 Harris functional with IExCor=  402 and IRadAn=       1 diagonalized for initial guess.
 HarFok:  IExCor=  402 AccDes= 0.00D+00 IRadAn=         1 IDoV= 1 UseB2=F ITyADJ=14
 ICtDFT=  3500011 ScaDFX=  1.000000  1.000000  1.000000  1.000000
 FoFCou: FMM=F IPFlag=           0 FMFlag=      100000 FMFlg1=           0
         NFxFlg=           0 DoJE=T BraDBF=F KetDBF=T FulRan=T
         wScrn=  0.000000 ICntrl=     500 IOpCl=  0 I1Cent=   200000004 NGrid=           0
         NMat0=    1 NMatS0=      1 NMatT0=    0 NMatD0=    1 NMtDS0=    0 NMtDT0=    0
 Petite list used in FoFCou.
 Requested convergence on RMS density matrix=1.00D-08 within 128 cycles.
 Requested convergence on MAX density matrix=1.00D-06.
 Requested convergence on             energy=1.00D-06.
 No special actions if energy rises.
 Integral accuracy reduced to 1.0D-05 until final iterations.
 Initial convergence to 1.0D-05 achieved.  Increase integral accuracy.
 SCF Done:  E(RB3LYP) =  -839.972557860     A.U. after   14 cycles
            NFock= 14  Conv=0.52D-08     -V/T= 2.0086
 DoSCS=F DFT=T ScalE2(SS,OS)=  1.000000  1.000000
 Range of M.O.s used for correlation:     1   242
 NBasis=   242 NAE=    58 NBE=    58 NFC=     0 NFV=     0
 NROrb=    242 NOA=    58 NOB=    58 NVA=   184 NVB=   184
 Symmetrizing basis deriv contribution to polar:
 IMax=3 JMax=2 DiffMx= 0.00D+00
 G2DrvN: will do    31 centers at a time, making    1 passes.
 Calling FoFCou, ICntrl=  3107 FMM=F I1Cent=   0 AccDes= 0.00D+00.
 End of G2Drv F.D. properties file   721 does not exist.
 End of G2Drv F.D. properties file   722 does not exist.
 End of G2Drv F.D. properties file   788 does not exist.
          IDoAtm=111111111111111111111111111111
          Differentiating once with respect to nuclear coordinates.
          There are    93 degrees of freedom in the 1st order CPHF.  IDoFFX=6 NUNeed=     0.
     87 vectors produced by pass  0 Test12= 1.15D-14 1.08D-09 XBig12= 1.53D-01 8.85D-02.
 AX will form    87 AO Fock derivatives at one time.
     87 vectors produced by pass  1 Test12= 1.15D-14 1.08D-09 XBig12= 2.02D-02 2.87D-02.
     87 vectors produced by pass  2 Test12= 1.15D-14 1.08D-09 XBig12= 2.29D-04 1.99D-03.
     87 vectors produced by pass  3 Test12= 1.15D-14 1.08D-09 XBig12= 5.48D-07 8.40D-05.
     87 vectors produced by pass  4 Test12= 1.15D-14 1.08D-09 XBig12= 5.65D-10 2.50D-06.
     70 vectors produced by pass  5 Test12= 1.15D-14 1.08D-09 XBig12= 4.84D-13 5.57D-08.
      3 vectors produced by pass  6 Test12= 1.15D-14 1.08D-09 XBig12= 4.11D-16 1.61D-09.
 InvSVY:  IOpt=1 It=  1 EMax= 3.89D-16
 Solved reduced A of dimension   508 with    93 vectors.
 End of Minotr F.D. properties file   721 does not exist.
 End of Minotr F.D. properties file   722 does not exist.
 End of Minotr F.D. properties file   788 does not exist.

 **********************************************************************

            Population analysis using the SCF density.

 **********************************************************************

 Orbital symmetries:
       Occupied  (A) (A) (A) (A) (A) (A) (A) (A) (A) (A) (A) (A)
                 (A) (A) (A) (A) (A) (A) (A) (A) (A) (A) (A) (A)
                 (A) (A) (A) (A) (A) (A) (A) (A) (A) (A) (A) (A)
                 (A) (A) (A) (A) (A) (A) (A) (A) (A) (A) (A) (A)
                 (A) (A) (A) (A) (A) (A) (A) (A) (A) (A)
       Virtual   (A) (A) (A) (A) (A) (A) (A) (A) (A) (A) (A) (A)
                 (A) (A) (A) (A) (A) (A) (A) (A) (A) (A) (A) (A)
                 (A) (A) (A) (A) (A) (A) (A) (A) (A) (A) (A) (A)
                 (A) (A) (A) (A) (A) (A) (A) (A) (A) (A) (A) (A)
                 (A) (A) (A) (A) (A) (A) (A) (A) (A) (A) (A) (A)
                 (A) (A) (A) (A) (A) (A) (A) (A) (A) (A) (A) (A)
                 (A) (A) (A) (A) (A) (A) (A) (A) (A) (A) (A) (A)
                 (A) (A) (A) (A) (A) (A) (A) (A) (A) (A) (A) (A)
                 (A) (A) (A) (A) (A) (A) (A) (A) (A) (A) (A) (A)
                 (A) (A) (A) (A) (A) (A) (A) (A) (A) (A) (A) (A)
                 (A) (A) (A) (A) (A) (A) (A) (A) (A) (A) (A) (A)
                 (A) (A) (A) (A) (A) (A) (A) (A) (A) (A) (A) (A)
                 (A) (A) (A) (A) (A) (A) (A) (A) (A) (A) (A) (A)
                 (A) (A) (A) (A) (A) (A) (A) (A) (A) (A) (A) (A)
                 (A) (A) (A) (A) (A) (A) (A) (A) (A) (A) (A) (A)
                 (A) (A) (A) (A)
 The electronic state is 1-A.
 Alpha  occ. eigenvalues --  -19.18981 -19.18936 -19.17048 -19.15472 -19.15181
 Alpha  occ. eigenvalues --  -19.15049 -19.12944 -19.09273 -10.26821 -10.25365
 Alpha  occ. eigenvalues --  -10.24636 -10.24538 -10.23306 -10.22434  -1.06914
 Alpha  occ. eigenvalues --   -1.04957  -1.04758  -1.02581  -1.01889  -1.00347
 Alpha  occ. eigenvalues --   -0.99801  -0.96417  -0.77854  -0.75485  -0.69122
 Alpha  occ. eigenvalues --   -0.63526  -0.62067  -0.57148  -0.56314  -0.54906
 Alpha  occ. eigenvalues --   -0.53578  -0.53094  -0.51850  -0.51023  -0.49488
 Alpha  occ. eigenvalues --   -0.47558  -0.46899  -0.45107  -0.44299  -0.43460
 Alpha  occ. eigenvalues --   -0.41791  -0.41044  -0.39921  -0.38937  -0.37598
 Alpha  occ. eigenvalues --   -0.37148  -0.36094  -0.34935  -0.34413  -0.33391
 Alpha  occ. eigenvalues --   -0.31743  -0.31600  -0.30361  -0.28301  -0.26379
 Alpha  occ. eigenvalues --   -0.25379  -0.25104  -0.23125
 Alpha virt. eigenvalues --    0.03658   0.04751   0.06638   0.07370   0.09932
 Alpha virt. eigenvalues --    0.10984   0.12302   0.12648   0.13507   0.14188
 Alpha virt. eigenvalues --    0.14637   0.15572   0.16106   0.18386   0.19139
 Alpha virt. eigenvalues --    0.20609   0.21744   0.22281   0.23579   0.24856
 Alpha virt. eigenvalues --    0.26159   0.26881   0.27777   0.30335   0.30805
 Alpha virt. eigenvalues --    0.31308   0.32279   0.38254   0.51196   0.53245
 Alpha virt. eigenvalues --    0.55445   0.56788   0.57076   0.58867   0.60159
 Alpha virt. eigenvalues --    0.61658   0.62393   0.64850   0.64988   0.65746
 Alpha virt. eigenvalues --    0.68054   0.69395   0.70803   0.72019   0.72604
 Alpha virt. eigenvalues --    0.74228   0.75991   0.77138   0.78233   0.79442
 Alpha virt. eigenvalues --    0.80501   0.80986   0.82936   0.83830   0.84462
 Alpha virt. eigenvalues --    0.85998   0.86387   0.87015   0.88163   0.89628
 Alpha virt. eigenvalues --    0.90481   0.91487   0.92533   0.94922   0.97105
 Alpha virt. eigenvalues --    0.97681   0.99045   0.99659   1.00797   1.02864
 Alpha virt. eigenvalues --    1.03966   1.05159   1.07565   1.09119   1.11001
 Alpha virt. eigenvalues --    1.11372   1.14218   1.14936   1.16421   1.18508
 Alpha virt. eigenvalues --    1.19375   1.22283   1.24062   1.24959   1.27254
 Alpha virt. eigenvalues --    1.29908   1.31874   1.34371   1.36932   1.39325
 Alpha virt. eigenvalues --    1.40547   1.43422   1.43918   1.46203   1.49280
 Alpha virt. eigenvalues --    1.55109   1.56098   1.58339   1.60699   1.62119
 Alpha virt. eigenvalues --    1.62470   1.63716   1.65689   1.67045   1.68400
 Alpha virt. eigenvalues --    1.69730   1.70612   1.71317   1.71904   1.74599
 Alpha virt. eigenvalues --    1.75023   1.75926   1.76603   1.79166   1.80955
 Alpha virt. eigenvalues --    1.81393   1.82725   1.83367   1.85165   1.88653
 Alpha virt. eigenvalues --    1.89890   1.90538   1.92560   1.93914   1.95383
 Alpha virt. eigenvalues --    1.97839   1.98765   2.01968   2.05374   2.07130
 Alpha virt. eigenvalues --    2.08791   2.09341   2.12192   2.12832   2.16618
 Alpha virt. eigenvalues --    2.18550   2.20138   2.21295   2.26561   2.28247
 Alpha virt. eigenvalues --    2.31363   2.31928   2.34992   2.37403   2.39981
 Alpha virt. eigenvalues --    2.41370   2.42624   2.44342   2.46352   2.50949
 Alpha virt. eigenvalues --    2.52277   2.54910   2.58069   2.61991   2.62939
 Alpha virt. eigenvalues --    2.64799   2.65987   2.67040   2.70697   2.74023
 Alpha virt. eigenvalues --    2.76591   2.81779   2.83505   2.87494   2.89064
 Alpha virt. eigenvalues --    2.94442   2.95575   3.03826   3.04342   3.07471
 Alpha virt. eigenvalues --    3.72777   3.77352   3.79827   3.87029   3.91128
 Alpha virt. eigenvalues --    3.94662   4.04182   4.13494   4.29921   4.35219
 Alpha virt. eigenvalues --    4.38716   4.55212   4.66263   4.73422
          Condensed to atoms (all electrons):
               1          2          3          4          5          6
     1  C    4.775447   0.066243  -0.000218   0.000085   0.011811   0.000132
     2  O    0.066243   8.608423   0.005176  -0.000028  -0.000859   0.003746
     3  H   -0.000218   0.005176   0.300654  -0.000078   0.002374  -0.001119
     4  H    0.000085  -0.000028  -0.000078   0.369450   0.232737  -0.007262
     5  O    0.011811  -0.000859   0.002374   0.232737   8.488880   0.134600
     6  H    0.000132   0.003746  -0.001119  -0.007262   0.134600   0.278601
     7  O    0.004430  -0.086590   0.211833   0.003742  -0.086879   0.141118
     8  H   -0.003638   0.117676  -0.012433  -0.000109   0.004080  -0.006313
     9  C    0.294312  -0.023579  -0.000001   0.000032  -0.000057   0.000087
    10  C   -0.007048  -0.010786   0.000002   0.000000  -0.000002   0.000000
    11  C   -0.010388  -0.032008   0.000080   0.000000  -0.000001   0.000021
    12  C    0.000820   0.149526  -0.000491   0.000011  -0.000201   0.000002
    13  H   -0.049506   0.004572   0.000000  -0.000001   0.000005  -0.000004
    14  H   -0.000143   0.003981  -0.000001   0.000000   0.000000   0.000000
    15  H   -0.008140  -0.046146  -0.000053  -0.000002   0.000374   0.000037
    16  H   -0.008480   0.000363   0.000000  -0.000001   0.000012  -0.000002
    17  O   -0.040195   0.000868   0.000000   0.000000   0.000000   0.000000
    18  O    0.002415  -0.000015   0.000000   0.000000   0.000000   0.000000
    19  O    0.000030   0.001370  -0.000001   0.000000   0.000000   0.000000
    20  H   -0.000243  -0.000018   0.000000   0.000000   0.000000   0.000000
    21  H    0.006820  -0.000074   0.000000   0.000000   0.000000   0.000000
    22  H    0.000027   0.000003   0.000000   0.000000   0.000000   0.000000
    23  C    0.002702  -0.035836  -0.006450  -0.000001   0.000021  -0.000117
    24  O   -0.000075   0.000485   0.061848   0.000001  -0.000043   0.000616
    25  H   -0.000117   0.001081  -0.000752   0.000000   0.000000   0.000014
    26  H   -0.000074   0.003294   0.000619   0.000000   0.000000   0.000000
    27  H   -0.000008  -0.000235  -0.003685   0.000000   0.000018   0.000070
    28  H    0.359277  -0.040585   0.000028  -0.000178   0.003346  -0.000544
    29  O    0.317589  -0.055331   0.000057   0.003689  -0.081393   0.003716
    30  H   -0.015226   0.001963  -0.000126  -0.005365   0.135232  -0.009388
               7          8          9         10         11         12
     1  C    0.004430  -0.003638   0.294312  -0.007048  -0.010388   0.000820
     2  O   -0.086590   0.117676  -0.023579  -0.010786  -0.032008   0.149526
     3  H    0.211833  -0.012433  -0.000001   0.000002   0.000080  -0.000491
     4  H    0.003742  -0.000109   0.000032   0.000000   0.000000   0.000011
     5  O   -0.086879   0.004080  -0.000057  -0.000002  -0.000001  -0.000201
     6  H    0.141118  -0.006313   0.000087   0.000000   0.000021   0.000002
     7  O    8.498628   0.147965   0.000020  -0.000016   0.000045   0.009538
     8  H    0.147965   0.282891   0.001100   0.000092   0.001391  -0.015053
     9  C    0.000020   0.001100   4.956234   0.300299  -0.022416  -0.010900
    10  C   -0.000016   0.000092   0.300299   5.010008   0.300334  -0.025561
    11  C    0.000045   0.001391  -0.022416   0.300334   5.047390   0.256413
    12  C    0.009538  -0.015053  -0.010900  -0.025561   0.256413   5.071405
    13  H    0.000004  -0.000042   0.344225  -0.054591  -0.004032   0.000167
    14  H    0.000004  -0.000076  -0.004349  -0.045267   0.359254  -0.044588
    15  H    0.000146   0.001422  -0.001716  -0.009359  -0.047304   0.330671
    16  H    0.000001  -0.000028  -0.046196   0.338374  -0.049183  -0.003138
    17  O    0.000000  -0.000011   0.238885  -0.029425   0.003642  -0.000086
    18  O    0.000000   0.000001  -0.041163   0.222624  -0.036981   0.003657
    19  O    0.000000  -0.000019   0.002878  -0.032625   0.212771  -0.035225
    20  H    0.000000   0.000000   0.007780  -0.028401  -0.011657   0.000756
    21  H    0.000000   0.000001  -0.030491  -0.012259   0.000682  -0.000046
    22  H    0.000000  -0.000002   0.000060  -0.003893  -0.032124  -0.005520
    23  C    0.002610  -0.002421  -0.000091   0.003668  -0.023371   0.331285
    24  O   -0.023320   0.002897  -0.000004  -0.000036   0.002421  -0.038546
    25  H    0.000126   0.000504   0.000024  -0.000266  -0.003174  -0.037233
    26  H   -0.000060   0.000126  -0.000022   0.000344  -0.002464  -0.048953
    27  H    0.001426  -0.000149   0.000001  -0.000008  -0.000110  -0.001605
    28  H    0.000575  -0.000702  -0.072091   0.006568  -0.000371   0.003967
    29  O   -0.001455   0.003361  -0.056723  -0.005361  -0.003198  -0.004920
    30  H    0.006215  -0.000438   0.002546  -0.000018   0.000046   0.000320
              13         14         15         16         17         18
     1  C   -0.049506  -0.000143  -0.008140  -0.008480  -0.040195   0.002415
     2  O    0.004572   0.003981  -0.046146   0.000363   0.000868  -0.000015
     3  H    0.000000  -0.000001  -0.000053   0.000000   0.000000   0.000000
     4  H   -0.000001   0.000000  -0.000002  -0.000001   0.000000   0.000000
     5  O    0.000005   0.000000   0.000374   0.000012   0.000000   0.000000
     6  H   -0.000004   0.000000   0.000037  -0.000002   0.000000   0.000000
     7  O    0.000004   0.000004   0.000146   0.000001   0.000000   0.000000
     8  H   -0.000042  -0.000076   0.001422  -0.000028  -0.000011   0.000001
     9  C    0.344225  -0.004349  -0.001716  -0.046196   0.238885  -0.041163
    10  C   -0.054591  -0.045267  -0.009359   0.338374  -0.029425   0.222624
    11  C   -0.004032   0.359254  -0.047304  -0.049183   0.003642  -0.036981
    12  C    0.000167  -0.044588   0.330671  -0.003138  -0.000086   0.003657
    13  H    0.668672   0.005157   0.000229   0.008350  -0.042875  -0.000531
    14  H    0.005157   0.597369   0.006626   0.006574  -0.000063   0.001824
    15  H    0.000229   0.006626   0.658717   0.004406   0.000015   0.000014
    16  H    0.008350   0.006574   0.004406   0.641766   0.001688  -0.043529
    17  O   -0.042875  -0.000063   0.000015   0.001688   8.276351  -0.004957
    18  O   -0.000531   0.001824   0.000014  -0.043529  -0.004957   8.303963
    19  O   -0.000075  -0.041498   0.001438  -0.004628  -0.000012  -0.004591
    20  H   -0.000204  -0.000932  -0.000013  -0.001930  -0.000006   0.232506
    21  H   -0.001949   0.000010  -0.000004  -0.000644   0.236673   0.020207
    22  H    0.000023   0.008280   0.005890   0.007595  -0.000003  -0.000147
    23  C   -0.000003  -0.009373  -0.057189  -0.000107   0.000001  -0.000036
    24  O    0.000000   0.000000  -0.001171   0.000001   0.000000   0.000000
    25  H    0.000008   0.003881   0.005969  -0.000001   0.000000   0.000001
    26  H   -0.000001  -0.000202   0.001980  -0.000027   0.000000   0.000000
    27  H    0.000000   0.000023   0.005464  -0.000002   0.000000   0.000000
    28  H    0.000131  -0.000027   0.001253   0.000458   0.001977  -0.000045
    29  O    0.003645  -0.000011   0.026159   0.015266   0.001436   0.000052
    30  H   -0.000098   0.000000  -0.000562  -0.000134  -0.000045   0.000000
              19         20         21         22         23         24
     1  C    0.000030  -0.000243   0.006820   0.000027   0.002702  -0.000075
     2  O    0.001370  -0.000018  -0.000074   0.000003  -0.035836   0.000485
     3  H   -0.000001   0.000000   0.000000   0.000000  -0.006450   0.061848
     4  H    0.000000   0.000000   0.000000   0.000000  -0.000001   0.000001
     5  O    0.000000   0.000000   0.000000   0.000000   0.000021  -0.000043
     6  H    0.000000   0.000000   0.000000   0.000000  -0.000117   0.000616
     7  O    0.000000   0.000000   0.000000   0.000000   0.002610  -0.023320
     8  H   -0.000019   0.000000   0.000001  -0.000002  -0.002421   0.002897
     9  C    0.002878   0.007780  -0.030491   0.000060  -0.000091  -0.000004
    10  C   -0.032625  -0.028401  -0.012259  -0.003893   0.003668  -0.000036
    11  C    0.212771  -0.011657   0.000682  -0.032124  -0.023371   0.002421
    12  C   -0.035225   0.000756  -0.000046  -0.005520   0.331285  -0.038546
    13  H   -0.000075  -0.000204  -0.001949   0.000023  -0.000003   0.000000
    14  H   -0.041498  -0.000932   0.000010   0.008280  -0.009373   0.000000
    15  H    0.001438  -0.000013  -0.000004   0.005890  -0.057189  -0.001171
    16  H   -0.004628  -0.001930  -0.000644   0.007595  -0.000107   0.000001
    17  O   -0.000012  -0.000006   0.236673  -0.000003   0.000001   0.000000
    18  O   -0.004591   0.232506   0.020207  -0.000147  -0.000036   0.000000
    19  O    8.279205   0.019577  -0.000005   0.227756  -0.006397   0.000008
    20  H    0.019577   0.382222  -0.000789  -0.000588  -0.000006   0.000000
    21  H   -0.000005  -0.000789   0.374255   0.000000   0.000000   0.000000
    22  H    0.227756  -0.000588   0.000000   0.403136  -0.000646  -0.000017
    23  C   -0.006397  -0.000006   0.000000  -0.000646   4.959514   0.223185
    24  O    0.000008   0.000000   0.000000  -0.000017   0.223185   8.237312
    25  H    0.000328   0.000000   0.000000   0.000050   0.365399  -0.035443
    26  H    0.014970  -0.000008   0.000000  -0.000210   0.358586  -0.028753
    27  H    0.000033   0.000000   0.000000   0.000010  -0.026819   0.234291
    28  H    0.000003   0.000005  -0.000467  -0.000002  -0.000099   0.000004
    29  O    0.000009   0.000007  -0.000101  -0.000079   0.000305  -0.000004
    30  H    0.000000   0.000000   0.000006   0.000000  -0.000071   0.000014
              25         26         27         28         29         30
     1  C   -0.000117  -0.000074  -0.000008   0.359277   0.317589  -0.015226
     2  O    0.001081   0.003294  -0.000235  -0.040585  -0.055331   0.001963
     3  H   -0.000752   0.000619  -0.003685   0.000028   0.000057  -0.000126
     4  H    0.000000   0.000000   0.000000  -0.000178   0.003689  -0.005365
     5  O    0.000000   0.000000   0.000018   0.003346  -0.081393   0.135232
     6  H    0.000014   0.000000   0.000070  -0.000544   0.003716  -0.009388
     7  O    0.000126  -0.000060   0.001426   0.000575  -0.001455   0.006215
     8  H    0.000504   0.000126  -0.000149  -0.000702   0.003361  -0.000438
     9  C    0.000024  -0.000022   0.000001  -0.072091  -0.056723   0.002546
    10  C   -0.000266   0.000344  -0.000008   0.006568  -0.005361  -0.000018
    11  C   -0.003174  -0.002464  -0.000110  -0.000371  -0.003198   0.000046
    12  C   -0.037233  -0.048953  -0.001605   0.003967  -0.004920   0.000320
    13  H    0.000008  -0.000001   0.000000   0.000131   0.003645  -0.000098
    14  H    0.003881  -0.000202   0.000023  -0.000027  -0.000011   0.000000
    15  H    0.005969   0.001980   0.005464   0.001253   0.026159  -0.000562
    16  H   -0.000001  -0.000027  -0.000002   0.000458   0.015266  -0.000134
    17  O    0.000000   0.000000   0.000000   0.001977   0.001436  -0.000045
    18  O    0.000001   0.000000   0.000000  -0.000045   0.000052   0.000000
    19  O    0.000328   0.014970   0.000033   0.000003   0.000009   0.000000
    20  H    0.000000  -0.000008   0.000000   0.000005   0.000007   0.000000
    21  H    0.000000   0.000000   0.000000  -0.000467  -0.000101   0.000006
    22  H    0.000050  -0.000210   0.000010  -0.000002  -0.000079   0.000000
    23  C    0.365399   0.358586  -0.026819  -0.000099   0.000305  -0.000071
    24  O   -0.035443  -0.028753   0.234291   0.000004  -0.000004   0.000014
    25  H    0.547855  -0.028564   0.006562  -0.000007   0.000000   0.000000
    26  H   -0.028564   0.570326  -0.006318   0.000004   0.000013   0.000000
    27  H    0.006562  -0.006318   0.384192  -0.000001  -0.000014   0.000004
    28  H   -0.000007   0.000004  -0.000001   0.689571  -0.050364  -0.006181
    29  O    0.000000   0.000013  -0.000014  -0.050364   8.370806   0.127524
    30  H    0.000000   0.000000   0.000004  -0.006181   0.127524   0.306292
 Mulliken charges:
               1
     1  C    0.301362
     2  O   -0.636681
     3  H    0.442738
     4  H    0.403279
     5  O   -0.844053
     6  H    0.461989
     7  O   -0.830105
     8  H    0.477928
     9  C    0.161319
    10  C    0.082609
    11  C    0.094290
    12  C    0.113529
    13  H    0.118726
    14  H    0.153547
    15  H    0.120852
    16  H    0.133173
    17  O   -0.643857
    18  O   -0.655269
    19  O   -0.635298
    20  H    0.401940
    21  H    0.408175
    22  H    0.390402
    23  C   -0.078244
    24  O   -0.635672
    25  H    0.173756
    26  H    0.165394
    27  H    0.406861
    28  H    0.104497
    29  O   -0.614677
    30  H    0.457491
 Sum of Mulliken charges =   0.00000
 Mulliken charges with hydrogens summed into heavy atoms:
               1
     1  C    0.405859
     2  O   -0.636681
     5  O    0.016717
     7  O    0.552549
     9  C    0.280045
    10  C    0.215782
    11  C    0.247837
    12  C    0.234380
    17  O   -0.235681
    18  O   -0.253328
    19  O   -0.244896
    23  C    0.260906
    24  O   -0.228811
    29  O   -0.614677
 APT charges:
               1
     1  C   -0.290878
     2  O   -0.436554
     3  H    0.529392
     4  H    0.887999
     5  O   -1.190412
     6  H    0.414304
     7  O   -0.708893
     8  H    0.311513
     9  C   -0.196422
    10  C   -0.116072
    11  C   -0.232413
    12  C   -0.121353
    13  H    0.350610
    14  H    0.423753
    15  H    0.223934
    16  H    0.280545
    17  O   -0.861221
    18  O   -0.858922
    19  O   -0.698022
    20  H    0.700478
    21  H    0.754180
    22  H    0.520697
    23  C   -0.744715
    24  O   -0.740483
    25  H    0.446567
    26  H    0.493655
    27  H    0.618823
    28  H    0.419445
    29  O   -0.479445
    30  H    0.299911
 Sum of APT charges =   0.00000
 APT charges with hydrogens summed into heavy atoms:
               1
     1  C    0.128567
     2  O   -0.436554
     5  O   -0.002503
     7  O    0.546316
     9  C    0.154188
    10  C    0.164474
    11  C    0.191340
    12  C    0.102581
    17  O   -0.107041
    18  O   -0.158444
    19  O   -0.177325
    23  C    0.195507
    24  O   -0.121660
    29  O   -0.479445
 Electronic spatial extent (au):  <R**2>=           3149.1642
 Charge=              0.0000 electrons
 Dipole moment (field-independent basis, Debye):
    X=             -1.9515    Y=              2.7778    Z=              1.1963  Tot=              3.5994
 Quadrupole moment (field-independent basis, Debye-Ang):
   XX=            -81.3238   YY=            -83.5783   ZZ=            -82.8122
   XY=              4.9662   XZ=             -0.7421   YZ=              6.9422
 Traceless Quadrupole moment (field-independent basis, Debye-Ang):
   XX=              1.2476   YY=             -1.0069   ZZ=             -0.2407
   XY=              4.9662   XZ=             -0.7421   YZ=              6.9422
 Octapole moment (field-independent basis, Debye-Ang**2):
  XXX=             -2.6312  YYY=            -25.8979  ZZZ=             11.3875  XYY=            -38.4373
  XXY=             -6.6743  XXZ=             21.2979  XZZ=              5.5125  YZZ=             18.0587
  YYZ=              3.7593  XYZ=             -3.2540
 Hexadecapole moment (field-independent basis, Debye-Ang**3):
 XXXX=          -1940.8818 YYYY=          -1321.9920 ZZZZ=           -284.5498 XXXY=             40.3253
 XXXZ=             -5.7510 YYYX=            111.2816 YYYZ=             -6.0076 ZZZX=             10.2816
 ZZZY=             26.6173 XXYY=           -509.8904 XXZZ=           -393.4318 YYZZ=           -254.0382
 XXYZ=             32.5285 YYXZ=            -20.4984 ZZXY=            -11.3417
 N-N= 1.115115504875D+03 E-N=-4.202878806123D+03  KE= 8.328015122966D+02
  Exact polarizability:   0.000   0.000   0.000   0.000   0.000   0.000
 Approx polarizability: 137.167   2.720 138.937  -0.847  -3.128 132.938
 Calling FoFJK, ICntrl=    100147 FMM=F ISym2X=0 I1Cent= 0 IOpClX= 0 NMat=1 NMatS=1 NMatT=0.
 ***** Axes restored to original set *****
 -------------------------------------------------------------------
 Center     Atomic                   Forces (Hartrees/Bohr)
 Number     Number              X              Y              Z
 -------------------------------------------------------------------
      1        6           0.000001223   -0.000002897    0.000004886
      2        8          -0.000001595    0.000001038    0.000003108
      3        1           0.000003533    0.000003865    0.000002030
      4        1           0.000002350    0.000010077   -0.000001719
      5        8           0.000006785    0.000003697    0.000002205
      6        1           0.000003702    0.000010603   -0.000001285
      7        8          -0.000009372    0.000010098    0.000007072
      8        1           0.000012656   -0.000000525    0.000000047
      9        6           0.000000599   -0.000002693   -0.000002217
     10        6          -0.000003531   -0.000001786   -0.000002400
     11        6          -0.000005121   -0.000003446    0.000000971
     12        6          -0.000001373    0.000004653    0.000005373
     13        1           0.000003866   -0.000003000   -0.000002303
     14        1           0.000000695   -0.000007412   -0.000001988
     15        1          -0.000001147   -0.000001822   -0.000000543
     16        1          -0.000000728   -0.000002431    0.000000224
     17        8           0.000002247   -0.000000291   -0.000001039
     18        8          -0.000000664   -0.000005462   -0.000000145
     19        8          -0.000004962   -0.000005691    0.000001374
     20        1          -0.000003374   -0.000006708   -0.000000727
     21        1           0.000002449   -0.000003377   -0.000001795
     22        1          -0.000005762   -0.000002323    0.000001073
     23        6          -0.000001053   -0.000000998   -0.000000319
     24        8          -0.000000235   -0.000004866   -0.000002318
     25        1          -0.000000139   -0.000002406    0.000000059
     26        1          -0.000005456   -0.000002133    0.000001335
     27        1          -0.000004260    0.000001852    0.000002338
     28        1           0.000003539    0.000001152   -0.000006590
     29        8           0.000009271    0.000003674   -0.000008956
     30        1          -0.000004143    0.000009559    0.000002250
 -------------------------------------------------------------------
 Cartesian Forces:  Max     0.000012656 RMS     0.000004308
 FormGI is forming the generalized inverse of G from B-inverse, IUseBI=4.

 GradGradGradGradGradGradGradGradGradGradGradGradGradGradGradGradGradGrad
 Berny optimization.
 Internal  Forces:  Max     0.000017207 RMS     0.000003480
 Search for a saddle point.
 Step number   1 out of a maximum of  180
 All quantities printed in internal units (Hartrees-Bohrs-Radians)
 Swapping is turned off.
 Second derivative matrix not updated -- analytic derivatives used.
 ITU=  0
     Eigenvalues ---   -0.02581   0.00261   0.00337   0.00350   0.00410
     Eigenvalues ---    0.00542   0.00670   0.00910   0.01007   0.01056
     Eigenvalues ---    0.01433   0.01706   0.02183   0.02319   0.02782
     Eigenvalues ---    0.03345   0.03791   0.03879   0.04163   0.04558
     Eigenvalues ---    0.04723   0.05048   0.05141   0.05367   0.05571
     Eigenvalues ---    0.05675   0.05843   0.05953   0.06209   0.06369
     Eigenvalues ---    0.06669   0.06705   0.07003   0.07089   0.07277
     Eigenvalues ---    0.07664   0.08446   0.09143   0.10048   0.10332
     Eigenvalues ---    0.11239   0.12918   0.13341   0.14909   0.15336
     Eigenvalues ---    0.16164   0.16734   0.17564   0.17782   0.18515
     Eigenvalues ---    0.20193   0.20809   0.21726   0.23048   0.23913
     Eigenvalues ---    0.24304   0.25434   0.26069   0.26578   0.27348
     Eigenvalues ---    0.28712   0.29151   0.31033   0.31405   0.31686
     Eigenvalues ---    0.32239   0.32870   0.33355   0.33948   0.35839
     Eigenvalues ---    0.36070   0.37142   0.38410   0.38639   0.44509
     Eigenvalues ---    0.47917   0.49352   0.50053   0.50191   0.50389
     Eigenvalues ---    0.51558   0.56305   0.68511   0.84687
 Eigenvectors required to have negative eigenvalues:
                          R4        R8        R30       R11       R10
   1                    0.47566  -0.46143  -0.44923  -0.27708   0.26786
                          R9        D7        D2        D3        D1
   1                    0.22882   0.12759   0.12654   0.11992   0.10208
 RFO step:  Lambda0=7.274275227D-10 Lambda= 0.00000000D+00.
 Linear search not attempted -- option 19 set.
 Iteration  1 RMS(Cart)=  0.00009635 RMS(Int)=  0.00000000
 Iteration  2 RMS(Cart)=  0.00000001 RMS(Int)=  0.00000000
 Variable       Old X    -DE/DX   Delta X   Delta X   Delta X     New X
                                 (Linear)    (Quad)   (Total)
    R1        2.90061   0.00000   0.00000   0.00001   0.00001   2.90062
    R2        2.08823   0.00000   0.00000   0.00000   0.00000   2.08823
    R3        2.43134   0.00001   0.00000  -0.00002  -0.00002   2.43133
    R4        2.58185   0.00000   0.00000   0.00006   0.00006   2.58191
    R5        2.69214  -0.00001   0.00000   0.00000   0.00000   2.69214
    R6        1.86681   0.00000   0.00000   0.00002   0.00002   1.86682
    R7        1.83248   0.00000   0.00000   0.00000   0.00000   1.83248
    R8        2.58389   0.00000   0.00000   0.00016   0.00016   2.58406
    R9        2.04443   0.00000   0.00000  -0.00006  -0.00006   2.04437
   R10        2.08656   0.00001   0.00000  -0.00007  -0.00007   2.08649
   R11        2.08522  -0.00001   0.00000  -0.00004  -0.00004   2.08518
   R12        2.88767   0.00000   0.00000   0.00000   0.00000   2.88767
   R13        2.08047   0.00000   0.00000   0.00000   0.00000   2.08047
   R14        2.67832   0.00000   0.00000   0.00000   0.00000   2.67832
   R15        2.89593   0.00001   0.00000   0.00000   0.00000   2.89593
   R16        2.08374   0.00000   0.00000   0.00000   0.00000   2.08374
   R17        2.69427   0.00000   0.00000   0.00000   0.00000   2.69427
   R18        2.90623   0.00000   0.00000   0.00001   0.00001   2.90624
   R19        2.07017   0.00000   0.00000   0.00000   0.00000   2.07017
   R20        2.71056   0.00000   0.00000   0.00000   0.00000   2.71056
   R21        2.08791   0.00000   0.00000   0.00000   0.00000   2.08791
   R22        2.88786   0.00000   0.00000   0.00000   0.00000   2.88787
   R23        1.83687   0.00000   0.00000   0.00000   0.00000   1.83687
   R24        1.83580   0.00000   0.00000   0.00000   0.00000   1.83580
   R25        1.83849   0.00000   0.00000   0.00000   0.00000   1.83849
   R26        2.72926   0.00000   0.00000   0.00001   0.00001   2.72928
   R27        2.06602   0.00000   0.00000   0.00000   0.00000   2.06601
   R28        2.07072   0.00000   0.00000   0.00000   0.00000   2.07072
   R29        1.83399   0.00000   0.00000   0.00000   0.00000   1.83399
   R30        2.66717   0.00000   0.00000   0.00013   0.00013   2.66730
    A1        1.95713   0.00000   0.00000  -0.00001  -0.00001   1.95713
    A2        2.04976   0.00000   0.00000   0.00001   0.00001   2.04977
    A3        2.06562   0.00000   0.00000   0.00001   0.00001   2.06563
    A4        1.93489  -0.00002   0.00000  -0.00007  -0.00007   1.93482
    A5        1.94701   0.00000   0.00000   0.00006   0.00006   1.94707
    A6        1.86655   0.00000   0.00000  -0.00006  -0.00006   1.86648
    A7        1.76738   0.00000   0.00000   0.00000   0.00000   1.76738
    A8        1.90002   0.00000   0.00000   0.00002   0.00002   1.90004
    A9        1.72775   0.00000   0.00000   0.00003   0.00003   1.72778
   A10        1.76587   0.00000   0.00000   0.00000   0.00000   1.76587
   A11        1.91319   0.00000   0.00000   0.00001   0.00001   1.91320
   A12        1.89296   0.00000   0.00000   0.00000   0.00000   1.89296
   A13        1.89281   0.00000   0.00000  -0.00001  -0.00001   1.89281
   A14        1.89989   0.00000   0.00000   0.00000   0.00000   1.89989
   A15        1.93240   0.00000   0.00000  -0.00001  -0.00001   1.93240
   A16        1.93214   0.00000   0.00000   0.00000   0.00000   1.93214
   A17        1.97673   0.00000   0.00000  -0.00001  -0.00001   1.97672
   A18        1.86776   0.00000   0.00000  -0.00001  -0.00001   1.86775
   A19        1.86778   0.00000   0.00000   0.00000   0.00000   1.86778
   A20        1.89194   0.00000   0.00000   0.00001   0.00001   1.89195
   A21        1.93205   0.00000   0.00000  -0.00001  -0.00001   1.93204
   A22        1.92667   0.00000   0.00000   0.00001   0.00001   1.92668
   A23        1.93421   0.00000   0.00000   0.00000   0.00000   1.93421
   A24        1.90056   0.00000   0.00000   0.00000   0.00000   1.90056
   A25        1.91631   0.00000   0.00000   0.00000   0.00000   1.91632
   A26        1.90736   0.00000   0.00000  -0.00003  -0.00003   1.90733
   A27        1.96834   0.00000   0.00000   0.00001   0.00001   1.96835
   A28        1.83348   0.00000   0.00000   0.00002   0.00002   1.83350
   A29        1.87238   0.00000   0.00000  -0.00001  -0.00001   1.87237
   A30        1.90612   0.00000   0.00000  -0.00001  -0.00001   1.90611
   A31        1.92884  -0.00001   0.00000   0.00000   0.00000   1.92885
   A32        1.88661   0.00000   0.00000   0.00002   0.00002   1.88663
   A33        1.97235   0.00001   0.00000  -0.00001  -0.00001   1.97233
   A34        1.89629   0.00000   0.00000   0.00002   0.00002   1.89631
   A35        1.84296   0.00000   0.00000   0.00000   0.00000   1.84296
   A36        1.85956   0.00000   0.00000   0.00000   0.00000   1.85956
   A37        1.86839   0.00000   0.00000   0.00000   0.00000   1.86840
   A38        1.97197  -0.00001   0.00000   0.00001   0.00001   1.97198
   A39        1.92119   0.00000   0.00000   0.00000   0.00000   1.92118
   A40        1.91079   0.00000   0.00000   0.00001   0.00001   1.91080
   A41        1.84314   0.00000   0.00000  -0.00001  -0.00001   1.84313
   A42        1.91890   0.00001   0.00000  -0.00001  -0.00001   1.91889
   A43        1.89567   0.00000   0.00000   0.00000   0.00000   1.89567
   A44        1.87871   0.00000   0.00000   0.00001   0.00001   1.87871
   A45        1.95795   0.00000   0.00000   0.00007   0.00007   1.95802
   A46        2.92660   0.00000   0.00000  -0.00004  -0.00004   2.92656
   A47        3.03329   0.00000   0.00000  -0.00009  -0.00009   3.03321
   A48        2.95918   0.00000   0.00000   0.00007   0.00007   2.95925
   A49        3.19360   0.00000   0.00000  -0.00004  -0.00004   3.19356
   A50        3.29465   0.00000   0.00000  -0.00001  -0.00001   3.29464
   A51        3.09957  -0.00001   0.00000   0.00007   0.00007   3.09964
    D1        2.85004   0.00000   0.00000  -0.00003  -0.00003   2.85000
    D2        0.77781   0.00000   0.00000  -0.00004  -0.00004   0.77776
    D3       -1.32152   0.00000   0.00000  -0.00004  -0.00004  -1.32156
    D4       -0.95332   0.00000   0.00000  -0.00001  -0.00001  -0.95333
    D5       -3.02555   0.00000   0.00000  -0.00002  -0.00002  -3.02557
    D6        1.15830   0.00000   0.00000  -0.00002  -0.00002   1.15828
    D7       -3.13110  -0.00001   0.00000  -0.00024  -0.00024  -3.13134
    D8       -0.69290  -0.00001   0.00000  -0.00022  -0.00022  -0.69312
    D9        0.38703   0.00000   0.00000   0.00004   0.00004   0.38707
   D10       -1.53225   0.00000   0.00000   0.00002   0.00002  -1.53222
   D11       -3.07240   0.00000   0.00000   0.00000   0.00000  -3.07240
   D12        1.17002   0.00000   0.00000  -0.00001  -0.00001   1.17000
   D13       -0.91513   0.00000   0.00000  -0.00003  -0.00003  -0.91515
   D14        2.60995   0.00000   0.00000   0.00010   0.00010   2.61006
   D15       -1.90811   0.00000   0.00000   0.00013   0.00013  -1.90799
   D16       -1.73004   0.00000   0.00000   0.00004   0.00004  -1.73000
   D17        0.03508   0.00000   0.00000   0.00006   0.00006   0.03515
   D18        1.41647   0.00000   0.00000   0.00010   0.00010   1.41657
   D19       -0.59860  -0.00001   0.00000   0.00005   0.00005  -0.59856
   D20       -1.04756   0.00000   0.00000  -0.00006  -0.00006  -1.04762
   D21        1.03627   0.00000   0.00000  -0.00006  -0.00006   1.03621
   D22        3.10168   0.00000   0.00000  -0.00005  -0.00005   3.10163
   D23        1.02038   0.00000   0.00000  -0.00006  -0.00006   1.02033
   D24        3.10421   0.00000   0.00000  -0.00005  -0.00005   3.10416
   D25       -1.11357   0.00000   0.00000  -0.00004  -0.00004  -1.11361
   D26       -3.13508   0.00000   0.00000  -0.00006  -0.00006  -3.13513
   D27       -1.05124   0.00000   0.00000  -0.00006  -0.00006  -1.05130
   D28        1.01416   0.00000   0.00000  -0.00005  -0.00005   1.01412
   D29       -2.92636   0.00000   0.00000  -0.00001  -0.00001  -2.92637
   D30       -0.82665   0.00000   0.00000  -0.00001  -0.00001  -0.82665
   D31        1.28205   0.00000   0.00000  -0.00001  -0.00001   1.28205
   D32        0.88402   0.00000   0.00000   0.00008   0.00008   0.88409
   D33       -1.21455   0.00000   0.00000   0.00011   0.00011  -1.21443
   D34        3.07001   0.00000   0.00000   0.00010   0.00010   3.07010
   D35       -1.18588   0.00000   0.00000   0.00009   0.00009  -1.18580
   D36        2.99874   0.00000   0.00000   0.00012   0.00012   2.99886
   D37        1.00011   0.00000   0.00000   0.00010   0.00010   1.00021
   D38        2.98175   0.00000   0.00000   0.00007   0.00007   2.98182
   D39        0.88319   0.00000   0.00000   0.00010   0.00010   0.88329
   D40       -1.11544   0.00000   0.00000   0.00009   0.00009  -1.11536
   D41        3.03782   0.00000   0.00000  -0.00008  -0.00008   3.03774
   D42        0.87616   0.00000   0.00000  -0.00006  -0.00006   0.87610
   D43       -1.21873   0.00000   0.00000  -0.00008  -0.00008  -1.21880
   D44       -0.98260   0.00000   0.00000  -0.00007  -0.00007  -0.98267
   D45        1.07093   0.00000   0.00000  -0.00008  -0.00008   1.07085
   D46       -3.11296   0.00000   0.00000  -0.00006  -0.00006  -3.11302
   D47        1.11191   0.00000   0.00000  -0.00009  -0.00009   1.11182
   D48       -3.11774   0.00000   0.00000  -0.00010  -0.00010  -3.11785
   D49       -1.01845   0.00000   0.00000  -0.00008  -0.00008  -1.01853
   D50       -3.13898   0.00000   0.00000  -0.00008  -0.00008  -3.13906
   D51       -1.08545   0.00000   0.00000  -0.00009  -0.00009  -1.08554
   D52        1.01385   0.00000   0.00000  -0.00007  -0.00007   1.01378
   D53       -1.04623   0.00000   0.00000   0.00000   0.00000  -1.04622
   D54        1.12003   0.00000   0.00000   0.00001   0.00001   1.12005
   D55       -3.08735   0.00000   0.00000   0.00000   0.00000  -3.08735
   D56        1.30630  -0.00001   0.00000  -0.00001  -0.00001   1.30629
   D57       -0.74939   0.00000   0.00000   0.00000   0.00000  -0.74940
   D58       -2.83200   0.00000   0.00000   0.00000   0.00000  -2.83200
   D59       -2.87852   0.00000   0.00000  -0.00004  -0.00004  -2.87855
   D60        1.34898   0.00000   0.00000  -0.00003  -0.00003   1.34895
   D61       -0.73363   0.00000   0.00000  -0.00003  -0.00003  -0.73365
   D62       -0.78477   0.00000   0.00000  -0.00001  -0.00001  -0.78478
   D63       -2.84046   0.00000   0.00000   0.00000   0.00000  -2.84046
   D64        1.36012   0.00000   0.00000   0.00000   0.00000   1.36012
   D65        1.26625   0.00000   0.00000   0.00010   0.00010   1.26635
   D66       -2.91606   0.00000   0.00000   0.00010   0.00010  -2.91596
   D67       -0.87413   0.00000   0.00000   0.00008   0.00008  -0.87405
         Item               Value     Threshold  Converged?
 Maximum Force            0.000017     0.000450     YES
 RMS     Force            0.000003     0.000300     YES
 Maximum Displacement     0.000317     0.001800     YES
 RMS     Displacement     0.000096     0.001200     YES
 Predicted change in Energy=-4.036394D-09
 Optimization completed.
    -- Stationary point found.
                           ----------------------------
                           !   Optimized Parameters   !
                           ! (Angstroms and Degrees)  !
 --------------------------                            --------------------------
 ! Name  Definition              Value          Derivative Info.                !
 --------------------------------------------------------------------------------
 ! R1    R(1,9)                  1.5349         -DE/DX =    0.0                 !
 ! R2    R(1,28)                 1.105          -DE/DX =    0.0                 !
 ! R3    R(1,29)                 1.2866         -DE/DX =    0.0                 !
 ! R4    R(2,8)                  1.3663         -DE/DX =    0.0                 !
 ! R5    R(2,12)                 1.4246         -DE/DX =    0.0                 !
 ! R6    R(3,7)                  0.9879         -DE/DX =    0.0                 !
 ! R7    R(4,5)                  0.9697         -DE/DX =    0.0                 !
 ! R8    R(5,6)                  1.3673         -DE/DX =    0.0                 !
 ! R9    R(5,30)                 1.0819         -DE/DX =    0.0                 !
 ! R10   R(6,7)                  1.1042         -DE/DX =    0.0                 !
 ! R11   R(7,8)                  1.1035         -DE/DX =    0.0                 !
 ! R12   R(9,10)                 1.5281         -DE/DX =    0.0                 !
 ! R13   R(9,13)                 1.1009         -DE/DX =    0.0                 !
 ! R14   R(9,17)                 1.4173         -DE/DX =    0.0                 !
 ! R15   R(10,11)                1.5325         -DE/DX =    0.0                 !
 ! R16   R(10,16)                1.1027         -DE/DX =    0.0                 !
 ! R17   R(10,18)                1.4257         -DE/DX =    0.0                 !
 ! R18   R(11,12)                1.5379         -DE/DX =    0.0                 !
 ! R19   R(11,14)                1.0955         -DE/DX =    0.0                 !
 ! R20   R(11,19)                1.4344         -DE/DX =    0.0                 !
 ! R21   R(12,15)                1.1049         -DE/DX =    0.0                 !
 ! R22   R(12,23)                1.5282         -DE/DX =    0.0                 !
 ! R23   R(17,21)                0.972          -DE/DX =    0.0                 !
 ! R24   R(18,20)                0.9715         -DE/DX =    0.0                 !
 ! R25   R(19,22)                0.9729         -DE/DX =    0.0                 !
 ! R26   R(23,24)                1.4443         -DE/DX =    0.0                 !
 ! R27   R(23,25)                1.0933         -DE/DX =    0.0                 !
 ! R28   R(23,26)                1.0958         -DE/DX =    0.0                 !
 ! R29   R(24,27)                0.9705         -DE/DX =    0.0                 !
 ! R30   R(29,30)                1.4114         -DE/DX =    0.0                 !
[...]
 00021945,-0.00057870,-0.00080354,-0.00125897,0.00065107,0.00106573,-0.
 00000600,0.00004397,0.00000129,0.00038988,0.00004789,0.00000490,0.0013
 6592,0.00070520,-0.00099701,0.00001615,0.00003542,-0.00005145,-0.00011
 553,0.00013844,-0.00003362,-0.00005663,0.00015773,0.00019328,0.0003928
 5,0.00116906,0.00130156,-0.00008807,-0.00001436,-0.00008915,0.00000180
 ,-0.00005700,-0.00003282,-0.00017913,0.00002673,-0.00027437,-0.0202103
 9,-0.09543144,0.00542458,0.14056841,0.48591953,0.00027040,0.00057621,0
 .00099057,0.00003504,0.00016765,0.00239048,-0.00195545,0.00142110,-0.0
 0772414,-0.00023458,0.00001903,0.00000043,0.00075916,0.00038508,-0.001
 37984,-0.00159894,-0.00035816,0.00269816,0.00389593,-0.01051097,-0.004
 47204,0.00290321,0.00104067,0.00060490,0.00019250,0.00046862,0.0005634
 3,-0.00148760,0.00051433,0.00212256,0.00173147,-0.00487220,-0.00840009
 ,-0.04231172,0.00591673,-0.00677347,-0.00002034,-0.00007388,-0.0000290
 2,-0.00064970,-0.00001090,-0.00010263,-0.00021971,-0.00104809,0.004889
 77,0.00008813,0.00004124,-0.00014745,-0.00021342,-0.00024176,-0.000601
 31,-0.00162051,0.00023831,-0.00170517,0.00022295,0.00170734,0.00139041
 ,0.00030489,-0.00026209,0.00011814,0.00006981,0.00011483,0.00017212,0.
 00008022,-0.00035937,-0.00008023,-0.01377200,0.01390137,-0.06690881,-0
 .00070420,-0.12948230,0.11942739,0.00005882,0.00018972,0.00013183,-0.0
 0009614,-0.00001931,0.00027884,0.00000794,-0.00099727,-0.00016293,-0.0
 0000751,-0.00000172,0.00000648,0.00016597,0.00003896,0.00002575,-0.000
 06336,-0.00009763,0.00006274,0.00030204,0.00058446,0.00007052,-0.00051
 407,-0.00010019,0.00028134,0.00003549,0.00001341,-0.00003279,0.0001493
 9,-0.00012767,-0.00013318,0.00135077,0.00049989,0.00074441,0.00502648,
 0.00526226,-0.00238854,-0.00000423,-0.00001538,0.00000514,-0.00024952,
 -0.00018544,0.00009464,-0.00016328,-0.00074917,-0.00138177,-0.00004934
 ,-0.00004252,0.00005333,-0.00003514,-0.00000310,-0.00001463,-0.0000427
 1,-0.00002142,0.00005552,-0.00066155,0.00003076,-0.00021158,0.00002974
 ,0.00002512,0.00001244,0.00000221,-0.00000286,-0.00000307,0.00009197,-
 0.00010833,0.00013730,-0.08247527,-0.06949114,0.04623008,-0.02728233,-
 0.03155533,0.01292757,0.10496308,-0.00007226,0.00014779,-0.00014113,0.
 00043273,0.00193766,-0.00036388,0.00007244,-0.00022383,-0.00017086,0.0
 0001285,-0.00000004,-0.00000459,-0.00004234,-0.00000662,0.00006284,0.0
 0008275,0.00000405,-0.00009335,-0.00013550,0.00013836,0.00009657,0.000
 21963,-0.00004402,0.00011048,-0.00005052,-0.00003910,-0.00000034,0.000
 09851,0.00008196,-0.00004254,-0.00027587,-0.00054184,0.00019939,0.0005
 2808,0.00140597,-0.00223919,-0.00000769,0.00001895,-0.00000130,0.00043
 418,0.00009528,0.00019723,0.00030651,0.00065426,-0.00085387,-0.0000281
 0,-0.00000341,-0.00007407,0.00005066,0.00000606,0.00005164,0.00010693,
 0.00001355,0.00005632,0.00091595,0.00017617,0.00061390,-0.00006054,-0.
 00002350,-0.00002271,-0.00000667,-0.00000704,0.00000043,-0.00016982,0.
 00011831,-0.00028279,-0.08029538,-0.22417633,0.10413351,-0.00132473,0.
 00404715,-0.00227240,0.08769550,0.23284952,0.00073838,0.00089556,-0.00
 231122,-0.00011446,0.00069978,0.00577236,0.00027213,0.00010464,-0.0000
 9388,0.00001042,-0.00000251,-0.00000619,0.00001430,-0.00014773,0.00021
 042,0.00012596,0.00019828,-0.00039868,-0.00022564,-0.00018197,0.000375
 07,0.00040741,0.00002621,-0.00057377,-0.00006501,0.00022700,0.00016739
 ,-0.00028565,-0.00002884,0.00016159,0.00186580,-0.00017038,0.00028144,
 0.01261674,0.02756866,-0.01924957,-0.00005015,-0.00006322,-0.00000224,
 -0.00089890,-0.00017170,0.00014745,-0.00200671,-0.00070345,-0.00509189
 ,0.00000693,-0.00007289,0.00019507,0.00008686,-0.00011371,0.00005460,-
 0.00025716,-0.00009177,-0.00020791,-0.00002660,-0.00000116,0.00021209,
 0.00004995,-0.00002158,-0.00000972,0.00000496,0.00003685,0.00003803,0.
 00014787,-0.00022545,-0.00002787,0.05129534,0.10405405,-0.11481460,-0.
 00498352,-0.00713185,0.00505393,-0.05009196,-0.11238580,0.12177241,-0.
 00022675,-0.00071206,0.00137965,0.00072267,-0.00109334,-0.00375267,0.0
 0041903,-0.00248763,-0.00191227,0.00000416,-0.00001181,0.00000150,0.00
 019813,-0.00020199,0.00046883,0.00026138,0.00021845,-0.00069487,0.0006
 9113,0.00112002,0.00170498,-0.00168205,0.00035078,-0.00029044,0.000160
 42,-0.00009519,-0.00005004,0.00000110,0.00009421,0.00013228,0.00028309
 ,-0.00066908,-0.00036624,0.00430680,-0.00383958,0.00113412,-0.00000104
 ,0.00002081,0.00000690,-0.00000920,-0.00000120,0.00013815,0.00005438,0
 .00032212,-0.00039072,0.00000207,-0.00001049,-0.00000895,-0.00009026,0
 .00007319,0.00000319,-0.00007628,0.00005923,0.00000981,-0.00131961,0.0
 0018357,-0.00095876,-0.00004257,-0.00002494,-0.00006587,-0.00001686,-0
 .00001812,-0.00002867,0.00025100,0.00013093,0.00024125,-0.08200545,0.0
 7377569,0.03828332,-0.03344953,0.03022938,0.00809729,0.00727817,-0.010
 13321,-0.00568736,0.10260801,-0.00005016,-0.00020303,0.00158409,0.0005
 3148,0.00057714,-0.00222014,-0.00027824,0.00001106,-0.00007439,-0.0000
 2535,-0.00000044,0.00000757,0.00018289,0.00001963,-0.00007121,-0.00010
 612,-0.00004578,0.00019391,0.00029330,0.00010546,0.00004030,-0.0003715
 4,0.00011229,0.00019820,0.00017358,-0.00007522,-0.00002632,-0.00014687
 ,-0.00014390,0.00019359,0.00079341,-0.00086197,-0.00118503,-0.00072973
 ,-0.00146177,0.00014059,-0.00000719,0.00000334,-0.00000427,-0.00013648
 ,-0.00006749,-0.00003681,-0.00006026,0.00024406,-0.00068707,0.00003476
 ,0.00002624,0.00002663,-0.00012567,0.00005937,-0.00007429,-0.00017736,
 0.00009442,-0.00003815,0.00125203,-0.00007877,0.00195570,-0.00001214,-
 0.00002030,-0.00005149,0.00001317,-0.00001194,-0.00001692,-0.00002317,
 -0.00002442,0.00012816,0.07874373,-0.24432868,-0.08404378,0.00044421,0
 .00679308,0.00166453,0.00874487,-0.01879839,-0.01037293,-0.08962743,0.
 25599739,-0.00051749,-0.00213660,0.00333355,-0.00098791,-0.00115528,-0
 .00977020,0.00008703,-0.00052229,-0.00056054,-0.00003178,-0.00001349,0
 .00001469,0.00034359,-0.00006479,0.00016037,-0.00003207,0.00006454,-0.
 00019478,0.00065570,0.00016210,0.00071046,-0.00136235,0.00060340,-0.00
 046298,0.00056611,-0.00035877,-0.00014826,0.00012175,-0.00008405,-0.00
 013640,0.00029502,-0.00272903,-0.00012742,0.01020146,-0.02873344,-0.00
 804030,-0.00001904,0.00004675,-0.00000085,-0.00020095,0.00021046,0.000
 05843,0.00055821,0.00128390,0.00054406,0.00001794,0.00000530,0.0000128
 9,-0.00031831,0.00028940,0.00001191,-0.00007889,0.00025572,0.00026744,
 0.00093553,0.00140515,0.00158240,-0.00022947,-0.00004028,-0.00022880,-
 0.00002573,-0.00008074,-0.00011712,-0.00016982,0.00033386,-0.00059417,
 0.03816641,-0.08411797,-0.09312533,-0.00547151,0.00792790,0.00554327,-
 0.00670782,0.01372179,0.00775886,-0.03691989,0.09259883,0.09438195,0.0
 0022937,0.00020193,-0.00091432,-0.00009324,0.00109939,0.00083631,0.003
 03423,-0.00020088,-0.00262717,0.00004492,0.00000943,-0.00001140,-0.000
 66339,-0.00028675,0.00009618,0.00060946,0.00064166,-0.00045739,-0.0016
 9494,0.00075107,0.00209695,0.00055557,-0.00038532,-0.00020023,-0.00006
 738,-0.00009956,-0.00006265,0.00005156,0.00004053,-0.00025504,-0.00011
 590,0.00019302,0.00011812,0.00074697,-0.00125937,0.00031276,-0.0000163
 5,0.00001464,0.00000820,0.00027432,0.00001228,0.00004083,0.00056338,0.
 00036385,-0.00132905,0.00000059,0.00000241,-0.00001935,0.00007015,0.00
 006607,0.00019470,0.00022725,-0.00000168,0.00026898,0.00039220,0.00014
 804,0.00037125,-0.00009301,0.00002557,-0.00008094,-0.00001702,-0.00003
 154,-0.00004420,-0.00022179,0.00012530,-0.00025774,-0.02251223,-0.0408
 1152,0.01374252,-0.10398077,-0.12210646,0.03327771,-0.00768576,0.00150
 055,-0.00224476,0.00164701,0.00060411,0.00104642,0.12858138,-0.0001521
 5,-0.00007228,-0.00031417,0.00002584,-0.00013985,0.00025934,-0.0017499
 7,-0.00252626,0.00200050,0.00005801,0.00000877,0.00001114,0.00000542,0
 .00012150,0.00024918,0.00005582,-0.00060761,-0.00044336,0.00091527,0.0
 0076588,-0.00102633,-0.00040873,-0.00026397,0.00020290,-0.00007862,-0.
 00002856,-0.00010223,0.00008437,-0.00003409,-0.00023528,-0.00001742,0.
 00083633,0.00054787,0.00156960,-0.00032291,-0.00076587,0.00000984,-0.0
 0000263,0.00000456,0.00009010,-0.00009575,0.00005233,-0.00035964,-0.00
 007190,-0.00054703,-0.00001736,-0.00000578,0.00003052,0.00007123,0.000
 00012,0.00011020,0.00022300,-0.00007035,0.00018741,-0.00009841,-0.0004
 0305,-0.00020528,-0.00002851,0.00004825,-0.00001315,-0.00000942,-0.000
 00046,-0.00001848,0.00007666,0.00010790,0.00017952,0.00584297,0.001114
 23,0.00163427,-0.16808098,-0.39306566,0.12163136,0.00061554,0.00228455
 ,-0.00048142,0.00175303,0.00165617,-0.00010553,0.15958200,0.39071403,-
 0.00046833,-0.00047763,-0.00024742,0.00037336,0.00097735,-0.00049616,-
 0.00124267,-0.00126314,0.00182065,0.00010370,0.00000890,0.00003400,-0.
 00016629,0.00037984,0.00014958,0.00014197,-0.00078802,-0.00012226,0.00
 051577,0.00022595,-0.00164046,-0.00000604,-0.00042325,0.00042860,-0.00
 010747,-0.00004549,-0.00014212,-0.00019859,0.00002634,-0.00014770,-0.0
 0012601,0.00100261,-0.00050275,-0.00227579,-0.00358382,0.00253687,0.00
 002649,0.00000989,0.00000422,0.00034681,-0.00003903,0.00002251,0.00056
 830,0.00102357,-0.00116959,-0.00000429,0.00003697,-0.00003740,0.000122
 84,0.00002520,0.00016287,0.00029819,-0.00006079,0.00012508,0.00008956,
 -0.00040288,-0.00026250,-0.00006114,0.00003562,-0.00000568,-0.00002396
 ,-0.00001099,-0.00002792,-0.00017470,0.00015929,0.00003070,-0.00609134
 ,-0.00688055,0.00033926,0.05175941,0.13207553,-0.04744295,0.00039539,-
 0.00015382,0.00042359,0.00024063,0.00069050,0.00030931,-0.04440244,-0.
 12287440,0.04580476,-0.08536997,0.06601760,0.01219775,0.00280450,-0.00
 307805,-0.00538162,0.00004410,-0.00001509,-0.00002053,-0.00037538,-0.0
 0002959,-0.00001156,0.00045329,0.00078603,0.00063175,0.00020322,0.0001
 1648,-0.00056188,-0.00047174,-0.00003009,0.00022915,0.00072164,-0.0002
 8123,0.00008638,-0.00827669,0.03108785,0.00709960,-0.00443696,-0.00283
 380,-0.00251083,-0.00051848,-0.00033530,-0.00097445,-0.00010333,0.0012
 7967,-0.00058312,0.00088910,-0.00057245,0.00034712,-0.00000784,0.00002
 734,0.00008805,-0.00009827,-0.00020501,0.00035960,0.00011937,0.0003460
 1,-0.00000093,0.00128739,-0.00129031,-0.00020039,-0.00120658,0.0023939
 6,0.00093045,0.00038022,0.00017328,0.00065177,-0.00064674,0.00014838,-
 0.00027847,0.00005672,-0.00017696,0.00009438,-0.00013789,-0.00004244,-
 0.00015742,0.00017495,-0.00028804,-0.00013729,0.00008330,-0.00002957,0
 .00004650,-0.00001862,-0.00000886,0.00003478,-0.00007744,-0.00007502,-
 0.00017052,0.00000824,0.00001007,0.00002413,0.08118815,0.06963832,-0.2
 5680446,-0.02068466,0.00172184,0.00004967,-0.00744722,0.00024801,-0.00
 029233,-0.00013170,-0.00057717,-0.00026048,0.00007851,-0.00329722,0.00
 220590,-0.00189384,-0.00075250,-0.00075597,0.00042946,-0.00077372,0.00
 107380,-0.00005646,0.00130306,-0.00142377,-0.00075715,0.00091905,-0.00
 523468,-0.00260767,0.00029474,0.00166957,0.00021375,-0.00002901,0.0002
 6926,0.00028140,-0.00046368,0.00191378,-0.00008241,0.00093451,0.000645
 93,-0.00007396,0.00005830,-0.00005524,-0.00006057,-0.00001415,0.000201
 81,0.00078810,-0.00033421,0.00039994,-0.00003698,0.00030348,0.00061645
 ,0.00099985,0.00050433,-0.00036364,-0.00007281,-0.00001912,-0.00013061
 ,-0.00013054,-0.00001672,-0.00001809,0.00013442,0.00004713,0.00001833,
 0.00016786,-0.00003633,0.00007882,0.00005693,0.00033720,-0.00015019,0.
 00018605,-0.00031897,0.00010901,-0.00009938,-0.00002947,-0.00001483,-0
 .00002710,-0.00005621,-0.00004343,-0.00007240,0.00003605,0.00002726,0.
 00009149,-0.06255650,0.29178355,0.00191719,-0.02110793,-0.04302686,0.0
 0704511,-0.02591083,-0.02070511,0.00025666,-0.00023023,-0.00016487,-0.
 00000400,0.00002649,0.00002705,0.00062448,-0.00012564,0.00055140,0.000
 12900,0.00008088,-0.00067270,-0.00151591,0.00063054,0.00030555,0.00203
 036,-0.00169677,0.00017045,-0.00250368,0.00655158,0.00636668,-0.000834
 62,-0.00106331,-0.00068864,-0.00081495,0.00004650,-0.00055223,0.000072
 53,0.00399897,-0.00528045,-0.00004405,-0.00030382,-0.00000022,-0.00002
 895,0.00000767,0.00004399,-0.00023268,-0.00054950,-0.00019018,0.000148
 02,-0.00006062,0.00007856,0.00168039,-0.00066881,0.00087383,-0.0004153
 4,0.00072369,0.00049306,0.00048412,-0.00026128,0.00040635,-0.00020834,
 0.00010679,-0.00019595,0.00013611,-0.00018519,0.00028603,-0.00008030,0
 .00002013,-0.00014641,0.00089204,-0.00210593,-0.00013819,-0.00043866,0
 .00012755,-0.00001021,0.00000343,0.00002307,0.00018186,-0.00028584,-0.
 00012902,-0.00071984,0.00008397,0.00003637,-0.00000011,-0.01164037,0.0
 2056585,0.05475864,-0.24993882,-0.15113972,0.04232401,0.01069821,-0.00
 254515,0.04085266,-0.00115739,0.00147815,0.00148037,-0.00281522,-0.000
 43328,-0.00405600,-0.07351304,0.02708710,-0.03286865,-0.00990156,-0.00
 851391,0.02384653,0.01702689,0.00232698,-0.01164661,-0.01857231,0.0038
 8420,-0.00162205,-0.03217980,-0.03624736,0.02382998,0.00234728,-0.0038
 0963,-0.00059731,0.00018768,-0.00069806,-0.00217459,0.00005177,-0.0116
 3129,0.00035249,-0.00966963,0.00105483,-0.00128960,0.00054441,-0.00010
 906,0.00010580,-0.00033995,0.00377641,0.00099647,-0.00158846,0.0002589
 5,0.00068851,0.00105106,0.00137718,-0.00192438,-0.00246448,0.00171117,
 0.00031739,-0.00022842,0.00212138,0.00166507,0.00019548,0.00005241,-0.
 00026303,0.00061721,-0.00063494,0.00031444,-0.00036635,-0.00052021,-0.
 00039301,-0.00264666,0.00205715,-0.00066562,0.00324998,-0.00071032,-0.
 00014444,0.00012920,0.00015483,-0.00062364,0.00065813,0.00036674,0.000
 83648,-0.00060664,0.00017566,0.00037478,0.01170167,-0.01383265,0.00486
 491,0.31684249,-0.15665132,-0.29032529,0.06184562,-0.00313485,0.008579
 45,0.03484628,-0.00013283,-0.00064076,-0.00031237,-0.00190233,0.000530
 60,-0.00018709,0.00586907,0.01131748,-0.00081688,-0.00178485,-0.002246
 79,0.00339206,0.00545612,0.00095918,-0.00076248,-0.00750568,0.00061927
 ,-0.00163163,-0.01296100,0.00595060,0.00785320,-0.00330899,-0.00561381
 ,0.00046432,0.00043649,0.00076723,0.00015665,-0.00070288,-0.01393365,-
 0.00088839,0.00163522,0.00129022,-0.00015559,0.00071822,-0.00009174,-0
 .00032947,0.00209906,0.00509581,0.00083317,0.00095387,0.00328896,-0.00
 105417,0.00167116,0.00244289,-0.00111049,0.00154094,0.00268492,-0.0005
 9086,-0.00072059,0.00114386,-0.00012993,-0.00056443,0.00032233,0.00018
 139,0.00013049,-0.00050553,-0.00013760,-0.00019185,0.00013265,0.000388
 68,0.00011071,0.00455120,0.00049606,0.00020727,0.00020414,-0.00018826,
 -0.00019059,-0.00009562,-0.00150470,0.00050338,0.00042992,0.00119029,-
 0.00013678,0.00000439,0.00041333,-0.02917268,-0.03353071,0.02129943,0.
 18487195,0.32853618,0.07935355,0.08850634,-0.10414089,0.02105694,0.021
 19167,-0.04251355,0.00064852,-0.00018884,0.00045390,-0.00332775,0.0006
 4721,-0.00176889,-0.00755140,0.00197496,0.01304463,0.00313797,0.000473
 57,-0.00365045,-0.00631869,0.00115775,0.00074672,0.00785533,-0.0031614
 2,0.00211802,0.00562839,-0.00062752,0.00073347,-0.00026301,0.00107459,
 -0.00102482,-0.00218066,0.00073617,-0.00093800,-0.00066770,0.00861620,
 0.00161308,-0.00116882,0.00034920,0.00070206,0.00017732,0.00001045,0.0
 0032268,0.00068718,-0.00043092,-0.00178415,0.00040213,-0.00097788,-0.0
 0015303,-0.00037724,-0.00093093,0.00381213,0.00016417,0.00001809,0.001
 47428,0.00153397,-0.00121341,0.00076880,-0.00022168,0.00009676,-0.0003
 8556,-0.00007586,0.00000704,0.00063973,-0.00040212,0.00031670,-0.00045
 164,0.00128020,0.00039177,0.00023572,-0.00080234,-0.00024803,-0.000682
 39,-0.00033073,-0.00012138,-0.00000720,-0.00028074,-0.00038429,-0.0004
 1129,0.00029048,0.00021275,0.00034464,-0.00005268,0.00770854,0.0090456
 6,-0.09560096,-0.12941386,0.14548292,-0.02857754,-0.03546826,0.0342124
 5,-0.00469395,0.00263397,-0.02110004,0.00139510,-0.00263520,-0.0018840
 1,-0.00460290,-0.00053167,0.00068518,-0.13097424,0.02878554,-0.0164902
 9,0.02142435,0.01047229,-0.03553071,-0.02183907,-0.00330547,0.01768896
 ,0.01868268,-0.00536577,0.00524938,0.00302953,0.00250954,-0.00519799,-
 0.00158431,0.00184051,0.00100001,-0.00045240,0.00120801,0.00134534,-0.
 00114312,0.00433375,-0.00002682,0.00261586,0.00014374,0.00004054,0.000
 07492,-0.00003863,-0.00015264,-0.00006392,-0.00002469,0.00145431,-0.00
 053751,0.00091979,-0.00014472,0.00085455,-0.00001468,0.00113784,0.0023
 4372,-0.00134508,-0.00054248,0.00025413,-0.00159209,-0.00131317,-0.000
 11666,0.00000121,0.00017148,-0.00021072,0.00022109,-0.00037308,0.00006
 979,0.00058058,0.00040292,0.00381604,-0.00049360,0.00138800,-0.0038923
 1,0.00110124,0.00002986,-0.00024244,-0.00000064,-0.00011630,-0.0005496
 1,-0.00022557,-0.00058807,0.00073184,-0.00016323,-0.00003228,0.0016300
 9,0.00676162,-0.00132061,0.04068726,0.01285771,-0.00259378,0.10187084,
 -0.01047725,0.01078046,-0.01030349,0.00213294,-0.00182070,0.00556456,-
 0.00047119,0.00141397,0.00066009,0.02244855,-0.00776729,0.00844678,0.0
 1407028,-0.04072046,-0.01283994,0.00116000,-0.00463746,0.01345060,0.00
 479541,0.00025231,-0.00518968,-0.00603355,0.00174815,0.00002222,-0.001
 25123,-0.00222615,0.00285985,0.00049867,-0.00056707,-0.00013141,-0.000
 05897,-0.00036706,-0.00012657,0.00065150,0.00020003,-0.00012286,-0.001
 14451,0.00012133,-0.00004263,-0.00008508,0.00000621,-0.00000285,0.0001
 9052,-0.00043040,-0.00045795,0.00005731,0.00000811,0.00002707,0.000132
 73,-0.00005527,-0.00024677,-0.00043426,0.00027924,0.00004989,-0.000008
 03,0.00021491,0.00023453,0.00003774,0.00002800,-0.00004012,0.00008424,
 -0.00003084,0.00008946,0.00005389,-0.00010092,-0.00007468,-0.00096682,
 0.00002927,-0.00037959,0.00099086,-0.00051795,-0.00002864,0.00003802,-
 0.00000501,0.00008913,0.00014749,0.00003596,0.00011527,-0.00009803,0.0
 0002173,-0.00017856,-0.00136569,-0.00198466,0.00015337,-0.00192952,-0.
 03186735,0.00420872,-0.02316604,0.07795892,0.00347744,-0.01013935,0.00
 787209,-0.00186154,0.00052165,-0.00434095,0.00016708,-0.00062828,-0.00
 109726,0.02564970,-0.00864704,0.01173755,-0.05649183,0.00804091,-0.077
 17205,-0.01056689,0.00640055,-0.01067925,-0.00139789,-0.00117306,0.003
 27560,0.00528454,0.00021782,-0.00083780,0.00083766,0.00226912,0.000307
 79,-0.00050778,0.00030739,0.00049721,0.00004315,-0.00005978,0.00059806
 ,0.00042252,0.00063421,-0.00085058,0.00082701,0.00008604,-0.00000840,-
 0.00007131,0.00002797,-0.00006207,0.00020842,-0.00038110,0.00037184,-0
 .00009673,0.00025272,-0.00010506,0.00052245,-0.00017020,0.00013515,0.0
 0034679,-0.00018411,-0.00037039,-0.00021774,-0.00012143,-0.00044069,0.
 00000258,-0.00001300,0.00010804,-0.00000885,0.00006838,0.00004475,0.00
 011312,0.00005690,0.00016644,0.00103222,-0.00007451,0.00013551,-0.0011
 1049,0.00039543,0.00049423,-0.00005775,-0.00004315,-0.00001139,-0.0001
 4856,-0.00000651,-0.00005132,0.00012129,-0.00021768,-0.00029160,-0.000
 13934,0.00253262,-0.00109714,0.01102001,0.00585330,-0.02362657,0.02260
 073,-0.00580581,0.09529824\\-0.00000130,0.00000280,-0.00000484,0.00000
 161,-0.00000102,-0.00000317,-0.00000353,-0.00000387,-0.00000203,-0.000
 00235,-0.00001007,0.00000172,-0.00000681,-0.00000371,-0.00000221,-0.00
 000371,-0.00001060,0.00000128,0.00000936,-0.00001008,-0.00000708,-0.00
 001265,0.00000053,-0.00000004,-0.00000057,0.00000270,0.00000232,0.0000
 0355,0.00000176,0.00000239,0.00000507,0.00000340,-0.00000098,0.0000013
 9,-0.00000467,-0.00000537,-0.00000385,0.00000302,0.00000226,-0.0000006
 7,0.00000743,0.00000198,0.00000115,0.00000183,0.00000055,0.00000071,0.
 00000245,-0.00000023,-0.00000230,0.00000029,0.00000102,0.00000069,0.00
 000549,0.00000016,0.00000496,0.00000571,-0.00000137,0.00000337,0.00000
 669,0.00000072,-0.00000243,0.00000337,0.00000178,0.00000577,0.00000232
 ,-0.00000108,0.00000105,0.00000098,0.00000034,0.00000024,0.00000487,0.
 00000231,0.00000014,0.00000241,-0.00000007,0.00000545,0.00000214,-0.00
 000134,0.00000426,-0.00000185,-0.00000234,-0.00000353,-0.00000111,0.00
 000658,-0.00000922,-0.00000366,0.00000895,0.00000416,-0.00000956,-0.00
 000224\\\@
 Job cpu time:       0 days  7 hours  2 minutes 40.6 seconds.
 File lengths (MBytes):  RWF= 123821 Int=      0 D2E=      0 Chk=     23 Scr=      1
 Normal termination of Gaussian 09 at Mon Jun  6 14:08:13 2016.
