 Entering Gaussian System, Link 0=g09
 Initial command:
 /global/software/gaussian/g09.e01/l1.exe "/scratch/10501387.yak.local/Gau-32219.inp" -scrdir="/scratch/10501387.yak.local/"
 Entering Link 1 = /global/software/gaussian/g09.e01/l1.exe PID=     32220.
  
 Copyright (c) 1988,1990,1992,1993,1995,1998,2003,2009,2015,
            Gaussian, Inc.  All Rights Reserved.
  
 This is part of the Gaussian(R) 09 program.  It is based on
 the Gaussian(R) 03 system (copyright 2003, Gaussian, Inc.),
 the Gaussian(R) 98 system (copyright 1998, Gaussian, Inc.),
 the Gaussian(R) 94 system (copyright 1995, Gaussian, Inc.),
 the Gaussian 92(TM) system (copyright 1992, Gaussian, Inc.),
 the Gaussian 90(TM) system (copyright 1990, Gaussian, Inc.),
 the Gaussian 88(TM) system (copyright 1988, Gaussian, Inc.),
 the Gaussian 86(TM) system (copyright 1986, Carnegie Mellon
 University), and the Gaussian 82(TM) system (copyright 1983,
 Carnegie Mellon University). Gaussian is a federally registered
 trademark of Gaussian, Inc.
  
 This software contains proprietary and confidential information,
 including trade secrets, belonging to Gaussian, Inc.
  
 This software is provided under written license and may be
 used, copied, transmitted, or stored only in accord with that
 written license.
  
 The following legend is applicable only to US Government
 contracts under FAR:
  
                    RESTRICTED RIGHTS LEGEND
  
 Use, reproduction and disclosure by the US Government is
 subject to restrictions as set forth in subparagraphs (a)
 and (c) of the Commercial Computer Software - Restricted
 Rights clause in FAR 52.227-19.
  
 Gaussian, Inc.
 340 Quinnipiac St., Bldg. 40, Wallingford CT 06492
  
  
 ---------------------------------------------------------------
 Warning -- This program may not be used in any manner that
 competes with the business of Gaussian, Inc. or will provide
 assistance to any competitor of Gaussian, Inc.  The licensee
 of this program is prohibited from giving any competitor of
 Gaussian, Inc. access to this program.  By using this program,
 the user acknowledges that Gaussian, Inc. is engaged in the
 business of creating and licensing software in the field of
 computational chemistry and represents and warrants to the
 licensee that it is not a competitor of Gaussian, Inc. and that
 it will not use this program in any manner prohibited above.
 ---------------------------------------------------------------
  

 Cite this work as:
 Gaussian 09, Revision E.01,
 M. J. Frisch, G. W. Trucks, H. B. Schlegel, G. E. Scuseria, 
 M. A. Robb, J. R. Cheeseman, G. Scalmani, V. Barone, B. Mennucci, 
 G. A. Petersson, H. Nakatsuji, M. Caricato, X. Li, H. P. Hratchian, 
 A. F. Izmaylov, J. Bloino, G. Zheng, J. L. Sonnenberg, M. Hada, 
 M. Ehara, K. Toyota, R. Fukuda, J. Hasegawa, M. Ishida, T. Nakajima, 
 Y. Honda, O. Kitao, H. Nakai, T. Vreven, J. A. Montgomery, Jr., 
 J. E. Peralta, F. Ogliaro, M. Bearpark, J. J. Heyd, E. Brothers, 
 K. N. Kudin, V. N. Staroverov, T. Keith, R. Kobayashi, J. Normand, 
 K. Raghavachari, A. Rendell, J. C. Burant, S. S. Iyengar, J. Tomasi, 
 M. Cossi, N. Rega, J. M. Millam, M. Klene, J. E. Knox, J. B. Cross, 
 V. Bakken, C. Adamo, J. Jaramillo, R. Gomperts, R. E. Stratmann, 
 O. Yazyev, A. J. Austin, R. Cammi, C. Pomelli, J. W. Ochterski, 
 R. L. Martin, K. Morokuma, V. G. Zakrzewski, G. A. Voth, 
 P. Salvador, J. J. Dannenberg, S. Dapprich, A. D. Daniels, 
 O. Farkas, J. B. Foresman, J. V. Ortiz, J. Cioslowski, 
 and D. J. Fox, Gaussian, Inc., Wallingford CT, 2013.
 
 ******************************************
 Gaussian 09:  ES64L-G09RevE.01 30-Nov-2015
                31-Jan-2017 
 ******************************************
 %NPROCS=4
 Will use up to    4 processors via shared memory.
 ----------------------------------------------------------------------
 # opt=(calcfc,ts,noeigentest,maxcycle=1000,cartesian) b3lyp 6-31g(d) f
 req
 ----------------------------------------------------------------------
 1/5=1,6=1000,10=4,11=1,14=-1,18=10,26=3,38=1/1,3;
 2/12=2,17=6,18=5,29=2,40=1/2;
 3/5=1,6=6,7=1,11=2,16=1,25=1,30=1,71=2,74=-5,140=1/1,2,3;
 4//1;
 5/5=2,38=5/2;
 8/6=4,10=90,11=11/1;
 11/6=1,8=1,9=11,15=111,16=1/1,2,10;
 10/6=1,13=1/2;
 6/7=2,8=2,9=2,10=2,28=1/1;
 7/7=1,10=1,18=20,25=1/1,2,3,16;
 1/5=1,6=1000,10=4,11=1,14=-1,18=10,26=3/3(2);
 2/29=1/2;
 99/12=1/99;
 2/29=1/2;
 3/5=1,6=6,7=1,11=2,16=1,25=1,30=1,71=1,74=-5/1,2,3;
 4/5=5,16=3,69=1/1;
 5/5=2,38=5/2;
 7/7=1/1,2,3,16;
 1/5=1,6=1000,11=1,14=-1,18=10,26=3/3(-5);
 2/29=1/2;
 6/7=2,8=2,9=2,10=2,19=2,28=1/1;
 99/9=1,12=1/99;
 ------------------------------------------
 ./3/glo_1w_beta_boat3_b3lyp_631Gd_iopt.out
 ------------------------------------------
 Symbolic Z-matrix:
 Charge =  0 Multiplicity = 1
 C                     0.11009   1.40819   1.02473 
 C                     0.76758  -0.90638   0.027 
 O                    -1.60164  -0.07578   0.14675 
 C                    -0.7226   -1.2367    0.15819 
 C                    -1.06034   1.23757   0.05276 
 C                     1.21471   0.35743   0.79252 
 H                    -0.90211  -1.71955   1.12818 
 H                     1.57117   0.03864   1.77819 
 H                     0.94228  -0.72175  -1.04355 
 H                    -1.88019   1.89528   0.38511 
 H                     0.53068   2.41539   0.87758 
 C                    -0.72893   1.65451  -1.39452 
 H                    -1.53163   1.29335  -2.05193 
 H                     0.20872   1.20983  -1.73355 
 O                    -1.05515  -2.06136  -0.90409 
 H                    -1.98955  -2.33258  -0.77096 
 O                    -0.54206   3.06355  -1.49069 
 H                    -1.41478   3.48334  -1.43969 
 O                     1.47441  -2.0447    0.46239 
 H                     2.36566  -2.00821   0.04744 
 O                     2.3047    0.91328   0.02366 
 H                     2.70904   1.626     0.54416 
 O                    -0.30991   1.21819   2.37408 
 H                    -1.12528   1.72466   2.51414 
 O                    -3.74335  -1.85875  -0.17272 
 H                    -3.93232  -2.16903   0.72601 
 H                    -3.3164   -0.98818  -0.04505 
 O                     3.84955  -1.28834  -0.76374 
 H                     3.77014  -1.36879  -1.72633 
 H                     3.49917  -0.39476  -0.55896 
 

 GradGradGradGradGradGradGradGradGradGradGradGradGradGradGradGradGradGrad
 Berny optimization.
 Initialization pass.
 No Z-matrix variables, so optimization will use Cartesian coordinates.
 Trust Radius=3.00D-01 FncErr=1.00D-07 GrdErr=1.00D-06
 Number of steps in this run=    180 maximum allowed number of steps=    180.
 Search for a saddle point of order  1.
 GradGradGradGradGradGradGradGradGradGradGradGradGradGradGradGradGradGrad

 ---------------------------------------------------------------------------------------------------
                            Z-MATRIX (ANGSTROMS AND DEGREES)
   CD    Cent   Atom    N1       Length/X        N2       Alpha/Y        N3        Beta/Z          J
 ---------------------------------------------------------------------------------------------------
      1      1  C        0   0.110090          1.408190          1.024730
      2      2  C        0   0.767580         -0.906380          0.027000
      3      3  O        0  -1.601640         -0.075780          0.146750
      4      4  C        0  -0.722600         -1.236700          0.158190
      5      5  C        0  -1.060340          1.237570          0.052760
      6      6  C        0   1.214710          0.357430          0.792520
      7      7  H        0  -0.902110         -1.719550          1.128180
      8      8  H        0   1.571170          0.038640          1.778190
      9      9  H        0   0.942280         -0.721750         -1.043550
     10     10  H        0  -1.880190          1.895280          0.385110
     11     11  H        0   0.530680          2.415390          0.877580
     12     12  C        0  -0.728930          1.654510         -1.394520
     13     13  H        0  -1.531630          1.293350         -2.051930
     14     14  H        0   0.208720          1.209830         -1.733550
     15     15  O        0  -1.055150         -2.061360         -0.904090
     16     16  H        0  -1.989550         -2.332580         -0.770960
     17     17  O        0  -0.542060          3.063550         -1.490690
     18     18  H        0  -1.414780          3.483340         -1.439690
     19     19  O        0   1.474410         -2.044700          0.462390
     20     20  H        0   2.365660         -2.008210          0.047440
     21     21  O        0   2.304700          0.913280          0.023660
     22     22  H        0   2.709040          1.626000          0.544160
     23     23  O        0  -0.309910          1.218190          2.374080
     24     24  H        0  -1.125280          1.724660          2.514140
     25     25  O        0  -3.743350         -1.858750         -0.172720
     26     26  H        0  -3.932320         -2.169030          0.726010
     27     27  H        0  -3.316400         -0.988180         -0.045050
     28     28  O        0   3.849550         -1.288340         -0.763740
     29     29  H        0   3.770140         -1.368790         -1.726330
     30     30  H        0   3.499170         -0.394760         -0.558960
 ---------------------------------------------------------------------------------------------------
                         Z-Matrix orientation:                         
 ---------------------------------------------------------------------
 Center     Atomic      Atomic             Coordinates (Angstroms)
 Number     Number       Type             X           Y           Z
 ---------------------------------------------------------------------
      1          6           0        0.110090    1.408190    1.024730
      2          6           0        0.767580   -0.906380    0.027000
      3          8           0       -1.601640   -0.075780    0.146750
      4          6           0       -0.722600   -1.236700    0.158190
      5          6           0       -1.060340    1.237570    0.052760
      6          6           0        1.214710    0.357430    0.792520
      7          1           0       -0.902110   -1.719550    1.128180
      8          1           0        1.571170    0.038640    1.778190
      9          1           0        0.942280   -0.721750   -1.043550
     10          1           0       -1.880190    1.895280    0.385110
     11          1           0        0.530680    2.415390    0.877580
     12          6           0       -0.728930    1.654510   -1.394520
     13          1           0       -1.531630    1.293350   -2.051930
     14          1           0        0.208720    1.209830   -1.733550
     15          8           0       -1.055150   -2.061360   -0.904090
     16          1           0       -1.989550   -2.332580   -0.770960
     17          8           0       -0.542060    3.063550   -1.490690
     18          1           0       -1.414780    3.483340   -1.439690
     19          8           0        1.474410   -2.044700    0.462390
     20          1           0        2.365660   -2.008210    0.047440
     21          8           0        2.304700    0.913280    0.023660
     22          1           0        2.709040    1.626000    0.544160
     23          8           0       -0.309910    1.218190    2.374080
     24          1           0       -1.125280    1.724660    2.514140
     25          8           0       -3.743350   -1.858750   -0.172720
     26          1           0       -3.932320   -2.169030    0.726010
     27          1           0       -3.316400   -0.988180   -0.045050
     28          8           0        3.849550   -1.288340   -0.763740
     29          1           0        3.770140   -1.368790   -1.726330
     30          1           0        3.499170   -0.394760   -0.558960
 ---------------------------------------------------------------------
                    Distance matrix (angstroms):
                    1          2          3          4          5
     1  C    0.000000
     2  C    2.604802   0.000000
     3  O    2.429616   2.513452   0.000000
     4  C    2.905117   1.531979   1.456220   0.000000
     5  C    1.530929   2.817530   1.423632   2.499439   0.000000
     6  C    1.542142   1.543749   2.921732   2.587817   2.549067
     7  H    3.289074   2.159099   2.038266   1.098293   3.150575
     8  H    2.139655   2.146040   3.569511   3.084197   3.367401
     9  H    3.083337   1.100312   2.881947   2.116879   3.008541
    10  H    2.146529   3.871463   2.004865   3.346761   1.102358
    11  H    1.101363   3.437116   3.359588   3.927594   2.144512
    12  C    2.572430   3.289136   2.476094   3.281774   1.542171
    13  H    3.489165   3.800938   2.591064   3.455476   2.157532
    14  H    2.767162   2.808951   2.909592   3.229790   2.191389
    15  O    4.137138   2.350160   2.312022   1.385313   3.434899
    16  H    4.650414   3.205082   2.466944   1.915577   3.779936
    17  O    3.081048   4.447346   3.695851   4.609073   2.446437
    18  H    3.564385   5.116983   3.901159   5.031015   2.719654
    19  O    3.755003   1.408881   3.665837   2.360562   4.167259
    20  H    4.208857   1.941213   4.414025   3.185097   4.719385
    21  O    2.462395   2.381997   4.031486   3.715516   3.380755
    22  H    2.651967   3.232595   4.651446   4.485552   3.821070
    23  O    1.425919   3.344184   2.881653   3.332712   2.439682
    24  H    1.960774   4.085481   3.012148   3.805562   2.509953
    25  O    5.191896   4.614692   2.804989   3.101835   4.103240
    26  H    5.406183   4.916499   3.185798   3.390275   4.506269
    27  H    4.316000   4.085435   1.951836   2.613593   3.170700
    28  O    4.945044   3.204638   5.658159   4.664459   5.581569
    29  H    5.354990   3.507614   5.834066   4.873764   5.769906
    30  H    4.152658   2.840192   5.159267   4.364231   4.881376
                    6          7          8          9         10
     6  C    0.000000
     7  H    2.984534   0.000000
     8  H    1.095553   3.103363   0.000000
     9  H    2.147091   3.018906   2.989300   0.000000
    10  H    3.479852   3.817825   4.159287   4.105637   0.000000
    11  H    2.170330   4.383311   2.746390   3.701595   2.515022
    12  C    3.200515   4.216431   4.238819   2.926215   2.133179
    13  H    4.063155   4.425716   5.086402   3.346295   2.534359
    14  H    2.849497   4.243196   3.944651   2.178351   3.053213
    15  O    3.725761   2.066489   4.301416   2.409093   4.242373
    16  H    4.466308   2.272678   4.979917   3.356293   4.384434
    17  O    3.952515   5.464994   4.929645   4.090440   2.583423
    18  H    4.654921   5.824676   5.580019   4.836883   2.463420
    19  O    2.438577   2.489347   2.465968   2.073937   5.175206
    20  H    2.734243   3.453932   2.795766   2.207091   5.777413
    21  O    1.445058   4.293645   2.093188   2.380850   4.313731
    22  H    1.975848   4.957236   2.310258   3.339790   4.599874
    23  O    2.359387   3.245502   2.298888   4.124505   2.623020
    24  H    3.210739   3.719311   3.264219   4.787158   2.265341
    25  O    5.515932   3.127997   5.970784   4.899617   4.227917
    26  H    5.734051   3.089651   6.022399   5.384021   4.565749
    27  H    4.800328   2.782116   5.316663   4.382276   3.249935
    28  O    3.474606   5.132599   3.662417   2.975153   6.654714
    29  H    3.981791   5.486454   4.370125   2.980208   6.858466
    30  H    2.758812   4.896200   3.060603   2.622868   5.922252
                   11         12         13         14         15
    11  H    0.000000
    12  C    2.707027   0.000000
    13  H    3.754214   1.098614   0.000000
    14  H    2.893965   1.091728   1.771203   0.000000
    15  O    5.072524   3.762264   3.577520   3.603617   0.000000
    16  H    5.622496   4.227869   3.872718   4.278743   0.982032
    17  O    2.679475   1.424627   2.104245   2.014678   5.183827
    18  H    3.208593   1.953727   2.276960   2.809084   5.582105
    19  O    4.577708   4.689027   5.147879   4.125056   2.875103
    20  H    4.860506   5.007120   5.522366   4.263812   3.551081
    21  O    2.476421   3.429806   4.378351   2.751156   4.582335
    22  H    2.340846   3.947015   4.983334   3.407750   5.464721
    23  O    2.092700   3.816844   4.592147   4.140250   4.696512
    24  H    2.428506   3.929330   4.604361   4.481905   5.101290
    25  O    6.135042   4.787747   4.284725   5.241300   2.793273
    26  H    6.399863   5.420130   5.046617   5.883395   3.308614
    27  H    5.218770   3.936989   3.523968   4.484278   2.646302
    28  O    5.237026   5.479118   6.105871   4.520733   4.967227
    29  H    5.620896   5.430660   5.941529   4.396936   4.943597
    30  H    4.332727   4.772263   5.512497   3.844663   4.861944
                   16         17         18         19         20
    16  H    0.000000
    17  O    5.633068   0.000000
    18  H    5.882388   0.969776   0.000000
    19  O    3.688231   5.828798   6.521085   0.000000
    20  H    4.443293   6.045116   6.830842   0.983789   0.000000
    21  O    5.441288   3.875688   4.751961   3.103468   2.922223
    22  H    6.283044   4.095951   4.938751   3.873633   3.684036
    23  O    5.031941   4.289020   4.571267   4.181484   4.793911
    24  H    5.291507   4.262797   4.336996   5.017583   5.674997
    25  O    1.912647   6.017835   5.963671   5.259559   6.114803
    26  H    2.458053   6.617214   6.555727   5.414581   6.336472
    27  H    2.023583   5.118921   5.055262   4.932098   5.773632
    28  O    5.931743   6.225242   7.137157   2.777907   1.837976
    29  H    5.917402   6.188395   7.106949   3.243104   2.351102
    30  H    5.824615   5.399960   6.321570   2.804481   2.062956
                   21         22         23         24         25
    21  O    0.000000
    22  H    0.970763   0.000000
    23  O    3.528970   3.553727   0.000000
    24  H    4.315738   4.311910   0.970029   0.000000
    25  O    6.655947   7.368225   5.267092   5.187903   0.000000
    26  H    6.992449   7.651339   5.226016   5.122275   0.969381
    27  H    5.934394   6.594470   4.445137   4.325501   0.977997
    28  O    2.802444   3.391864   5.781844   6.676197   7.637199
    29  H    3.227665   3.905102   6.336611   7.177476   7.688062
    30  H    1.864718   2.434060   5.070840   5.943183   7.399091
                   26         27         28         29         30
    26  H    0.000000
    27  H    1.538927   0.000000
    28  O    7.971980   7.208152   0.000000
    29  H    8.122946   7.293190   0.969205   0.000000
    30  H    7.747659   6.860630   0.981421   1.544316   0.000000
 Stoichiometry    C6H16O8
 Framework group  C1[X(C6H16O8)]
 Deg. of freedom    84
 Full point group                 C1      NOp   1
 Largest Abelian subgroup         C1      NOp   1
 Largest concise Abelian subgroup C1      NOp   1
                         Standard orientation:                         
 ---------------------------------------------------------------------
 Center     Atomic      Atomic             Coordinates (Angstroms)
 Number     Number       Type             X           Y           Z
 ---------------------------------------------------------------------
      1          6           0        0.110089    1.408189    1.024730
      2          6           0        0.767580   -0.906380    0.027000
      3          8           0       -1.601640   -0.075782    0.146750
      4          6           0       -0.722600   -1.236701    0.158190
      5          6           0       -1.060341    1.237569    0.052760
      6          6           0        1.214709    0.357430    0.792520
      7          1           0       -0.902109   -1.719551    1.128180
      8          1           0        1.571169    0.038640    1.778190
      9          1           0        0.942280   -0.721750   -1.043550
     10          1           0       -1.880192    1.895278    0.385110
     11          1           0        0.530678    2.415390    0.877580
     12          6           0       -0.728932    1.654509   -1.394520
     13          1           0       -1.531631    1.293348   -2.051930
     14          1           0        0.208719    1.209829   -1.733550
     15          8           0       -1.055149   -2.061361   -0.904090
     16          1           0       -1.989549   -2.332582   -0.770960
     17          8           0       -0.542063    3.063549   -1.490690
     18          1           0       -1.414783    3.483338   -1.439690
     19          8           0        1.474411   -2.044700    0.462390
     20          1           0        2.365661   -2.008209    0.047440
     21          8           0        2.304699    0.913281    0.023660
     22          1           0        2.709038    1.626001    0.544160
     23          8           0       -0.309911    1.218189    2.374080
     24          1           0       -1.125282    1.724659    2.514140
     25          8           0       -3.743349   -1.858753   -0.172720
     26          1           0       -3.932319   -2.169033    0.726010
     27          1           0       -3.316400   -0.988183   -0.045050
     28          8           0        3.849550   -1.288338   -0.763740
     29          1           0        3.770140   -1.368788   -1.726330
     30          1           0        3.499170   -0.394758   -0.558960
 ---------------------------------------------------------------------
 Rotational constants (GHZ):      0.6453242      0.5032334      0.3767979
 Standard basis: 6-31G(d) (6D, 7F)
 There are   242 symmetry adapted cartesian basis functions of A   symmetry.
 There are   242 symmetry adapted basis functions of A   symmetry.
   242 basis functions,   456 primitive gaussians,   242 cartesian basis functions
    58 alpha electrons       58 beta electrons
       nuclear repulsion energy      1099.0767390480 Hartrees.
 NAtoms=   30 NActive=   30 NUniq=   30 SFac= 1.00D+00 NAtFMM=   60 NAOKFM=F Big=F
 Integral buffers will be    131072 words long.
 Raffenetti 2 integral format.
 Two-electron integral symmetry is turned on.
 One-electron integrals computed using PRISM.
 NBasis=   242 RedAO= T EigKep=  1.46D-03  NBF=   242
 NBsUse=   242 1.00D-06 EigRej= -1.00D+00 NBFU=   242
 ExpMin= 1.61D-01 ExpMax= 5.48D+03 ExpMxC= 8.25D+02 IAcc=1 IRadAn=         1 AccDes= 0.00D+00
 Harris functional with IExCor=  402 and IRadAn=       1 diagonalized for initial guess.
 HarFok:  IExCor=  402 AccDes= 0.00D+00 IRadAn=         1 IDoV= 1 UseB2=F ITyADJ=14
 ICtDFT=  3500011 ScaDFX=  1.000000  1.000000  1.000000  1.000000
 FoFCou: FMM=F IPFlag=           0 FMFlag=      100000 FMFlg1=           0
         NFxFlg=           0 DoJE=T BraDBF=F KetDBF=T FulRan=T
         wScrn=  0.000000 ICntrl=     500 IOpCl=  0 I1Cent=   200000004 NGrid=           0
         NMat0=    1 NMatS0=      1 NMatT0=    0 NMatD0=    1 NMtDS0=    0 NMtDT0=    0
 Petite list used in FoFCou.
 Requested convergence on RMS density matrix=1.00D-08 within 128 cycles.
 Requested convergence on MAX density matrix=1.00D-06.
 Requested convergence on             energy=1.00D-06.
 No special actions if energy rises.
 Integral accuracy reduced to 1.0D-05 until final iterations.
 Initial convergence to 1.0D-05 achieved.  Increase integral accuracy.
 SCF Done:  E(RB3LYP) =  -839.980408981     A.U. after   14 cycles
            NFock= 14  Conv=0.37D-08     -V/T= 2.0085
 DoSCS=F DFT=T ScalE2(SS,OS)=  1.000000  1.000000
 Range of M.O.s used for correlation:     1   242
 NBasis=   242 NAE=    58 NBE=    58 NFC=     0 NFV=     0
 NROrb=    242 NOA=    58 NOB=    58 NVA=   184 NVB=   184
 Symmetrizing basis deriv contribution to polar:
 IMax=3 JMax=2 DiffMx= 0.00D+00
 G2DrvN: will do    31 centers at a time, making    1 passes.
 Calling FoFCou, ICntrl=  3107 FMM=F I1Cent=   0 AccDes= 0.00D+00.
 End of G2Drv F.D. properties file   721 does not exist.
 End of G2Drv F.D. properties file   722 does not exist.
 End of G2Drv F.D. properties file   788 does not exist.
          IDoAtm=111111111111111111111111111111
          Differentiating once with respect to nuclear coordinates.
          There are    93 degrees of freedom in the 1st order CPHF.  IDoFFX=6 NUNeed=     0.
     87 vectors produced by pass  0 Test12= 1.15D-14 1.08D-09 XBig12= 1.05D-01 9.31D-02.
 AX will form    87 AO Fock derivatives at one time.
     87 vectors produced by pass  1 Test12= 1.15D-14 1.08D-09 XBig12= 1.22D-02 1.01D-02.
     87 vectors produced by pass  2 Test12= 1.15D-14 1.08D-09 XBig12= 1.46D-04 1.90D-03.
     87 vectors produced by pass  3 Test12= 1.15D-14 1.08D-09 XBig12= 3.30D-07 5.97D-05.
     87 vectors produced by pass  4 Test12= 1.15D-14 1.08D-09 XBig12= 6.10D-10 2.17D-06.
     67 vectors produced by pass  5 Test12= 1.15D-14 1.08D-09 XBig12= 5.27D-13 4.91D-08.
      1 vectors produced by pass  6 Test12= 1.15D-14 1.08D-09 XBig12= 4.31D-16 1.73D-09.
 InvSVY:  IOpt=1 It=  1 EMax= 5.00D-16
 Solved reduced A of dimension   503 with    93 vectors.
 End of Minotr F.D. properties file   721 does not exist.
 End of Minotr F.D. properties file   722 does not exist.
 End of Minotr F.D. properties file   788 does not exist.

 **********************************************************************

            Population analysis using the SCF density.

 **********************************************************************

 Orbital symmetries:
       Occupied  (A) (A) (A) (A) (A) (A) (A) (A) (A) (A) (A) (A)
                 (A) (A) (A) (A) (A) (A) (A) (A) (A) (A) (A) (A)
                 (A) (A) (A) (A) (A) (A) (A) (A) (A) (A) (A) (A)
                 (A) (A) (A) (A) (A) (A) (A) (A) (A) (A) (A) (A)
                 (A) (A) (A) (A) (A) (A) (A) (A) (A) (A)
       Virtual   (A) (A) (A) (A) (A) (A) (A) (A) (A) (A) (A) (A)
                 (A) (A) (A) (A) (A) (A) (A) (A) (A) (A) (A) (A)
                 (A) (A) (A) (A) (A) (A) (A) (A) (A) (A) (A) (A)
                 (A) (A) (A) (A) (A) (A) (A) (A) (A) (A) (A) (A)
                 (A) (A) (A) (A) (A) (A) (A) (A) (A) (A) (A) (A)
                 (A) (A) (A) (A) (A) (A) (A) (A) (A) (A) (A) (A)
                 (A) (A) (A) (A) (A) (A) (A) (A) (A) (A) (A) (A)
                 (A) (A) (A) (A) (A) (A) (A) (A) (A) (A) (A) (A)
                 (A) (A) (A) (A) (A) (A) (A) (A) (A) (A) (A) (A)
                 (A) (A) (A) (A) (A) (A) (A) (A) (A) (A) (A) (A)
                 (A) (A) (A) (A) (A) (A) (A) (A) (A) (A) (A) (A)
                 (A) (A) (A) (A) (A) (A) (A) (A) (A) (A) (A) (A)
                 (A) (A) (A) (A) (A) (A) (A) (A) (A) (A) (A) (A)
                 (A) (A) (A) (A) (A) (A) (A) (A) (A) (A) (A) (A)
                 (A) (A) (A) (A) (A) (A) (A) (A) (A) (A) (A) (A)
                 (A) (A) (A) (A)
 The electronic state is 1-A.
 Alpha  occ. eigenvalues --  -19.18139 -19.16407 -19.16102 -19.16042 -19.15172
 Alpha  occ. eigenvalues --  -19.14757 -19.13162 -19.12009 -10.28136 -10.25467
 Alpha  occ. eigenvalues --  -10.25012 -10.24698 -10.24050 -10.23583  -1.06692
 Alpha  occ. eigenvalues --   -1.04869  -1.03337  -1.03071  -1.00911  -1.00811
 Alpha  occ. eigenvalues --   -0.99921  -0.99003  -0.78712  -0.76200  -0.69659
 Alpha  occ. eigenvalues --   -0.65068  -0.64103  -0.56339  -0.55678  -0.53886
 Alpha  occ. eigenvalues --   -0.53157  -0.53098  -0.51579  -0.50657  -0.49952
 Alpha  occ. eigenvalues --   -0.48919  -0.46025  -0.45406  -0.43695  -0.42611
 Alpha  occ. eigenvalues --   -0.41731  -0.39919  -0.39214  -0.39080  -0.37527
 Alpha  occ. eigenvalues --   -0.36481  -0.35622  -0.34933  -0.33833  -0.32475
 Alpha  occ. eigenvalues --   -0.30720  -0.30163  -0.29633  -0.29504  -0.28357
 Alpha  occ. eigenvalues --   -0.27437  -0.25985  -0.24959
 Alpha virt. eigenvalues --    0.04616   0.05128   0.05570   0.06727   0.07522
 Alpha virt. eigenvalues --    0.10264   0.10547   0.12639   0.13836   0.14290
 Alpha virt. eigenvalues --    0.15763   0.16307   0.16889   0.17623   0.18474
 Alpha virt. eigenvalues --    0.20163   0.20559   0.21430   0.22000   0.23195
 Alpha virt. eigenvalues --    0.24024   0.24775   0.25933   0.29235   0.29786
 Alpha virt. eigenvalues --    0.32451   0.33355   0.35052   0.50982   0.52745
 Alpha virt. eigenvalues --    0.54009   0.55437   0.56171   0.57175   0.59371
 Alpha virt. eigenvalues --    0.62505   0.63355   0.63745   0.64411   0.66868
 Alpha virt. eigenvalues --    0.68437   0.71524   0.73457   0.75267   0.75778
 Alpha virt. eigenvalues --    0.76529   0.77451   0.80228   0.80271   0.80428
 Alpha virt. eigenvalues --    0.82276   0.83050   0.84105   0.84402   0.85312
 Alpha virt. eigenvalues --    0.85705   0.86304   0.87257   0.87344   0.89391
 Alpha virt. eigenvalues --    0.90251   0.91071   0.92934   0.93902   0.95116
 Alpha virt. eigenvalues --    0.98247   0.99094   0.99976   1.00183   1.01562
 Alpha virt. eigenvalues --    1.03271   1.04387   1.05855   1.06119   1.07059
 Alpha virt. eigenvalues --    1.08587   1.09961   1.10226   1.13413   1.14474
 Alpha virt. eigenvalues --    1.14656   1.16057   1.19023   1.22798   1.25129
 Alpha virt. eigenvalues --    1.29377   1.30871   1.31846   1.34543   1.38077
 Alpha virt. eigenvalues --    1.40227   1.41523   1.43839   1.45202   1.45616
 Alpha virt. eigenvalues --    1.46844   1.51061   1.54846   1.57885   1.60712
 Alpha virt. eigenvalues --    1.62204   1.62873   1.66056   1.69078   1.71208
 Alpha virt. eigenvalues --    1.71784   1.72056   1.72550   1.73637   1.74152
 Alpha virt. eigenvalues --    1.75321   1.75740   1.76553   1.79392   1.81065
 Alpha virt. eigenvalues --    1.81560   1.82246   1.84008   1.85544   1.86633
 Alpha virt. eigenvalues --    1.89974   1.91266   1.91551   1.93994   1.95464
 Alpha virt. eigenvalues --    1.96111   1.99484   2.01461   2.03446   2.05134
 Alpha virt. eigenvalues --    2.07157   2.07833   2.11132   2.13958   2.15830
 Alpha virt. eigenvalues --    2.16972   2.20247   2.25403   2.27073   2.28582
 Alpha virt. eigenvalues --    2.30812   2.32959   2.34153   2.35935   2.39778
 Alpha virt. eigenvalues --    2.41808   2.42681   2.45738   2.47579   2.49010
 Alpha virt. eigenvalues --    2.51140   2.53242   2.53829   2.55621   2.58044
 Alpha virt. eigenvalues --    2.58409   2.60214   2.64771   2.66304   2.72207
 Alpha virt. eigenvalues --    2.72994   2.76605   2.80053   2.87492   2.90779
 Alpha virt. eigenvalues --    2.92006   2.98001   3.00833   3.06435   3.09146
 Alpha virt. eigenvalues --    3.67629   3.72254   3.74634   3.80424   3.84669
 Alpha virt. eigenvalues --    3.92160   4.00105   4.10700   4.27047   4.39273
 Alpha virt. eigenvalues --    4.45550   4.56505   4.61197   4.79227
          Condensed to atoms (all electrons):
               1          2          3          4          5          6
     1  C    5.048282  -0.027684  -0.038484  -0.006794   0.303648   0.249054
     2  C   -0.027684   4.946462  -0.019641   0.322528  -0.006365   0.302518
     3  O   -0.038484  -0.019641   8.387611   0.164019   0.205567  -0.006628
     4  C   -0.006794   0.322528   0.164019   4.688488  -0.026870  -0.047054
     5  C    0.303648  -0.006365   0.205567  -0.026870   5.009976  -0.018580
     6  C    0.249054   0.302518  -0.006628  -0.047054  -0.018580   5.109349
     7  H    0.000951  -0.053113  -0.056089   0.367696   0.001672  -0.003393
     8  H   -0.053590  -0.031250   0.000066  -0.001879   0.004517   0.351503
     9  H    0.001116   0.331018   0.000253  -0.034981   0.000876  -0.060059
    10  H   -0.043939  -0.000009  -0.039674   0.003122   0.357186   0.005258
    11  H    0.349695   0.002780   0.003413   0.000542  -0.051637  -0.050008
    12  C   -0.043126  -0.001845  -0.039406  -0.000918   0.286632  -0.006886
    13  H    0.005883  -0.000177   0.006597   0.000134  -0.043838  -0.000204
    14  H   -0.009598  -0.001567   0.002213   0.000758  -0.040946   0.001856
    15  O   -0.000301  -0.041732  -0.061502   0.270559   0.002491   0.003335
    16  H    0.000037   0.006287   0.002697  -0.021220  -0.000182  -0.000254
    17  O   -0.000867   0.000030   0.001544   0.000002  -0.038879   0.000034
    18  H   -0.000598  -0.000002   0.000018   0.000003  -0.003717   0.000014
    19  O    0.004364   0.239943   0.001001  -0.041830   0.000020  -0.045985
    20  H   -0.000093  -0.020953  -0.000055   0.005233   0.000002   0.000240
    21  O   -0.030826  -0.037599   0.000020   0.002349  -0.000492   0.179951
    22  H   -0.003113   0.005813   0.000009  -0.000233  -0.000051  -0.019527
    23  O    0.200827  -0.000313  -0.000874   0.004488  -0.027996  -0.040940
    24  H   -0.027244  -0.000300   0.000308   0.000073  -0.003986   0.006634
    25  O   -0.000010   0.000183  -0.015384   0.010003   0.000217  -0.000001
    26  H    0.000001   0.000021   0.000382   0.000690  -0.000003  -0.000001
    27  H    0.000319   0.000425   0.045274  -0.003952  -0.001146  -0.000008
    28  O   -0.000024   0.006352  -0.000000   0.000171   0.000002  -0.000922
    29  H   -0.000003   0.000330  -0.000000   0.000011   0.000001  -0.000176
    30  H    0.000643  -0.001600  -0.000000   0.000105  -0.000021  -0.003581
               7          8          9         10         11         12
     1  C    0.000951  -0.053590   0.001116  -0.043939   0.349695  -0.043126
     2  C   -0.053113  -0.031250   0.331018  -0.000009   0.002780  -0.001845
     3  O   -0.056089   0.000066   0.000253  -0.039674   0.003413  -0.039406
     4  C    0.367696  -0.001879  -0.034981   0.003122   0.000542  -0.000918
     5  C    0.001672   0.004517   0.000876   0.357186  -0.051637   0.286632
     6  C   -0.003393   0.351503  -0.060059   0.005258  -0.050008  -0.006886
     7  H    0.648773   0.001683   0.008215  -0.000247   0.000015  -0.000088
     8  H    0.001683   0.574409   0.006600  -0.000256   0.000763  -0.000013
     9  H    0.008215   0.006600   0.646035  -0.000024  -0.000303  -0.001777
    10  H   -0.000247  -0.000256  -0.000024   0.661368  -0.002016  -0.059585
    11  H    0.000015   0.000763  -0.000303  -0.002016   0.629673   0.001268
    12  C   -0.000088  -0.000013  -0.001777  -0.059585   0.001268   5.024686
    13  H    0.000053   0.000009   0.000315  -0.004941   0.000284   0.350074
    14  H    0.000025   0.000127   0.006803   0.005714   0.000120   0.373453
    15  O   -0.050611  -0.000080   0.000667  -0.000197   0.000005   0.001657
    16  H   -0.005006   0.000005  -0.000124   0.000006  -0.000000  -0.000067
    17  O    0.000002  -0.000004   0.000074   0.003230   0.011955   0.216795
    18  H   -0.000000  -0.000000   0.000000   0.006141  -0.000139  -0.029133
    19  O    0.002858   0.004353  -0.035187   0.000002  -0.000065   0.000032
    20  H   -0.000313  -0.000108  -0.006000  -0.000000   0.000002   0.000001
    21  O   -0.000053  -0.032205  -0.003784  -0.000119   0.001440   0.000592
    22  H    0.000009  -0.004300   0.000165   0.000006   0.006206   0.000032
    23  O    0.001165   0.006282  -0.000043  -0.005265  -0.034405   0.003589
    24  H   -0.000063  -0.000156   0.000013   0.007642  -0.002382   0.000075
    25  O    0.000712  -0.000000  -0.000000   0.000076   0.000000  -0.000010
    26  H    0.000476   0.000000   0.000000  -0.000004  -0.000000   0.000000
    27  H    0.000032   0.000001  -0.000013  -0.000764  -0.000006   0.000052
    28  O    0.000000   0.000053   0.003525  -0.000000   0.000001   0.000001
    29  H    0.000000   0.000001   0.000724   0.000000  -0.000000  -0.000000
    30  H   -0.000004  -0.000089   0.000346   0.000000  -0.000022  -0.000014
              13         14         15         16         17         18
     1  C    0.005883  -0.009598  -0.000301   0.000037  -0.000867  -0.000598
     2  C   -0.000177  -0.001567  -0.041732   0.006287   0.000030  -0.000002
     3  O    0.006597   0.002213  -0.061502   0.002697   0.001544   0.000018
     4  C    0.000134   0.000758   0.270559  -0.021220   0.000002   0.000003
     5  C   -0.043838  -0.040946   0.002491  -0.000182  -0.038879  -0.003717
     6  C   -0.000204   0.001856   0.003335  -0.000254   0.000034   0.000014
     7  H    0.000053   0.000025  -0.050611  -0.005006   0.000002  -0.000000
     8  H    0.000009   0.000127  -0.000080   0.000005  -0.000004  -0.000000
     9  H    0.000315   0.006803   0.000667  -0.000124   0.000074   0.000000
    10  H   -0.004941   0.005714  -0.000197   0.000006   0.003230   0.006141
    11  H    0.000284   0.000120   0.000005  -0.000000   0.011955  -0.000139
    12  C    0.350074   0.373453   0.001657  -0.000067   0.216795  -0.029133
    13  H    0.606859  -0.035985   0.000277   0.000040  -0.025929  -0.008406
    14  H   -0.035985   0.546880  -0.000264   0.000006  -0.034310   0.006970
    15  O    0.000277  -0.000264   8.307940   0.213208   0.000001  -0.000000
    16  H    0.000040   0.000006   0.213208   0.333994  -0.000000  -0.000000
    17  O   -0.025929  -0.034310   0.000001  -0.000000   8.244473   0.233796
    18  H   -0.008406   0.006970  -0.000000  -0.000000   0.233796   0.402690
    19  O   -0.000002   0.000014   0.001764  -0.000185  -0.000000   0.000000
    20  H    0.000000  -0.000015  -0.000120   0.000023  -0.000000   0.000000
    21  O    0.000079   0.006052  -0.000009   0.000001  -0.000097  -0.000006
    22  H   -0.000006  -0.000166   0.000001  -0.000000  -0.000022   0.000002
    23  O   -0.000066   0.000032   0.000014   0.000001  -0.000008  -0.000009
    24  H   -0.000010   0.000021  -0.000000  -0.000000  -0.000000  -0.000005
    25  O   -0.000034   0.000001  -0.020541   0.059568   0.000000   0.000000
    26  H   -0.000000  -0.000000   0.000884  -0.002872  -0.000000  -0.000000
    27  H    0.000420  -0.000021   0.004274  -0.008257  -0.000000  -0.000001
    28  O    0.000000  -0.000019  -0.000001  -0.000000  -0.000000  -0.000000
    29  H   -0.000000  -0.000004  -0.000000   0.000000  -0.000000  -0.000000
    30  H   -0.000001   0.000070  -0.000003   0.000000   0.000000   0.000000
              19         20         21         22         23         24
     1  C    0.004364  -0.000093  -0.030826  -0.003113   0.200827  -0.027244
     2  C    0.239943  -0.020953  -0.037599   0.005813  -0.000313  -0.000300
     3  O    0.001001  -0.000055   0.000020   0.000009  -0.000874   0.000308
     4  C   -0.041830   0.005233   0.002349  -0.000233   0.004488   0.000073
     5  C    0.000020   0.000002  -0.000492  -0.000051  -0.027996  -0.003986
     6  C   -0.045985   0.000240   0.179951  -0.019527  -0.040940   0.006634
     7  H    0.002858  -0.000313  -0.000053   0.000009   0.001165  -0.000063
     8  H    0.004353  -0.000108  -0.032205  -0.004300   0.006282  -0.000156
     9  H   -0.035187  -0.006000  -0.003784   0.000165  -0.000043   0.000013
    10  H    0.000002  -0.000000  -0.000119   0.000006  -0.005265   0.007642
    11  H   -0.000065   0.000002   0.001440   0.006206  -0.034405  -0.002382
    12  C    0.000032   0.000001   0.000592   0.000032   0.003589   0.000075
    13  H   -0.000002   0.000000   0.000079  -0.000006  -0.000066  -0.000010
    14  H    0.000014  -0.000015   0.006052  -0.000166   0.000032   0.000021
    15  O    0.001764  -0.000120  -0.000009   0.000001   0.000014  -0.000000
    16  H   -0.000185   0.000023   0.000001  -0.000000   0.000001  -0.000000
    17  O   -0.000000  -0.000000  -0.000097  -0.000022  -0.000008  -0.000000
    18  H    0.000000   0.000000  -0.000006   0.000002  -0.000009  -0.000005
    19  O    8.340919   0.211615   0.000824  -0.000273  -0.000039   0.000004
    20  H    0.211615   0.323478   0.000971  -0.000052  -0.000001  -0.000000
    21  O    0.000824   0.000971   8.296400   0.230458   0.001217  -0.000122
    22  H   -0.000273  -0.000052   0.230458   0.378469  -0.000112  -0.000022
    23  O   -0.000039  -0.000001   0.001217  -0.000112   8.297142   0.231389
    24  H    0.000004  -0.000000  -0.000122  -0.000022   0.231389   0.395287
    25  O   -0.000000  -0.000000   0.000000   0.000000   0.000000   0.000000
    26  H   -0.000000   0.000000   0.000000  -0.000000  -0.000000   0.000000
    27  H   -0.000006   0.000000   0.000000  -0.000000  -0.000011  -0.000010
    28  O   -0.024942   0.070241  -0.018772   0.000847   0.000000  -0.000000
    29  H    0.001222  -0.003830   0.000752  -0.000033  -0.000000   0.000000
    30  H    0.004669  -0.008684   0.055744  -0.003009  -0.000005   0.000000
              25         26         27         28         29         30
     1  C   -0.000010   0.000001   0.000319  -0.000024  -0.000003   0.000643
     2  C    0.000183   0.000021   0.000425   0.006352   0.000330  -0.001600
     3  O   -0.015384   0.000382   0.045274  -0.000000  -0.000000  -0.000000
     4  C    0.010003   0.000690  -0.003952   0.000171   0.000011   0.000105
     5  C    0.000217  -0.000003  -0.001146   0.000002   0.000001  -0.000021
     6  C   -0.000001  -0.000001  -0.000008  -0.000922  -0.000176  -0.003581
     7  H    0.000712   0.000476   0.000032   0.000000   0.000000  -0.000004
     8  H   -0.000000   0.000000   0.000001   0.000053   0.000001  -0.000089
     9  H   -0.000000   0.000000  -0.000013   0.003525   0.000724   0.000346
    10  H    0.000076  -0.000004  -0.000764  -0.000000   0.000000   0.000000
    11  H    0.000000  -0.000000  -0.000006   0.000001  -0.000000  -0.000022
    12  C   -0.000010   0.000000   0.000052   0.000001  -0.000000  -0.000014
    13  H   -0.000034  -0.000000   0.000420   0.000000  -0.000000  -0.000001
    14  H    0.000001  -0.000000  -0.000021  -0.000019  -0.000004   0.000070
    15  O   -0.020541   0.000884   0.004274  -0.000001  -0.000000  -0.000003
    16  H    0.059568  -0.002872  -0.008257  -0.000000   0.000000   0.000000
    17  O    0.000000  -0.000000  -0.000000  -0.000000  -0.000000   0.000000
    18  H    0.000000  -0.000000  -0.000001  -0.000000  -0.000000   0.000000
    19  O   -0.000000  -0.000000  -0.000006  -0.024942   0.001222   0.004669
    20  H   -0.000000   0.000000   0.000000   0.070241  -0.003830  -0.008684
    21  O    0.000000   0.000000   0.000000  -0.018772   0.000752   0.055744
    22  H    0.000000  -0.000000  -0.000000   0.000847  -0.000033  -0.003009
    23  O    0.000000  -0.000000  -0.000011   0.000000  -0.000000  -0.000005
    24  H    0.000000   0.000000  -0.000010  -0.000000   0.000000   0.000000
    25  O    8.301316   0.241525   0.218524   0.000000  -0.000000   0.000000
    26  H    0.241525   0.380462  -0.017251  -0.000000   0.000000   0.000000
    27  H    0.218524  -0.017251   0.343293  -0.000000   0.000000  -0.000000
    28  O    0.000000  -0.000000  -0.000000   8.313448   0.242213   0.213338
    29  H   -0.000000   0.000000   0.000000   0.242213   0.378068  -0.016432
    30  H    0.000000   0.000000  -0.000000   0.213338  -0.016432   0.332903
 Mulliken charges:
               1
     1  C    0.121473
     2  C    0.079461
     3  O   -0.543254
     4  C    0.344756
     5  C    0.091902
     6  C    0.094461
     7  H    0.134645
     8  H    0.173558
     9  H    0.135548
    10  H    0.107287
    11  H    0.132820
    12  C   -0.076072
    13  H    0.148573
    14  H    0.171780
    15  O   -0.631715
    16  H    0.422294
    17  O   -0.611819
    18  H    0.392383
    19  O   -0.665092
    20  H    0.428418
    21  O   -0.652769
    22  H    0.408905
    23  O   -0.636057
    24  H    0.392852
    25  O   -0.796148
    26  H    0.395690
    27  H    0.418830
    28  O   -0.805512
    29  H    0.397156
    30  H    0.425644
 Sum of Mulliken charges =  -0.00000
 Mulliken charges with hydrogens summed into heavy atoms:
               1
     1  C    0.254293
     2  C    0.215008
     3  O   -0.543254
     4  C    0.479402
     5  C    0.199189
     6  C    0.268019
    12  C    0.244281
    15  O   -0.209421
    17  O   -0.219436
    19  O   -0.236674
    21  O   -0.243864
    23  O   -0.243205
    25  O    0.018373
    28  O    0.017288
 APT charges:
               1
     1  C   -0.283123
     2  C   -0.223907
     3  O   -0.383480
     4  C   -0.246543
     5  C   -0.384691
     6  C   -0.231548
     7  H    0.409253
     8  H    0.451751
     9  H    0.274819
    10  H    0.461194
    11  H    0.431206
    12  C   -0.476958
    13  H    0.430704
    14  H    0.231832
    15  O   -0.733333
    16  H    0.668799
    17  O   -0.915293
    18  H    0.796850
    19  O   -0.789154
    20  H    0.610580
    21  O   -0.980280
    22  H    0.792626
    23  O   -0.830796
    24  H    0.719486
    25  O   -0.746097
    26  H    0.741824
    27  H    0.110487
    28  O   -0.742828
    29  H    0.655680
    30  H    0.180940
 Sum of APT charges =  -0.00000
 APT charges with hydrogens summed into heavy atoms:
               1
     1  C    0.148083
     2  C    0.050911
     3  O   -0.383480
     4  C    0.162710
     5  C    0.076503
     6  C    0.220203
    12  C    0.185579
    15  O   -0.064533
    17  O   -0.118443
    19  O   -0.178575
    21  O   -0.187654
    23  O   -0.111310
    25  O    0.106214
    28  O    0.093793
 Electronic spatial extent (au):  <R**2>=           3263.2295
 Charge=             -0.0000 electrons
 Dipole moment (field-independent basis, Debye):
    X=             -1.7525    Y=              4.8015    Z=              1.0135  Tot=              5.2108
 Quadrupole moment (field-independent basis, Debye-Ang):
   XX=            -79.2477   YY=            -85.3689   ZZ=            -82.5545
   XY=             -0.6592   XZ=            -10.0422   YZ=              1.9067
 Traceless Quadrupole moment (field-independent basis, Debye-Ang):
   XX=              3.1426   YY=             -2.9785   ZZ=             -0.1642
   XY=             -0.6592   XZ=            -10.0422   YZ=              1.9067
 Octapole moment (field-independent basis, Debye-Ang**2):
  XXX=            -11.0131  YYY=             18.8293  ZZZ=            -13.7787  XYY=            -29.9436
  XXY=             37.0625  XXZ=             14.9285  XZZ=              2.7442  YZZ=             -6.3442
  YYZ=             17.6236  XYZ=             29.9245
 Hexadecapole moment (field-independent basis, Debye-Ang**3):
 XXXX=          -1983.0159 YYYY=          -1323.2790 ZZZZ=           -601.8742 XXXY=             67.9520
 XXXZ=           -147.6133 YYYX=            -24.7185 YYYZ=             17.8282 ZZZX=            -60.7313
 ZZZY=             22.7850 XXYY=           -456.3677 XXZZ=           -305.9298 YYZZ=           -315.4348
 XXYZ=            -24.8386 YYXZ=            -25.9840 ZZXY=            -33.8059
 N-N= 1.099076739048D+03 E-N=-4.170763925905D+03  KE= 8.328878176523D+02
  Exact polarizability:   0.000   0.000   0.000   0.000   0.000   0.000
 Approx polarizability: 129.872  -1.323 133.340  -6.394   1.009 121.289
 Calling FoFJK, ICntrl=    100147 FMM=F ISym2X=0 I1Cent= 0 IOpClX= 0 NMat=1 NMatS=1 NMatT=0.
 ***** Axes restored to original set *****
 -------------------------------------------------------------------
 Center     Atomic                   Forces (Hartrees/Bohr)
 Number     Number              X              Y              Z
 -------------------------------------------------------------------
      1        6           0.000007183    0.000001640    0.000005082
      2        6          -0.000007000   -0.000006876    0.000003575
      3        8          -0.000002562    0.000001171   -0.000000363
      4        6           0.000003430    0.000010257    0.000000577
      5        6           0.000009145   -0.000000313    0.000001559
      6        6           0.000006832   -0.000005157   -0.000000854
      7        1          -0.000003948   -0.000001358    0.000000300
      8        1          -0.000000482   -0.000003368   -0.000003176
      9        1           0.000002418   -0.000000197   -0.000004707
     10        1           0.000001105    0.000003337    0.000003854
     11        1           0.000003199   -0.000003494    0.000002366
     12        6           0.000005257    0.000003705    0.000009167
     13        1          -0.000000114    0.000003052    0.000000515
     14        1          -0.000002542    0.000005236    0.000000738
     15        8          -0.000014374    0.000004884   -0.000006699
     16        1          -0.000003556    0.000001972   -0.000003425
     17        8           0.000008314    0.000008225    0.000008425
     18        1           0.000006730    0.000001997    0.000003488
     19        8          -0.000004169   -0.000002388   -0.000012006
     20        1          -0.000008454   -0.000004364    0.000000104
     21        8           0.000007237   -0.000002851    0.000006022
     22        1          -0.000003147   -0.000012421   -0.000005022
     23        8          -0.000000430    0.000000191    0.000002775
     24        1           0.000010341   -0.000006691    0.000001787
     25        8          -0.000010918    0.000006556   -0.000002000
     26        1          -0.000002059    0.000005489   -0.000001186
     27        1           0.000001674    0.000011749    0.000002314
     28        8          -0.000007558   -0.000008845   -0.000012328
     29        1          -0.000002289   -0.000003637    0.000001436
     30        1           0.000000738   -0.000007501   -0.000002319
 -------------------------------------------------------------------
 Cartesian Forces:  Max     0.000014374 RMS     0.000005542

 GradGradGradGradGradGradGradGradGradGradGradGradGradGradGradGradGradGrad
 Berny optimization.
 Search for a saddle point.
 Step number   1 out of a maximum of  180
 All quantities printed in internal units (Hartrees-Bohrs-Radians)
 Swapping is turned off.
 Second derivative matrix not updated -- analytic derivatives used.
 ITU=  0
     Eigenvalues ---   -0.00054   0.00031   0.00037   0.00071   0.00117
     Eigenvalues ---    0.00141   0.00256   0.00282   0.00366   0.00395
     Eigenvalues ---    0.00424   0.00517   0.00536   0.00646   0.00926
     Eigenvalues ---    0.00983   0.01119   0.01352   0.01579   0.02214
     Eigenvalues ---    0.02332   0.02647   0.02713   0.03107   0.03166
     Eigenvalues ---    0.03292   0.03695   0.03766   0.03976   0.04199
     Eigenvalues ---    0.04775   0.05191   0.05396   0.05774   0.06043
     Eigenvalues ---    0.06935   0.06998   0.07129   0.07629   0.08333
     Eigenvalues ---    0.09148   0.09909   0.10845   0.11682   0.12586
     Eigenvalues ---    0.14250   0.16474   0.17010   0.17055   0.17938
     Eigenvalues ---    0.19460   0.20705   0.20988   0.21950   0.25421
     Eigenvalues ---    0.26254   0.32505   0.40663   0.42354   0.46222
     Eigenvalues ---    0.50258   0.54497   0.59026   0.61882   0.63556
     Eigenvalues ---    0.66887   0.67320   0.71350   0.74444   0.76647
     Eigenvalues ---    0.79473   0.80633   0.81656   0.84974   0.87237
     Eigenvalues ---    0.91328   0.92090   0.94887   0.97991   1.02226
     Eigenvalues ---    1.05542   1.05906   1.09696   1.09910
 Eigenvectors required to have negative eigenvalues:
                          Z16       Z3        Y15       Z15       Y7
   1                    0.30596  -0.30338  -0.27438   0.27252   0.24487
                          Y23       Y13       Y16       Y24       Z7
   1                   -0.21584   0.21063  -0.20029  -0.19489   0.18385
 RFO step:  Lambda0=5.416266936D-12 Lambda= 0.00000000D+00.
 Linear search not attempted -- option 19 set.
 B after Tr=    -0.000002    0.000013   -0.000002
         Rot=    1.000000    0.000000    0.000000    0.000001 Ang=   0.00 deg.
 Variable       Old X    -DE/DX   Delta X   Delta X   Delta X     New X
                                 (Linear)    (Quad)   (Total)
    X1        0.20804   0.00001   0.00000   0.00007   0.00007   0.20811
    Y1        2.66109   0.00000   0.00000   0.00000   0.00001   2.66111
    Z1        1.93646   0.00001   0.00000  -0.00002  -0.00002   1.93644
    X2        1.45052  -0.00001   0.00000   0.00001   0.00000   1.45052
    Y2       -1.71281  -0.00001   0.00000  -0.00002  -0.00001  -1.71282
    Z2        0.05102   0.00000   0.00000   0.00000  -0.00000   0.05102
    X3       -3.02666  -0.00000   0.00000   0.00000  -0.00000  -3.02666
    Y3       -0.14320   0.00000   0.00000   0.00005   0.00007  -0.14314
    Z3        0.27732  -0.00000   0.00000  -0.00000  -0.00001   0.27731
    X4       -1.36552   0.00000   0.00000  -0.00001  -0.00002  -1.36553
    Y4       -2.33702   0.00001   0.00000   0.00006   0.00007  -2.33695
    Z4        0.29894   0.00000   0.00000  -0.00008  -0.00008   0.29885
    X5       -2.00375   0.00001   0.00000   0.00002   0.00002  -2.00373
    Y5        2.33867  -0.00000   0.00000   0.00005   0.00006   2.33873
    Z5        0.09970   0.00000   0.00000   0.00003   0.00003   0.09973
    X6        2.29547   0.00001   0.00000   0.00009   0.00009   2.29556
    Y6        0.67544  -0.00001   0.00000   0.00006   0.00007   0.67552
    Z6        1.49765  -0.00000   0.00000  -0.00017  -0.00017   1.49748
    X7       -1.70474  -0.00000   0.00000  -0.00007  -0.00008  -1.70482
    Y7       -3.24948  -0.00000   0.00000  -0.00004  -0.00003  -3.24950
    Z7        2.13195   0.00000   0.00000  -0.00013  -0.00014   2.13182
    X8        2.96908  -0.00000   0.00000   0.00029   0.00028   2.96936
    Y8        0.07302  -0.00000   0.00000   0.00015   0.00016   0.07318
    Z8        3.36029  -0.00000   0.00000  -0.00022  -0.00022   3.36007
    X9        1.78065   0.00000   0.00000   0.00013   0.00013   1.78078
    Y9       -1.36391  -0.00000   0.00000  -0.00016  -0.00015  -1.36406
    Z9       -1.97202  -0.00000   0.00000  -0.00002  -0.00002  -1.97204
   X10       -3.55304   0.00000   0.00000   0.00004   0.00005  -3.55300
   Y10        3.58156   0.00000   0.00000   0.00004   0.00006   3.58162
   Z10        0.72775   0.00000   0.00000   0.00013   0.00013   0.72788
   X11        1.00284   0.00000   0.00000   0.00001   0.00001   1.00285
   Y11        4.56443  -0.00000   0.00000   0.00004   0.00005   4.56447
   Z11        1.65839   0.00000   0.00000   0.00008   0.00008   1.65846
   X12       -1.37748   0.00001   0.00000  -0.00011  -0.00010  -1.37758
   Y12        3.12657   0.00000   0.00000   0.00012   0.00013   3.12670
   Z12       -2.63526   0.00001   0.00000   0.00004   0.00004  -2.63523
   X13       -2.89436  -0.00000   0.00000  -0.00017  -0.00017  -2.89453
   Y13        2.44408   0.00000   0.00000   0.00015   0.00017   2.44425
   Z13       -3.87759   0.00000   0.00000   0.00009   0.00009  -3.87750
   X14        0.39442  -0.00000   0.00000  -0.00015  -0.00015   0.39428
   Y14        2.28625   0.00001   0.00000   0.00015   0.00016   2.28641
   Z14       -3.27593   0.00000   0.00000  -0.00009  -0.00009  -3.27603
   X15       -1.99394  -0.00001   0.00000  -0.00002  -0.00003  -1.99397
   Y15       -3.89541   0.00000   0.00000   0.00015   0.00017  -3.89524
   Z15       -1.70848  -0.00001   0.00000  -0.00018  -0.00018  -1.70866
   X16       -3.75970  -0.00000   0.00000  -0.00001  -0.00001  -3.75972
   Y16       -4.40794   0.00000   0.00000   0.00009   0.00011  -4.40783
   Z16       -1.45690  -0.00000   0.00000  -0.00019  -0.00019  -1.45710
   X17       -1.02434   0.00001   0.00000  -0.00010  -0.00009  -1.02443
   Y17        5.78927   0.00001   0.00000   0.00013   0.00014   5.78941
   Z17       -2.81700   0.00001   0.00000   0.00008   0.00008  -2.81692
   X18       -2.67355   0.00001   0.00000  -0.00009  -0.00008  -2.67362
   Y18        6.58256   0.00000   0.00000   0.00013   0.00015   6.58271
   Z18       -2.72062   0.00000   0.00000   0.00012   0.00012  -2.72050
   X19        2.78623  -0.00000   0.00000  -0.00011  -0.00012   2.78611
   Y19       -3.86392  -0.00000   0.00000  -0.00002  -0.00001  -3.86393
   Z19        0.87379  -0.00001   0.00000   0.00019   0.00019   0.87398
   X20        4.47045  -0.00001   0.00000  -0.00004  -0.00005   4.47040
   Y20       -3.79497  -0.00000   0.00000  -0.00006  -0.00006  -3.79503
   Z20        0.08965   0.00000   0.00000   0.00037   0.00038   0.09002
   X21        4.35525   0.00001   0.00000  -0.00009  -0.00009   4.35516
   Y21        1.72585  -0.00000   0.00000   0.00006   0.00007   1.72591
   Z21        0.04471   0.00001   0.00000  -0.00041  -0.00041   0.04430
   X22        5.11934  -0.00000   0.00000  -0.00018  -0.00017   5.11917
   Y22        3.07269  -0.00001   0.00000   0.00024   0.00025   3.07294
   Z22        1.02831  -0.00001   0.00000  -0.00063  -0.00063   1.02769
   X23       -0.58565  -0.00000   0.00000   0.00014   0.00014  -0.58551
   Y23        2.30205   0.00000   0.00000  -0.00018  -0.00016   2.30188
   Z23        4.48636   0.00000   0.00000  -0.00003  -0.00003   4.48633
   X24       -2.12647   0.00001   0.00000  -0.00013  -0.00013  -2.12660
   Y24        3.25914  -0.00001   0.00000  -0.00064  -0.00062   3.25851
   Z24        4.75104   0.00000   0.00000  -0.00003  -0.00004   4.75100
   X25       -7.07391  -0.00001   0.00000   0.00003   0.00002  -7.07389
   Y25       -3.51253   0.00001   0.00000  -0.00006  -0.00004  -3.51257
   Z25       -0.32639  -0.00000   0.00000   0.00006   0.00005  -0.32634
   X26       -7.43101  -0.00000   0.00000   0.00020   0.00019  -7.43082
   Y26       -4.09887   0.00001   0.00000  -0.00016  -0.00014  -4.09901
   Z26        1.37196  -0.00000   0.00000   0.00006   0.00005   1.37201
   X27       -6.26709   0.00000   0.00000  -0.00003  -0.00003  -6.26712
   Y27       -1.86739   0.00001   0.00000  -0.00002  -0.00000  -1.86739
   Z27       -0.08513   0.00000   0.00000   0.00009   0.00008  -0.08505
   X28        7.27460  -0.00001   0.00000   0.00008   0.00008   7.27467
   Y28       -2.43461  -0.00001   0.00000  -0.00013  -0.00013  -2.43474
   Z28       -1.44326  -0.00001   0.00000   0.00042   0.00042  -1.44284
   X29        7.12453  -0.00000   0.00000   0.00021   0.00020   7.12474
   Y29       -2.58664  -0.00000   0.00000  -0.00047  -0.00047  -2.58711
   Z29       -3.26229   0.00000   0.00000   0.00044   0.00045  -3.26185
   X30        6.61247   0.00000   0.00000   0.00003   0.00003   6.61250
   Y30       -0.74599  -0.00001   0.00000  -0.00008  -0.00007  -0.74606
   Z30       -1.05628  -0.00000   0.00000   0.00006   0.00007  -1.05622
         Item               Value     Threshold  Converged?
 Maximum Force            0.000014     0.000450     YES
 RMS     Force            0.000006     0.000300     YES
 Maximum Displacement     0.000628     0.001800     YES
 RMS     Displacement     0.000173     0.001200     YES
 Predicted change in Energy=-3.189431D-09
 Optimization completed.
    -- Stationary point found.
 GradGradGradGradGradGradGradGradGradGradGradGradGradGradGradGradGradGrad

                          Input orientation:                          
 ---------------------------------------------------------------------
 Center     Atomic      Atomic             Coordinates (Angstroms)
 Number     Number       Type             X           Y           Z
 ---------------------------------------------------------------------
      1          6           0        0.110090    1.408190    1.024730
      2          6           0        0.767580   -0.906380    0.027000
      3          8           0       -1.601640   -0.075780    0.146750
      4          6           0       -0.722600   -1.236700    0.158190
      5          6           0       -1.060340    1.237570    0.052760
      6          6           0        1.214710    0.357430    0.792520
      7          1           0       -0.902110   -1.719550    1.128180
      8          1           0        1.571170    0.038640    1.778190
      9          1           0        0.942280   -0.721750   -1.043550
     10          1           0       -1.880190    1.895280    0.385110
     11          1           0        0.530680    2.415390    0.877580
     12          6           0       -0.728930    1.654510   -1.394520
     13          1           0       -1.531630    1.293350   -2.051930
     14          1           0        0.208720    1.209830   -1.733550
     15          8           0       -1.055150   -2.061360   -0.904090
     16          1           0       -1.989550   -2.332580   -0.770960
     17          8           0       -0.542060    3.063550   -1.490690
     18          1           0       -1.414780    3.483340   -1.439690
     19          8           0        1.474410   -2.044700    0.462390
     20          1           0        2.365660   -2.008210    0.047440
     21          8           0        2.304700    0.913280    0.023660
     22          1           0        2.709040    1.626000    0.544160
     23          8           0       -0.309910    1.218190    2.374080
     24          1           0       -1.125280    1.724660    2.514140
     25          8           0       -3.743350   -1.858750   -0.172720
     26          1           0       -3.932320   -2.169030    0.726010
     27          1           0       -3.316400   -0.988180   -0.045050
     28          8           0        3.849550   -1.288340   -0.763740
     29          1           0        3.770140   -1.368790   -1.726330
     30          1           0        3.499170   -0.394760   -0.558960
 ---------------------------------------------------------------------
                    Distance matrix (angstroms):
                    1          2          3          4          5
     1  C    0.000000
     2  C    2.604802   0.000000
     3  O    2.429616   2.513452   0.000000
     4  C    2.905117   1.531979   1.456220   0.000000
     5  C    1.530929   2.817530   1.423632   2.499439   0.000000
     6  C    1.542142   1.543749   2.921732   2.587817   2.549067
     7  H    3.289074   2.159099   2.038266   1.098293   3.150575
     8  H    2.139655   2.146040   3.569511   3.084197   3.367401
     9  H    3.083337   1.100312   2.881947   2.116879   3.008541
    10  H    2.146529   3.871463   2.004865   3.346761   1.102358
    11  H    1.101363   3.437116   3.359588   3.927594   2.144512
    12  C    2.572430   3.289136   2.476094   3.281774   1.542171
    13  H    3.489165   3.800938   2.591064   3.455476   2.157532
    14  H    2.767162   2.808951   2.909592   3.229790   2.191389
    15  O    4.137138   2.350160   2.312022   1.385313   3.434899
    16  H    4.650414   3.205082   2.466944   1.915577   3.779936
    17  O    3.081048   4.447346   3.695851   4.609073   2.446437
    18  H    3.564385   5.116983   3.901159   5.031015   2.719654
    19  O    3.755003   1.408881   3.665837   2.360562   4.167259
    20  H    4.208857   1.941213   4.414025   3.185097   4.719385
    21  O    2.462395   2.381997   4.031486   3.715516   3.380755
    22  H    2.651967   3.232595   4.651446   4.485552   3.821070
    23  O    1.425919   3.344184   2.881653   3.332712   2.439682
    24  H    1.960774   4.085481   3.012148   3.805562   2.509953
    25  O    5.191896   4.614692   2.804989   3.101835   4.103240
    26  H    5.406183   4.916499   3.185798   3.390275   4.506269
    27  H    4.316000   4.085435   1.951836   2.613593   3.170700
    28  O    4.945044   3.204638   5.658159   4.664459   5.581569
    29  H    5.354990   3.507614   5.834066   4.873764   5.769906
    30  H    4.152658   2.840192   5.159267   4.364231   4.881376
                    6          7          8          9         10
     6  C    0.000000
     7  H    2.984534   0.000000
     8  H    1.095553   3.103363   0.000000
     9  H    2.147091   3.018906   2.989300   0.000000
    10  H    3.479852   3.817825   4.159287   4.105637   0.000000
    11  H    2.170330   4.383311   2.746390   3.701595   2.515022
    12  C    3.200515   4.216431   4.238819   2.926215   2.133179
    13  H    4.063155   4.425716   5.086402   3.346295   2.534359
    14  H    2.849497   4.243196   3.944651   2.178351   3.053213
    15  O    3.725761   2.066489   4.301416   2.409093   4.242373
    16  H    4.466308   2.272678   4.979917   3.356293   4.384434
    17  O    3.952515   5.464994   4.929645   4.090440   2.583423
    18  H    4.654921   5.824676   5.580019   4.836883   2.463420
    19  O    2.438577   2.489347   2.465968   2.073937   5.175206
    20  H    2.734243   3.453932   2.795766   2.207091   5.777413
    21  O    1.445058   4.293645   2.093188   2.380850   4.313731
    22  H    1.975848   4.957236   2.310258   3.339790   4.599874
    23  O    2.359387   3.245502   2.298888   4.124505   2.623020
    24  H    3.210739   3.719311   3.264219   4.787158   2.265341
    25  O    5.515932   3.127997   5.970784   4.899617   4.227917
    26  H    5.734051   3.089651   6.022399   5.384021   4.565749
    27  H    4.800328   2.782116   5.316663   4.382276   3.249935
    28  O    3.474606   5.132599   3.662417   2.975153   6.654714
    29  H    3.981791   5.486454   4.370125   2.980208   6.858466
    30  H    2.758812   4.896200   3.060603   2.622868   5.922252
                   11         12         13         14         15
    11  H    0.000000
    12  C    2.707027   0.000000
    13  H    3.754214   1.098614   0.000000
    14  H    2.893965   1.091728   1.771203   0.000000
    15  O    5.072524   3.762264   3.577520   3.603617   0.000000
    16  H    5.622496   4.227869   3.872718   4.278743   0.982032
    17  O    2.679475   1.424627   2.104245   2.014678   5.183827
    18  H    3.208593   1.953727   2.276960   2.809084   5.582105
    19  O    4.577708   4.689027   5.147879   4.125056   2.875103
    20  H    4.860506   5.007120   5.522366   4.263812   3.551081
    21  O    2.476421   3.429806   4.378351   2.751156   4.582335
    22  H    2.340846   3.947015   4.983334   3.407750   5.464721
    23  O    2.092700   3.816844   4.592147   4.140250   4.696512
    24  H    2.428506   3.929330   4.604361   4.481905   5.101290
    25  O    6.135042   4.787747   4.284725   5.241300   2.793273
    26  H    6.399863   5.420130   5.046617   5.883395   3.308614
    27  H    5.218770   3.936989   3.523968   4.484278   2.646302
    28  O    5.237026   5.479118   6.105871   4.520733   4.967227
    29  H    5.620896   5.430660   5.941529   4.396936   4.943597
    30  H    4.332727   4.772263   5.512497   3.844663   4.861944
                   16         17         18         19         20
    16  H    0.000000
    17  O    5.633068   0.000000
    18  H    5.882388   0.969776   0.000000
    19  O    3.688231   5.828798   6.521085   0.000000
    20  H    4.443293   6.045116   6.830842   0.983789   0.000000
    21  O    5.441288   3.875688   4.751961   3.103468   2.922223
    22  H    6.283044   4.095951   4.938751   3.873633   3.684036
    23  O    5.031941   4.289020   4.571267   4.181484   4.793911
    24  H    5.291507   4.262797   4.336996   5.017583   5.674997
    25  O    1.912647   6.017835   5.963671   5.259559   6.114803
    26  H    2.458053   6.617214   6.555727   5.414581   6.336472
    27  H    2.023583   5.118921   5.055262   4.932098   5.773632
    28  O    5.931743   6.225242   7.137157   2.777907   1.837976
    29  H    5.917402   6.188395   7.106949   3.243104   2.351102
    30  H    5.824615   5.399960   6.321570   2.804481   2.062956
                   21         22         23         24         25
    21  O    0.000000
    22  H    0.970763   0.000000
    23  O    3.528970   3.553727   0.000000
    24  H    4.315738   4.311910   0.970029   0.000000
    25  O    6.655947   7.368225   5.267092   5.187903   0.000000
    26  H    6.992449   7.651339   5.226016   5.122275   0.969381
    27  H    5.934394   6.594470   4.445137   4.325501   0.977997
    28  O    2.802444   3.391864   5.781844   6.676197   7.637199
    29  H    3.227665   3.905102   6.336611   7.177476   7.688062
    30  H    1.864718   2.434060   5.070840   5.943183   7.399091
                   26         27         28         29         30
    26  H    0.000000
    27  H    1.538927   0.000000
    28  O    7.971980   7.208152   0.000000
    29  H    8.122946   7.293190   0.969205   0.000000
    30  H    7.747659   6.860630   0.981421   1.544316   0.000000
 Stoichiometry    C6H16O8
 Framework group  C1[X(C6H16O8)]
 Deg. of freedom    84
 Full point group                 C1      NOp   1
 Largest Abelian subgroup         C1      NOp   1
 Largest concise Abelian subgroup C1      NOp   1
                         Standard orientation:                         
 ---------------------------------------------------------------------
 Center     Atomic      Atomic             Coordinates (Angstroms)
 Number     Number       Type             X           Y           Z
 ---------------------------------------------------------------------
      1          6           0        0.110089    1.408189    1.024730
      2          6           0        0.767580   -0.906380    0.027000
      3          8           0       -1.601640   -0.075782    0.146750
      4          6           0       -0.722600   -1.236701    0.158190
      5          6           0       -1.060341    1.237569    0.052760
      6          6           0        1.214709    0.357430    0.792520
      7          1           0       -0.902109   -1.719551    1.128180
      8          1           0        1.571169    0.038640    1.778190
      9          1           0        0.942280   -0.721750   -1.043550
     10          1           0       -1.880192    1.895278    0.385110
     11          1           0        0.530678    2.415390    0.877580
     12          6           0       -0.728932    1.654509   -1.394520
     13          1           0       -1.531631    1.293348   -2.051930
     14          1           0        0.208719    1.209829   -1.733550
     15          8           0       -1.055149   -2.061361   -0.904090
     16          1           0       -1.989549   -2.332582   -0.770960
     17          8           0       -0.542063    3.063549   -1.490690
     18          1           0       -1.414783    3.483338   -1.439690
     19          8           0        1.474411   -2.044700    0.462390
     20          1           0        2.365661   -2.008209    0.047440
     21          8           0        2.304699    0.913281    0.023660
     22          1           0        2.709038    1.626001    0.544160
     23          8           0       -0.309911    1.218189    2.374080
     24          1           0       -1.125282    1.724659    2.514140
     25          8           0       -3.743349   -1.858753   -0.172720
     26          1           0       -3.932319   -2.169033    0.726010
     27          1           0       -3.316400   -0.988183   -0.045050
     28          8           0        3.849550   -1.288338   -0.763740
     29          1           0        3.770140   -1.368788   -1.726330
     30          1           0        3.499170   -0.394758   -0.558960
 ---------------------------------------------------------------------
 Rotational constants (GHZ):      0.6453242      0.5032334      0.3767979
 1\1\GINC-N249\FTS\RB3LYP\6-31G(d)\C6H16O8\ROOT\31-Jan-2017\0\\# opt=(c
 alcfc,ts,noeigentest,maxcycle=1000,cartesian) b3lyp 6-31g(d) freq\\./3
 /glo_1w_beta_boat3_b3lyp_631Gd_iopt.out\\0,1\C,0.11009,1.40819,1.02473
 \C,0.76758,-0.90638,0.027\O,-1.60164,-0.07578,0.14675\C,-0.7226,-1.236
 7,0.15819\C,-1.06034,1.23757,0.05276\C,1.21471,0.35743,0.79252\H,-0.90
 211,-1.71955,1.12818\H,1.57117,0.03864,1.77819\H,0.94228,-0.72175,-1.0
 4355\H,-1.88019,1.89528,0.38511\H,0.53068,2.41539,0.87758\C,-0.72893,1
 .65451,-1.39452\H,-1.53163,1.29335,-2.05193\H,0.20872,1.20983,-1.73355
 \O,-1.05515,-2.06136,-0.90409\H,-1.98955,-2.33258,-0.77096\O,-0.54206,
 3.06355,-1.49069\H,-1.41478,3.48334,-1.43969\O,1.47441,-2.0447,0.46239
 \H,2.36566,-2.00821,0.04744\O,2.3047,0.91328,0.02366\H,2.70904,1.626,0
 .54416\O,-0.30991,1.21819,2.37408\H,-1.12528,1.72466,2.51414\O,-3.7433
 5,-1.85875,-0.17272\H,-3.93232,-2.16903,0.72601\H,-3.3164,-0.98818,-0.
 04505\O,3.84955,-1.28834,-0.76374\H,3.77014,-1.36879,-1.72633\H,3.4991
 7,-0.39476,-0.55896\\Version=ES64L-G09RevE.01\State=1-A\HF=-839.980409
 \RMSD=3.704e-09\RMSF=5.542e-06\Dipole=-0.6894663,1.8890406,0.3987353\P
 olar=0.,0.,0.,0.,0.,0.\Quadrupole=2.3364804,-2.2144382,-0.1220422,-0.4
 901097,-7.4660977,1.4176057\PG=C01 [X(C6H16O8)]\\@


 ON A TOMBSTONE, "HERE LIES LESTER MOORE,
 FOUR SLUGS FROM A 44, NO LES, NO MORE".
 Job cpu time:       0 days  0 hours 36 minutes 25.2 seconds.
 File lengths (MBytes):  RWF=    220 Int=      0 D2E=      0 Chk=      6 Scr=      1
 Normal termination of Gaussian 09 at Tue Jan 31 06:53:16 2017.
 Link1:  Proceeding to internal job step number  2.
 --------------------------------------------------------------------
 #N Geom=AllCheck Guess=TCheck SCRF=Check GenChk RB3LYP/6-31G(d) Freq
 --------------------------------------------------------------------
 1/5=1,6=1000,10=4,11=1,29=7,30=1,38=1,40=1/1,3;
 2/12=2,40=1/2;
 3/5=1,6=6,7=1,11=2,14=-4,16=1,25=1,30=1,70=2,71=2,74=-5,116=1,140=1/1,2,3;
 4/5=101/1;
 5/5=2,38=6,98=1/2;
 8/6=4,10=90,11=11/1;
 11/6=1,8=1,9=11,15=111,16=1/1,2,10;
 10/6=1/2;
 6/7=2,8=2,9=2,10=2,18=1,28=1/1;
 7/8=1,10=1,25=1/1,2,3,16;
 1/5=1,6=1000,10=4,11=1,30=1/3;
 99//99;
 Structure from the checkpoint file:  "/scratch/10501387.yak.local/Gau-32220.chk"
 ------------------------------------------
 ./3/glo_1w_beta_boat3_b3lyp_631Gd_iopt.out
 ------------------------------------------
 Charge =  0 Multiplicity = 1
 No Z-Matrix found in file; cartesian coordinates used.
  C                                                 0.110090000000      1.408190000000      1.024730000000
  C                                                 0.767580000000     -0.906380000000      0.027000000000
  O                                                -1.601640000000     -0.075780000000      0.146750000000
  C                                                -0.722600000000     -1.236700000000      0.158190000000
  C                                                -1.060340000000      1.237570000000      0.052760000000
  C                                                 1.214710000000      0.357430000000      0.792520000000
  H                                                -0.902110000000     -1.719550000000      1.128180000000
  H                                                 1.571170000000      0.038640000000      1.778190000000
  H                                                 0.942280000000     -0.721750000000     -1.043550000000
  H                                                -1.880190000000      1.895280000000      0.385110000000
  H                                                 0.530680000000      2.415390000000      0.877580000000
  C                                                -0.728930000000      1.654510000000     -1.394520000000
  H                                                -1.531630000000      1.293350000000     -2.051930000000
  H                                                 0.208720000000      1.209830000000     -1.733550000000
  O                                                -1.055150000000     -2.061360000000     -0.904090000000
  H                                                -1.989550000000     -2.332580000000     -0.770960000000
  O                                                -0.542060000000      3.063550000000     -1.490690000000
  H                                                -1.414780000000      3.483340000000     -1.439690000000
  O                                                 1.474410000000     -2.044700000000      0.462390000000
  H                                                 2.365660000000     -2.008210000000      0.047440000000
  O                                                 2.304700000000      0.913280000000      0.023660000000
  H                                                 2.709040000000      1.626000000000      0.544160000000
  O                                                -0.309910000000      1.218190000000      2.374080000000
  H                                                -1.125280000000      1.724660000000      2.514140000000
  O                                                -3.743350000000     -1.858750000000     -0.172720000000
  H                                                -3.932320000000     -2.169030000000      0.726010000000
  H                                                -3.316400000000     -0.988180000000     -0.045050000000
  O                                                 3.849550000000     -1.288340000000     -0.763740000000
  H                                                 3.770140000000     -1.368790000000     -1.726330000000
  H                                                 3.499170000000     -0.394760000000     -0.558960000000
 Recover connectivity data from disk.

 GradGradGradGradGradGradGradGradGradGradGradGradGradGradGradGradGradGrad
 Berny optimization.
 Initialization pass.
 Trust Radius=3.00D-01 FncErr=1.00D-07 GrdErr=1.00D-07
 Number of steps in this run=      2 maximum allowed number of steps=      2.
 Search for a saddle point of order  1.
 GradGradGradGradGradGradGradGradGradGradGradGradGradGradGradGradGradGrad

                          Input orientation:                          
 ---------------------------------------------------------------------
 Center     Atomic      Atomic             Coordinates (Angstroms)
 Number     Number       Type             X           Y           Z
 ---------------------------------------------------------------------
      1          6           0        0.110090    1.408190    1.024730
      2          6           0        0.767580   -0.906380    0.027000
      3          8           0       -1.601640   -0.075780    0.146750
      4          6           0       -0.722600   -1.236700    0.158190
      5          6           0       -1.060340    1.237570    0.052760
      6          6           0        1.214710    0.357430    0.792520
      7          1           0       -0.902110   -1.719550    1.128180
      8          1           0        1.571170    0.038640    1.778190
      9          1           0        0.942280   -0.721750   -1.043550
     10          1           0       -1.880190    1.895280    0.385110
     11          1           0        0.530680    2.415390    0.877580
     12          6           0       -0.728930    1.654510   -1.394520
     13          1           0       -1.531630    1.293350   -2.051930
     14          1           0        0.208720    1.209830   -1.733550
     15          8           0       -1.055150   -2.061360   -0.904090
     16          1           0       -1.989550   -2.332580   -0.770960
     17          8           0       -0.542060    3.063550   -1.490690
     18          1           0       -1.414780    3.483340   -1.439690
     19          8           0        1.474410   -2.044700    0.462390
     20          1           0        2.365660   -2.008210    0.047440
     21          8           0        2.304700    0.913280    0.023660
     22          1           0        2.709040    1.626000    0.544160
     23          8           0       -0.309910    1.218190    2.374080
     24          1           0       -1.125280    1.724660    2.514140
     25          8           0       -3.743350   -1.858750   -0.172720
     26          1           0       -3.932320   -2.169030    0.726010
     27          1           0       -3.316400   -0.988180   -0.045050
     28          8           0        3.849550   -1.288340   -0.763740
     29          1           0        3.770140   -1.368790   -1.726330
     30          1           0        3.499170   -0.394760   -0.558960
 ---------------------------------------------------------------------
                    Distance matrix (angstroms):
                    1          2          3          4          5
     1  C    0.000000
     2  C    2.604802   0.000000
     3  O    2.429616   2.513452   0.000000
     4  C    2.905117   1.531979   1.456220   0.000000
     5  C    1.530929   2.817530   1.423632   2.499439   0.000000
     6  C    1.542142   1.543749   2.921732   2.587817   2.549067
     7  H    3.289074   2.159099   2.038266   1.098293   3.150575
     8  H    2.139655   2.146040   3.569511   3.084197   3.367401
     9  H    3.083337   1.100312   2.881947   2.116879   3.008541
    10  H    2.146529   3.871463   2.004865   3.346761   1.102358
    11  H    1.101363   3.437116   3.359588   3.927594   2.144512
    12  C    2.572430   3.289136   2.476094   3.281774   1.542171
    13  H    3.489165   3.800938   2.591064   3.455476   2.157532
    14  H    2.767162   2.808951   2.909592   3.229790   2.191389
[...]
 9084,-0.00007946,0.00019593,-0.00000956,-0.00004734,0.00009405,-0.0001
 8847,0.00026809,0.00030730,0.00004258,-0.00009502,-0.00010217,-0.00013
 355,-0.00057916,-0.00021838,0.00005394,0.00011602,0.00012874,-0.000272
 82,-0.00015649,-0.00005909,0.00007402,0.00006988,-0.00002281,-0.000020
 70,-0.00020304,-0.00070098,-0.00009384,-0.00002404,0.00006323,0.223845
 23,-0.14319323,-0.03350550,-0.21715946,0.14042386,0.03851972,-0.024197
 43,-0.01183286,0.00059295,-0.00008650,0.00048503,-0.00080827,0.0017896
 2,0.00025304,0.00104827,-0.00166435,-0.00010967,0.00202853,-0.00344820
 ,0.00077247,0.00069158,0.00284379,-0.00622188,-0.00015344,0.00013085,-
 0.00007603,0.00037880,0.00005030,0.00009939,0.00000789,0.00006724,-0.0
 0000697,-0.00224306,0.00109163,-0.00081061,-0.00000730,0.00052329,0.00
 059678,0.00014970,0.00152619,-0.00007863,-0.00005190,-0.00010172,0.000
 40406,-0.00016296,-0.00011158,0.00049384,-0.00008578,0.00067603,0.0003
 0801,-0.00012426,-0.00019014,0.00000343,-0.00016481,-0.00043245,0.0002
 7208,-0.00002779,0.00021029,-0.00028812,-0.00036237,-0.00004752,-0.000
 06379,0.00014749,0.00003774,-0.00006136,0.00194438,-0.00116658,-0.0006
 8426,-0.00010231,-0.00008880,-0.00005951,0.02742770,-0.00388194,-0.046
 63245,-0.06841141,0.02650735,0.06315349,-0.00034167,-0.00073436,0.0008
 9652,0.00081414,-0.00082277,0.00005283,-0.00344364,-0.01088700,-0.0001
 4200,0.00195877,0.00594854,0.00473919,-0.00081332,0.00470455,-0.000632
 77,0.00026323,0.00077937,0.00007374,0.00017429,-0.00044958,0.00000288,
 -0.00011570,-0.00010142,-0.00007895,-0.00003509,0.00007032,-0.00011130
 ,0.00020474,-0.00078798,-0.00014385,-0.00035195,-0.00021778,-0.0003692
 5,-0.00024024,0.00017799,-0.00082901,0.00002847,0.00008140,0.00004533,
 0.00009042,0.00007208,-0.00002441,-0.01569054,-0.00252603,0.00331335,0
 .00050166,-0.00193247,-0.00643058,-0.00004813,-0.00102340,0.00068699,-
 0.00011263,0.00013211,-0.00018912,-0.00123017,0.00016219,-0.00021935,0
 .00067810,0.00001060,-0.00024647,-0.00071097,-0.00054021,0.00006453,0.
 00007770,-0.00002606,0.00001245,0.00001844,-0.00029630,-0.00067743,-0.
 00004559,0.00009142,0.00032319,0.14106001,0.00000490,-0.00072943,0.000
 55066,0.00026929,0.00059245,0.00009130,-0.00833339,-0.00279793,0.00006
 198,0.00092493,-0.00787783,-0.00231511,-0.00112024,0.00292115,-0.00047
 291,0.00057359,-0.00021621,-0.00006661,-0.00035083,0.00036226,-0.00018
 489,-0.00006683,0.00006982,0.00001443,-0.00001643,-0.00001688,0.000030
 97,0.00009690,0.00016884,0.00001998,-0.00031545,-0.00005151,-0.0002243
 4,0.00016434,0.00006163,-0.00040187,0.00003424,-0.00000729,-0.00011619
 ,-0.00011281,-0.00003694,0.00006931,0.00294296,0.00599199,0.00010998,-
 0.00132440,-0.00730073,0.00413376,-0.00018439,-0.00045727,0.00030282,0
 .00002487,0.00014681,-0.00006592,-0.00050094,0.00062123,0.00012820,-0.
 00002802,-0.00003515,-0.00013565,-0.00030436,0.00021290,0.00011008,0.0
 0014281,-0.00002435,0.00000572,-0.00020465,-0.00000022,-0.00032692,0.0
 0010100,0.00016055,0.00021561,0.22598357,0.46493389,0.00011769,-0.0000
 1042,-0.00023788,0.00006768,0.00031190,0.00064547,-0.00052801,-0.00052
 290,0.00315811,0.00034499,-0.00187308,-0.00476417,-0.00033746,0.000553
 42,0.00034408,0.00023802,-0.00009376,-0.00004816,0.00027465,-0.0001264
 6,0.00128936,0.00003587,0.00003280,0.00004110,-0.00030063,-0.00008222,
 0.00008199,0.00002971,0.00007961,-0.00005028,-0.00004504,-0.00001708,0
 .00001598,-0.00030673,-0.00035054,-0.00044154,0.00011284,-0.00001941,0
 .00013848,-0.00001405,0.00000914,0.00004158,0.00752903,0.00030078,0.00
 333380,-0.00385175,0.00169020,-0.00438311,0.00005898,0.00008649,0.0002
 8357,-0.00002493,-0.00003228,-0.00008904,0.00001646,0.00007645,0.00015
 659,-0.00002584,-0.00002107,-0.00005130,-0.00003781,0.00003777,0.00010
 297,0.00002370,0.00001673,-0.00002185,-0.00023323,-0.00017707,0.000260
 20,0.00010139,0.00018906,-0.00003452,-0.06082169,-0.07384917,0.5038939
 0,-0.00001142,-0.00005112,-0.00000706,-0.00029710,0.00010948,-0.000409
 12,-0.00020501,0.00058535,-0.00076144,-0.00042720,-0.00097281,0.001918
 27,-0.00018224,-0.00077579,-0.00019050,-0.00012784,-0.00016195,-0.0000
 1417,-0.00037683,0.00019043,-0.00081760,0.00000295,0.00000451,-0.00000
 212,0.00019019,0.00003663,-0.00004179,-0.00002614,0.00013851,0.0000298
 8,0.00004371,0.00005404,0.00002388,0.00005881,-0.00003287,0.00017821,-
 0.00001955,-0.00001105,-0.00000822,-0.00000610,-0.00001164,0.00000864,
 -0.00174663,0.00099397,-0.00099891,0.00111063,-0.00198178,0.00286542,0
 .00001587,0.00024415,-0.00016876,0.00002107,-0.00004007,0.00004425,0.0
 0025842,-0.00002146,-0.00001650,-0.00017513,0.00000788,0.00006921,0.00
 017898,0.00013853,-0.00004263,-0.00001965,-0.00000433,0.00000563,0.000
 11634,0.00019432,0.00006744,-0.00001883,-0.00010377,-0.00007341,-0.026
 99414,-0.04334045,0.06871510,0.03220541,-0.00008688,-0.00008200,0.0000
 7328,-0.00014341,0.00020691,0.00001933,-0.00002876,-0.00017055,-0.0008
 9854,-0.00022075,0.00040038,-0.00012499,-0.00016200,-0.00024030,-0.000
 08091,-0.00007867,-0.00002846,0.00001912,-0.00003196,0.00014580,0.0000
 7159,0.00001533,0.00000927,0.00000658,0.00000053,-0.00001903,0.0000111
 4,0.00001907,-0.00006101,0.00001224,0.00003391,0.00002149,-0.00000984,
 0.00002503,-0.00001906,0.00010773,-0.00000921,-0.00000279,-0.00000155,
 0.00001235,0.00000295,-0.00002543,0.00175338,-0.00042752,0.00026011,-0
 .00275420,0.00162020,-0.00114727,0.00002830,0.00010835,-0.00009756,-0.
 00000605,-0.00003111,0.00003785,0.00015105,-0.00019639,0.00001728,-0.0
 0004844,0.00002696,0.00003608,0.00015246,0.00000170,-0.00003870,-0.000
 03427,0.00000818,-0.00000491,0.00017996,0.00011652,-0.00002005,-0.0000
 9590,-0.00014517,-0.00004250,-0.04174229,-0.08622801,0.10195107,0.0504
 6514,0.09753709,-0.00006634,-0.00005245,0.00014221,0.00006004,0.000038
 56,0.00005727,-0.00068318,-0.00035389,-0.00025231,0.00038762,-0.000033
 77,0.00043465,-0.00004959,0.00019763,-0.00000852,0.00000067,0.00000182
 ,0.00001425,0.00000585,0.00006771,0.00002721,-0.00001538,0.00000226,-0
 .00000512,-0.00001218,-0.00000304,-0.00001387,0.00001760,-0.00002217,0
 .00000517,-0.00001174,-0.00000413,-0.00003522,-0.00000434,-0.00000648,
 -0.00003558,0.00000190,-0.00000120,-0.00001558,-0.00000144,0.00000135,
 0.00000012,-0.00077623,-0.00039980,0.00025868,0.00079169,0.00047389,-0
 .00160546,-0.00000917,-0.00003485,0.00001701,0.00000130,0.00000799,0.0
 0000074,-0.00004528,-0.00001459,-0.00003800,0.00001299,0.00000740,0.00
 000054,-0.00000139,-0.00001036,-0.00002187,-0.00000051,-0.00000394,0.0
 0000444,0.00007399,0.00005352,-0.00012840,-0.00002680,-0.00005855,0.00
 004642,0.09691830,0.15687160,-0.43966134,-0.09193790,-0.14715403,0.438
 49236,0.00039946,0.00148102,-0.00115635,-0.00065229,-0.00043210,-0.000
 15257,-0.00092937,0.00372607,-0.00029112,-0.00587860,0.00664450,-0.000
 26611,0.00175204,-0.00725552,0.00073080,-0.00081689,-0.00025203,-0.000
 06160,0.00014472,-0.00038428,0.00004356,0.00012285,-0.00002268,0.00002
 187,0.00010524,0.00000927,-0.00003442,-0.00027416,0.00078277,0.0001879
 0,0.00060387,0.00022229,0.00054684,0.00014043,0.00013126,0.00118104,-0
 .00006245,-0.00011423,0.00002669,0.00000569,-0.00003729,-0.00004776,-0
 .00072890,-0.00288907,-0.00066626,0.00124373,0.00635849,0.00132727,0.0
 0016517,0.00117208,-0.00089416,0.00013308,-0.00016133,0.00020011,0.001
 27969,-0.00061520,-0.00005571,-0.00035962,-0.00001638,0.00028753,0.000
 64651,0.00016946,-0.00013606,-0.00016447,0.00003308,-0.00000372,0.0000
 7528,0.00016529,0.00078272,0.00004448,-0.00011852,-0.00039697,-0.09552
 661,-0.17510813,-0.01113200,-0.00362153,-0.00738658,-0.00462556,0.1020
 7620,0.00002403,0.00050130,-0.00059147,-0.00017870,-0.00124236,0.00032
 677,0.00325338,-0.00584944,0.00023955,0.00223471,0.01020160,0.00219088
 ,-0.00024883,-0.00323659,0.00024745,-0.00057892,0.00018933,0.00009558,
 0.00035778,-0.00082816,0.00045390,0.00007676,-0.00007628,-0.00001871,-
 0.00004809,0.00003746,-0.00003266,-0.00011284,-0.00017125,-0.00006999,
 0.00026970,0.00005108,0.00019757,-0.00018235,-0.00011062,0.00035822,-0
 .00004539,-0.00000292,0.00022363,0.00013920,0.00006211,-0.00006211,-0.
 00435985,-0.00224200,-0.00109086,0.00619906,-0.00361765,-0.00348872,0.
 00019686,0.00048156,-0.00031810,-0.00002091,-0.00016414,0.00008549,0.0
 0073033,-0.00051865,-0.00019522,0.00002616,-0.00002569,0.00018271,0.00
 025822,-0.00019066,-0.00010736,-0.00013158,0.00001951,-0.00000414,0.00
 015564,-0.00002870,0.00040217,-0.00007594,-0.00010201,-0.00026074,-0.1
 7603189,-0.37041188,-0.02814820,-0.00568001,-0.01257200,-0.00957121,0.
 17379883,0.38979273,-0.00018474,-0.00020734,0.00028863,0.00002423,-0.0
 0014891,-0.00009112,-0.00089578,0.00073959,-0.00317979,0.00059827,0.00
 073388,0.00261498,0.00047287,-0.00061820,-0.00076945,-0.00007438,-0.00
 003062,0.00001235,-0.00024100,0.00023269,-0.00056635,-0.00003050,0.000
 00304,-0.00002130,0.00013390,0.00002856,-0.00007374,-0.00009393,-0.000
 03349,0.00012163,-0.00000187,0.00002157,-0.00005104,0.00059087,0.00060
 739,0.00070160,-0.00014243,0.00006630,-0.00030854,-0.00003615,-0.00004
 363,-0.00006528,-0.00103889,0.00055692,-0.00173065,0.00085273,-0.00328
 464,0.00136822,-0.00013317,-0.00013831,-0.00039666,0.00004330,0.000066
 89,0.00011148,0.00004280,-0.00001533,-0.00011237,-0.00000965,0.0000039
 2,0.00005160,0.00004894,0.00003703,-0.00008883,-0.00000351,-0.00000922
 ,0.00001512,0.00027048,0.00023400,-0.00027268,-0.00013368,-0.00023522,
 0.00001188,-0.03624074,-0.08453376,-0.06400495,0.02157780,0.04701372,0
 .00231928,0.01458892,0.03894519,0.06411768,0.00048247,-0.00013590,-0.0
 0029364,0.00247811,-0.00589664,0.00091464,-0.00141743,0.00112411,-0.00
 022608,0.00176535,-0.00012812,0.00077115,0.00003919,-0.00085847,0.0001
 3660,0.00033029,0.00020004,-0.00085577,-0.00030426,0.00002556,-0.00016
 311,-0.00007840,-0.00007891,0.00008930,0.00069607,0.00005928,0.0005259
 5,-0.00018324,0.00021145,0.00000024,-0.00005785,0.00018158,0.00011133,
 0.00028631,-0.00051634,0.00021728,-0.00007681,0.00004072,-0.00002925,-
 0.00008306,-0.00011256,0.00023505,-0.00112684,-0.00031358,-0.00053389,
 0.00058322,0.00012785,0.00002945,-0.00006283,0.00073852,-0.00037913,0.
 00000884,-0.00010645,0.00014378,-0.01434130,-0.00096495,0.00933426,-0.
 00332119,0.00398438,-0.00696860,0.00122557,0.00643343,0.00297098,-0.00
 259882,0.00103824,0.00069611,-0.00032475,0.00033055,0.00055222,-0.0000
 7289,-0.00004894,-0.00012122,-0.00080625,-0.00007213,0.00000925,0.0002
 1141,0.00007847,-0.00001541,0.00053408,0.00007943,0.00002020,0.0971884
 6,0.00055654,0.00092771,-0.00020474,0.00173325,-0.00506842,0.00169798,
 -0.00044257,0.00127810,0.00003746,0.00010820,-0.00042270,-0.00051467,-
 0.00044423,-0.00094378,-0.00026086,-0.00404585,-0.00410533,0.00235212,
 0.00018174,0.00011264,-0.00007830,0.00043812,0.00017861,-0.00051779,0.
 00003464,0.00014659,-0.00070940,0.00017546,0.00009979,0.00003454,-0.00
 012896,0.00047039,-0.00001413,-0.00016191,0.00008267,0.00003989,0.0001
 3267,-0.00004415,0.00006562,-0.00011873,-0.00012703,-0.00016069,-0.000
 04643,0.00067245,0.00024652,0.00013683,-0.00010981,0.00005531,0.000132
 50,0.00011705,0.00007199,0.00001488,0.00003203,-0.00004569,-0.00799862
 ,0.00529214,0.00434790,0.00243815,-0.00633438,-0.00627772,0.00940906,-
 0.00535029,-0.00687518,0.00167149,-0.00005314,-0.00010489,0.00089440,-
 0.00005457,-0.00043567,0.00000555,-0.00012103,-0.00013196,-0.00005340,
 0.00015418,0.00002337,0.00002187,-0.00004940,-0.00000994,-0.00006484,-
 0.00010714,-0.00000176,-0.15920889,0.43890588,-0.00015879,0.00011373,0
 .00003559,-0.00147225,0.00322547,-0.00275829,0.00068906,-0.00021471,0.
 00024484,-0.00060078,-0.00055696,0.00007298,-0.00008010,0.00019214,-0.
 00024229,-0.00144178,-0.00065792,0.00084063,-0.00019732,-0.00006180,0.
 00010772,-0.00006086,0.00023364,0.00025673,0.00046462,-0.00073432,0.00
 091554,0.00010222,-0.00005279,0.00006810,0.00002824,-0.00000687,-0.000
 05592,0.00007199,0.00007652,-0.00017645,0.00004453,-0.00001489,0.00005
 090,-0.00001099,-0.00002389,-0.00013204,0.00046184,0.00026666,0.000439
 98,-0.00014526,-0.00004441,-0.00000325,-0.00000508,-0.00016568,0.00025
 678,-0.00001111,0.00004395,-0.00007971,0.01122920,0.00202340,-0.000712
 41,-0.00359084,-0.00386673,-0.00508697,0.00486841,-0.00539507,0.000919
 38,0.00011104,0.00052382,0.00000941,0.00030949,-0.00012211,-0.00010886
 ,0.00001673,-0.00002116,-0.00001551,0.00022385,0.00005604,0.00003795,-
 0.00006715,-0.00002744,-0.00000364,-0.00018647,-0.00006187,-0.00003447
 ,0.01017212,0.10764635,0.56867740,-0.00011397,0.00005823,0.00009912,0.
 00006599,-0.00017738,0.00135725,0.00018464,-0.00026681,-0.00003309,-0.
 00038963,0.00029485,-0.00020653,0.00000141,0.00016790,0.00003414,0.000
 24040,0.00031279,-0.00007134,0.00018386,0.00003741,-0.00003519,-0.0000
 3276,-0.00009332,-0.00008924,-0.00058531,0.00041177,-0.00047492,0.0000
 4021,-0.00005225,-0.00002950,0.00000820,-0.00005835,-0.00001987,-0.000
 15863,0.00021966,-0.00000894,0.00001038,-0.00001269,-0.00000534,0.0000
 3709,0.00005644,-0.00003058,0.00025106,0.00000771,-0.00005317,-0.00016
 972,-0.00003348,-0.00001488,0.00003041,-0.00024420,0.00005058,0.000000
 96,0.00002637,-0.00003147,-0.00196696,-0.00104942,-0.00080392,0.002153
 72,0.00143567,0.00334484,-0.00097720,0.00046225,-0.00008680,0.00022226
 ,0.00001041,-0.00020619,0.00002335,-0.00007213,-0.00014306,0.00001664,
 0.00002042,0.00005010,0.00022841,0.00000333,-0.00002328,-0.00005505,-0
 .00001995,0.00000588,-0.00013062,-0.00000301,0.00000889,-0.01237810,0.
 00656600,-0.05532850,0.01225163,0.00004952,-0.00004703,-0.00010191,-0.
 00022513,0.00012894,-0.00016346,-0.00010000,-0.00020912,-0.00001755,0.
 00013550,0.00036999,0.00025994,0.00006136,0.00011866,-0.00002005,0.000
 24609,0.00012805,-0.00004445,-0.00003718,-0.00002989,-0.00001137,-0.00
 007083,-0.00003008,0.00003900,0.00000994,0.00014422,0.00016140,-0.0000
 2840,-0.00000664,0.00001950,-0.00000763,-0.00001721,-0.00000253,0.0001
 3690,-0.00004587,-0.00002027,-0.00004482,0.00001052,-0.00000166,0.0000
 2479,0.00002484,0.00000885,-0.00006188,-0.00026409,-0.00018418,0.00000
 266,0.00005405,-0.00000275,-0.00005583,0.00001123,0.00000998,-0.000005
 97,-0.00000769,0.00001286,-0.00163876,-0.00088781,-0.00029973,0.002974
 93,0.00176621,0.00192364,0.00112390,-0.00137465,0.00068491,-0.00008280
 ,0.00009996,-0.00000322,-0.00006756,-0.00000924,0.00009489,0.00000603,
 0.00001582,-0.00001631,-0.00003941,-0.00006133,-0.00001271,0.00001016,
 0.00002215,0.00000344,0.00006172,0.00004540,0.00000296,0.01338213,-0.0
 4676750,-0.00707818,-0.01005718,0.04852404,0.00006639,-0.00005515,-0.0
 0002837,0.00022252,-0.00028425,-0.00020070,-0.00015223,0.00010893,-0.0
 0004409,0.00030845,-0.00003850,0.00022802,0.00002890,-0.00009623,0.000
 03876,0.00019186,0.00014924,-0.00019760,-0.00007839,-0.00001774,-0.000
 01243,-0.00002821,-0.00000061,0.00005085,0.00022597,-0.00008489,0.0002
 0706,-0.00002817,0.00002396,-0.00000758,-0.00000925,0.00001378,0.00002
 045,0.00003366,-0.00005425,0.00003895,-0.00002731,0.00000665,-0.000007
 51,0.00000444,-0.00001025,0.00006021,-0.00015341,-0.00004604,-0.000114
 34,0.00007071,0.00001454,0.00001581,-0.00001388,0.00008015,-0.00008011
 ,0.00000171,-0.00001193,0.00002909,-0.00074990,0.00031224,0.00090605,0
 .00062517,0.00026823,-0.00279617,-0.00043091,0.00024202,0.00046494,-0.
 00004619,-0.00001115,0.00009040,-0.00007552,0.00004012,0.00006113,-0.0
 0000748,0.00000331,-0.00000486,-0.00010165,-0.00000771,-0.00000818,0.0
 0002775,0.00000874,-0.00000111,0.00006884,0.00000956,0.00000944,-0.030
 32385,-0.06144559,-0.49434047,0.03504081,0.05345875,0.50786517,-0.0000
 5485,0.00053081,0.00017394,-0.00082871,-0.00153515,0.00062905,0.000458
 17,0.00018817,0.00014566,-0.00099436,-0.00010255,-0.00062845,-0.000328
 04,-0.00012256,-0.00027762,-0.00518869,-0.00140581,0.00303573,0.000290
 21,0.00010112,-0.00003170,0.00054998,0.00025284,-0.00046851,-0.0005624
 7,-0.00010903,-0.00075658,0.00023078,-0.00005038,0.00002879,-0.0000179
 5,0.00017267,-0.00007171,-0.00022787,0.00041268,-0.00010519,0.00012967
 ,-0.00006281,0.00006095,-0.00005266,-0.00002663,-0.00028478,0.00065250
 ,0.00059054,0.00041597,-0.00023279,-0.00010431,0.00003838,0.00010063,-
 0.00040221,0.00029053,0.00000281,0.00008377,-0.00011496,-0.00144465,0.
 00208948,0.00066572,0.00242125,-0.00547984,-0.00111641,-0.00524831,-0.
 00094049,-0.00094296,0.00449501,-0.00159620,-0.00146629,0.00076478,-0.
 00022735,-0.00063183,0.00005905,-0.00005298,-0.00001303,0.00040827,0.0
 0011671,0.00000709,-0.00010341,-0.00006567,0.00000462,-0.00032698,-0.0
 0010180,-0.00001379,-0.06859534,0.14806310,0.03456396,0.00100735,-0.00
 570225,-0.00469085,0.07263660,-0.00080157,-0.00141690,0.00053147,-0.00
 262555,0.00411761,0.00056275,0.00026607,-0.00122012,-0.00011487,-0.000
 21968,0.00065449,-0.00010954,0.00050835,0.00094532,0.00040045,0.004482
 93,0.00726658,-0.00298139,0.00005303,-0.00005723,0.00006304,-0.0008413
 1,-0.00035592,0.00087837,-0.00016332,0.00005362,-0.00025205,-0.0002291
 2,-0.00008646,-0.00006984,0.00020542,-0.00049671,0.00002348,0.00008669
 ,-0.00014072,0.00000729,-0.00014749,0.00005545,-0.00008754,0.00015890,
 0.00017476,0.00022684,-0.00007503,-0.00059259,-0.00023459,-0.00009273,
 0.00008208,-0.00006191,-0.00011418,-0.00006298,-0.00016678,-0.00001518
 ,-0.00005676,0.00007157,0.00515128,-0.00110616,-0.00132022,-0.00587593
 ,-0.00628478,0.00361000,-0.00598217,-0.00807436,0.00197274,-0.00050992
 ,-0.00155540,-0.00004487,-0.00122425,0.00023069,0.00057187,-0.00003085
 ,0.00014338,0.00019881,-0.00000180,-0.00014475,-0.00002241,-0.00000585
 ,0.00004485,0.00000723,0.00010204,0.00011606,0.00000675,0.14040613,-0.
 37881156,-0.09529493,0.00204898,-0.00170594,0.00742408,-0.13451387,0.3
 8828447,-0.00006287,-0.00034801,0.00006409,0.00029294,0.00071014,0.001
 73373,-0.00011425,-0.00037726,-0.00017969,0.00023532,0.00023349,-0.000
 07574,0.00027093,0.00029535,0.00033316,0.00454633,0.00122315,-0.002522
 72,0.00007603,0.00000611,-0.00000822,0.00005388,-0.00026369,-0.0001390
 4,-0.00025847,0.00007859,-0.00048402,-0.00015004,-0.00001948,-0.000092
 72,0.00004402,-0.00018708,0.00004667,-0.00010368,-0.00005755,0.0001325
 5,-0.00005467,0.00002490,-0.00007794,0.00003921,0.00006333,0.00018607,
 -0.00027927,-0.00035952,-0.00029213,0.00002053,0.00004104,-0.00003342,
 -0.00001218,0.00003777,-0.00023889,0.00000783,-0.00004343,0.00007077,0
 .00081560,-0.00150710,-0.00194456,-0.00186044,0.00282911,0.00343447,-0
 .00561985,0.00269565,-0.00286797,0.00045227,-0.00192499,-0.00036909,-0
 .00061375,0.00008871,0.00020781,-0.00000791,0.00006730,0.00008112,-0.0
 0009459,-0.00007141,-0.00002881,0.00002579,0.00002782,0.00000569,0.000
 11276,0.00006269,0.00002334,0.01298006,-0.03883007,-0.06918366,0.01770
 421,-0.04869978,-0.01224282,-0.02844573,0.08420419,0.08446196\\-0.0000
 0716,-0.00000164,-0.00000511,0.00000698,0.00000692,-0.00000361,0.00000
 257,-0.00000118,0.00000036,-0.00000340,-0.00001023,-0.00000056,-0.0000
 0914,0.00000030,-0.00000154,-0.00000685,0.00000514,0.00000085,0.000003
 94,0.00000135,-0.00000030,0.00000049,0.00000337,0.00000318,-0.00000242
 ,0.00000019,0.00000473,-0.00000112,-0.00000333,-0.00000385,-0.00000320
 ,0.00000349,-0.00000236,-0.00000524,-0.00000373,-0.00000917,0.00000011
 ,-0.00000305,-0.00000052,0.00000253,-0.00000523,-0.00000073,0.00001436
 ,-0.00000489,0.00000670,0.00000356,-0.00000197,0.00000342,-0.00000831,
 -0.00000820,-0.00000843,-0.00000673,-0.00000200,-0.00000349,0.00000418
 ,0.00000239,0.00001200,0.00000845,0.00000436,-0.00000010,-0.00000724,0
 .00000286,-0.00000601,0.00000315,0.00001241,0.00000501,0.00000043,-0.0
 0000019,-0.00000278,-0.00001035,0.00000669,-0.00000178,0.00001092,-0.0
 0000655,0.00000202,0.00000206,-0.00000549,0.00000117,-0.00000167,-0.00
 001175,-0.00000232,0.00000755,0.00000886,0.00001232,0.00000229,0.00000
 364,-0.00000143,-0.00000073,0.00000749,0.00000232\\\@


 When cryptography is outlawed, bayl bhgynjf jvyy unir cevinpl.
 Job cpu time:       0 days  0 hours 34 minutes 23.4 seconds.
 File lengths (MBytes):  RWF=    220 Int=      0 D2E=      0 Chk=      6 Scr=      1
 Normal termination of Gaussian 09 at Tue Jan 31 07:10:32 2017.
