 Entering Gaussian System, Link 0=g09
 Initial command:
 /global/software/gaussian/g09.e01/l1.exe "/scratch/10502087.yak.local/Gau-20630.inp" -scrdir="/scratch/10502087.yak.local/"
 Entering Link 1 = /global/software/gaussian/g09.e01/l1.exe PID=     20631.
  
 Copyright (c) 1988,1990,1992,1993,1995,1998,2003,2009,2015,
            Gaussian, Inc.  All Rights Reserved.
  
 This is part of the Gaussian(R) 09 program.  It is based on
 the Gaussian(R) 03 system (copyright 2003, Gaussian, Inc.),
 the Gaussian(R) 98 system (copyright 1998, Gaussian, Inc.),
 the Gaussian(R) 94 system (copyright 1995, Gaussian, Inc.),
 the Gaussian 92(TM) system (copyright 1992, Gaussian, Inc.),
 the Gaussian 90(TM) system (copyright 1990, Gaussian, Inc.),
 the Gaussian 88(TM) system (copyright 1988, Gaussian, Inc.),
 the Gaussian 86(TM) system (copyright 1986, Carnegie Mellon
 University), and the Gaussian 82(TM) system (copyright 1983,
 Carnegie Mellon University). Gaussian is a federally registered
 trademark of Gaussian, Inc.
  
 This software contains proprietary and confidential information,
 including trade secrets, belonging to Gaussian, Inc.
  
 This software is provided under written license and may be
 used, copied, transmitted, or stored only in accord with that
 written license.
  
 The following legend is applicable only to US Government
 contracts under FAR:
  
                    RESTRICTED RIGHTS LEGEND
  
 Use, reproduction and disclosure by the US Government is
 subject to restrictions as set forth in subparagraphs (a)
 and (c) of the Commercial Computer Software - Restricted
 Rights clause in FAR 52.227-19.
  
 Gaussian, Inc.
 340 Quinnipiac St., Bldg. 40, Wallingford CT 06492
  
  
 ---------------------------------------------------------------
 Warning -- This program may not be used in any manner that
 competes with the business of Gaussian, Inc. or will provide
 assistance to any competitor of Gaussian, Inc.  The licensee
 of this program is prohibited from giving any competitor of
 Gaussian, Inc. access to this program.  By using this program,
 the user acknowledges that Gaussian, Inc. is engaged in the
 business of creating and licensing software in the field of
 computational chemistry and represents and warrants to the
 licensee that it is not a competitor of Gaussian, Inc. and that
 it will not use this program in any manner prohibited above.
 ---------------------------------------------------------------
  

 Cite this work as:
 Gaussian 09, Revision E.01,
 M. J. Frisch, G. W. Trucks, H. B. Schlegel, G. E. Scuseria, 
 M. A. Robb, J. R. Cheeseman, G. Scalmani, V. Barone, B. Mennucci, 
 G. A. Petersson, H. Nakatsuji, M. Caricato, X. Li, H. P. Hratchian, 
 A. F. Izmaylov, J. Bloino, G. Zheng, J. L. Sonnenberg, M. Hada, 
 M. Ehara, K. Toyota, R. Fukuda, J. Hasegawa, M. Ishida, T. Nakajima, 
 Y. Honda, O. Kitao, H. Nakai, T. Vreven, J. A. Montgomery, Jr., 
 J. E. Peralta, F. Ogliaro, M. Bearpark, J. J. Heyd, E. Brothers, 
 K. N. Kudin, V. N. Staroverov, T. Keith, R. Kobayashi, J. Normand, 
 K. Raghavachari, A. Rendell, J. C. Burant, S. S. Iyengar, J. Tomasi, 
 M. Cossi, N. Rega, J. M. Millam, M. Klene, J. E. Knox, J. B. Cross, 
 V. Bakken, C. Adamo, J. Jaramillo, R. Gomperts, R. E. Stratmann, 
 O. Yazyev, A. J. Austin, R. Cammi, C. Pomelli, J. W. Ochterski, 
 R. L. Martin, K. Morokuma, V. G. Zakrzewski, G. A. Voth, 
 P. Salvador, J. J. Dannenberg, S. Dapprich, A. D. Daniels, 
 O. Farkas, J. B. Foresman, J. V. Ortiz, J. Cioslowski, 
 and D. J. Fox, Gaussian, Inc., Wallingford CT, 2013.
 
 ******************************************
 Gaussian 09:  ES64L-G09RevE.01 30-Nov-2015
                31-Jan-2017 
 ******************************************
 %NPROCS=4
 Will use up to    4 processors via shared memory.
 --------------------------------------------------
 # b3lyp/6-31g(d) irc=(calcfc,forward,maxpoints=20)
 --------------------------------------------------
 1/10=4,14=-1,18=10,22=1,26=3,38=1,42=20,44=3/1,23;
 2/12=2,17=6,18=5,29=1,40=1/2;
 3/5=1,6=6,7=1,11=2,16=1,25=1,30=1,71=2,74=-5,140=1/1,2,3;
 4//1;
 5/5=2,38=5/2;
 8/6=4,10=90,11=11/1;
 11/6=1,8=1,9=11,15=111,16=1/1,2,10;
 10/6=1,13=1/2;
 6/7=2,8=2,9=2,10=2,28=1/1;
 7/10=1,18=20,25=1/1,2,3,16;
 1/10=4,14=-1,18=10,22=1,26=3,42=20,44=3/23(2);
 2/29=1/2;
 99/5=20/99;
 2/29=1/2;
 3/5=1,6=6,7=1,11=2,16=1,25=1,30=1,71=2,74=-5,140=1/1,2,3;
 4/5=5,16=3,69=1/1;
 5/5=2,38=5/2;
 8/6=4,10=90,11=11/1;
 11/6=1,8=1,9=11,15=111,16=1/1,2,10;
 10/6=1,13=1/2;
 7/10=1,18=20,25=1/1,2,3,16;
 1/14=-1,18=10,22=1,26=3,42=20,44=3/23(-8);
 2/29=1/2;
 6/7=2,8=2,9=2,10=2,19=2,28=1/1;
 99/5=20,9=1/99;
 ------------------------------------------
 ./5/glo_2w_beta_boat5_b3lyp_631Gd_iopt.out
 ------------------------------------------
 Symbolic Z-matrix:
 Charge =  0 Multiplicity = 1
 O                     0.44978  -0.71563  -0.74442 
 C                    -1.20955  -0.35779   1.04239 
 C                    -0.19757   1.6127   -0.22433 
 C                    -1.34426   1.13973   0.6939 
 C                     0.93839   0.59492  -0.31727 
 C                    -0.78518  -1.18246  -0.17122 
 H                    -1.28061   1.72419   1.62656 
 H                    -0.5987   -2.20721   0.18271 
 H                    -2.18451  -0.73326   1.38587 
 H                    -0.60958   1.74812  -1.23457 
 C                    -1.84993  -1.21378  -1.28318 
 H                    -1.52511  -1.91338  -2.06459 
 H                    -1.94337  -0.22472  -1.73139 
 H                     1.40042   0.47223   0.66786 
 O                     1.85428   1.04235  -1.24502 
 H                     2.73643   0.66177  -0.99491 
 O                    -3.14892  -1.53974  -0.78734 
 H                    -3.15841  -2.4798   -0.54853 
 O                     0.32246   2.83053   0.28335 
 H                     1.09749   3.0297   -0.27037 
 O                    -2.58076   1.40745   0.03973 
 H                    -3.21476   0.7012    0.24511 
 O                    -0.22249  -0.59491   2.05326 
 H                    -0.40658  -0.00263   2.7998 
 O                     4.06537  -0.21437  -0.25437 
 H                     3.59329  -0.94105   0.22575 
 H                     4.58241  -0.66959  -0.93594 
 O                     2.3358   -2.10316   0.73128 
 H                     1.89254  -1.82696   1.55107 
 H                     1.70353  -1.79863   0.04207 
 
 IRC-IRC-IRC-IRC-IRC-IRC-IRC-IRC-IRC-IRC-IRC-IRC-IRC-IRC-IRC-IRC-IRC-IRC
 ------------------------------------------------------------------------
 INPUT DATA FOR L123
 ------------------------------------------------------------------------
 GENERAL PARAMETERS:
 Rxn path following direction = Forward
 Maximum points per path      =  20
 Step size                    =   0.100 bohr
 Integration scheme           = HPC                                 
    Redo corrector integration= Yes                                 
    DWI Weight Power          =  2
    DWI will use Hessian update vectors when possible.
    Max correction cycles     =  20
 Initial Hessian              = CalcFC
 Hessian evaluation           = All updating
 Hessian updating method      = Bofill                              
 ------------------------------------------------------------------------
 IRC-IRC-IRC-IRC-IRC-IRC-IRC-IRC-IRC-IRC-IRC-IRC-IRC-IRC-IRC-IRC-IRC-IRC
                          Input orientation:                          
 ---------------------------------------------------------------------
 Center     Atomic      Atomic             Coordinates (Angstroms)
 Number     Number       Type             X           Y           Z
 ---------------------------------------------------------------------
      1          8           0        0.449780   -0.715630   -0.744420
      2          6           0       -1.209550   -0.357790    1.042390
      3          6           0       -0.197570    1.612700   -0.224330
      4          6           0       -1.344260    1.139730    0.693900
      5          6           0        0.938390    0.594920   -0.317270
      6          6           0       -0.785180   -1.182460   -0.171220
      7          1           0       -1.280610    1.724190    1.626560
      8          1           0       -0.598700   -2.207210    0.182710
      9          1           0       -2.184510   -0.733260    1.385870
     10          1           0       -0.609580    1.748120   -1.234570
     11          6           0       -1.849930   -1.213780   -1.283180
     12          1           0       -1.525110   -1.913380   -2.064590
     13          1           0       -1.943370   -0.224720   -1.731390
     14          1           0        1.400420    0.472230    0.667860
     15          8           0        1.854280    1.042350   -1.245020
     16          1           0        2.736430    0.661770   -0.994910
     17          8           0       -3.148920   -1.539740   -0.787340
     18          1           0       -3.158410   -2.479800   -0.548530
     19          8           0        0.322460    2.830530    0.283350
     20          1           0        1.097490    3.029700   -0.270370
     21          8           0       -2.580760    1.407450    0.039730
     22          1           0       -3.214760    0.701200    0.245110
     23          8           0       -0.222490   -0.594910    2.053260
     24          1           0       -0.406580   -0.002630    2.799800
     25          8           0        4.065370   -0.214370   -0.254370
     26          1           0        3.593290   -0.941050    0.225750
     27          1           0        4.582410   -0.669590   -0.935940
     28          8           0        2.335800   -2.103160    0.731280
     29          1           0        1.892540   -1.826960    1.551070
     30          1           0        1.703530   -1.798630    0.042070
 ---------------------------------------------------------------------
                    Distance matrix (angstroms):
                    1          2          3          4          5
     1  O    0.000000
     2  C    2.464572   0.000000
     3  C    2.471978   2.551767   0.000000
     4  C    2.954607   1.543424   1.543290   0.000000
     5  C    1.462443   2.714770   1.528044   2.555342   0.000000
     6  C    1.439310   1.527423   2.856751   2.540388   2.480142
     7  H    3.816873   2.163549   2.147370   1.102497   3.158748
     8  H    2.045407   2.128977   3.862421   3.466869   3.234897
     9  H    3.387909   1.099774   3.470476   2.166318   3.797006
    10  H    2.726271   3.159014   1.099398   2.151485   2.137176
    11  C    2.413935   2.559508   3.440995   3.115053   3.461085
    12  H    2.660384   3.488949   4.193109   4.118671   3.926007
    13  H    2.634819   2.872291   2.948756   2.846522   3.313018
    14  H    2.075876   2.764263   2.156443   2.824801   1.094991
    15  O    2.305150   4.071817   2.361609   3.741597   1.378321
    16  H    2.681183   4.556408   3.179059   4.442134   1.922658
    17  O    3.692105   2.916517   4.354920   3.553932   4.635067
    18  H    4.021157   3.291202   5.061644   4.235064   5.127490
    19  O    3.694289   3.617814   1.418196   2.409421   2.395426
    20  H    3.830372   4.303587   1.920205   3.234802   2.440423
    21  O    3.782398   2.449820   2.406543   1.424270   3.629335
    22  H    4.051596   2.403743   3.186635   1.972940   4.192400
    23  O    2.879850   1.432610   3.171999   2.472894   2.895298
    24  H    3.715268   1.964533   3.434871   2.572750   3.447047
    25  O    3.682920   5.433869   4.638076   5.656580   3.230621
    26  H    3.297529   4.906563   4.592911   5.378495   3.114895
    27  H    4.137322   6.128443   5.344478   6.407451   3.906484
    28  O    2.767671   3.963914   4.597692   4.905158   3.214319
    29  H    2.930168   3.469896   4.399076   4.473574   3.204153
    30  H    1.833942   3.400396   3.914374   4.283441   2.538434
                    6          7          8          9         10
     6  C    0.000000
     7  H    3.453415   0.000000
     8  H    1.100070   4.243302   0.000000
     9  H    2.141129   2.629454   2.476876   0.000000
    10  H    3.122475   2.938864   4.201599   3.937557   0.000000
    11  C    1.539847   4.174012   2.168251   2.732521   3.211492
    12  H    2.160229   5.188091   2.448454   3.705829   3.864416
    13  H    2.166287   3.938696   3.066298   3.167660   2.432678
    14  H    2.866863   3.110375   3.378054   3.849736   3.047497
    15  O    3.615187   4.305626   4.314529   5.136750   2.562972
    16  H    4.059727   4.912988   4.554221   5.641797   3.526099
    17  O    2.468708   4.468863   2.808938   2.510645   4.178311
    18  H    2.730874   5.092218   2.676029   2.782227   4.984224
    19  O    4.187790   2.366017   5.122254   4.494558   2.084320
    20  H    4.614821   3.310296   5.523366   5.260658   2.342267
    21  O    3.158519   2.075751   4.124897   2.559638   2.371803
    22  H    3.102316   2.587634   3.912354   2.102480   3.173713
    23  O    2.368575   2.584553   2.498000   2.077035   4.055793
    24  H    3.219052   2.263256   3.427279   2.386222   4.402553
    25  O    4.946913   5.989609   5.090776   6.482332   5.164041
    26  H    4.403052   5.728933   4.379246   5.896781   5.198874
    27  H    5.445994   6.831661   5.519017   7.154444   5.735090
    28  O    3.376790   5.341213   2.987147   4.768471   5.231844
    29  H    3.248361   4.762903   2.867625   4.224430   5.177025
    30  H    2.572710   4.881184   2.342430   4.249431   4.422638
                   11         12         13         14         15
    11  C    0.000000
    12  H    1.097975   0.000000
    13  H    1.089891   1.771309   0.000000
    14  H    4.148971   4.660058   4.174095   0.000000
    15  O    4.337367   4.563805   4.032886   2.046982   0.000000
    16  H    4.963415   5.092773   4.819626   2.141414   0.992766
    17  O    1.428104   2.099460   2.018380   5.182868   5.648776
    18  H    1.963323   2.299334   2.821501   5.565700   6.165849
    19  O    4.850746   5.606337   4.304383   2.621340   2.807129
    20  H    5.264997   5.876334   4.687500   2.740930   2.339281
    21  O    3.025731   4.070684   2.491407   4.137509   4.631788
    22  H    2.804564   3.876295   2.525928   4.640154   5.294529
    23  O    3.763428   4.515736   4.173972   2.385782   4.227558
    24  H    4.496762   5.344564   4.789857   2.834768   4.750162
    25  O    6.086710   6.116944   6.187621   2.902393   2.729405
    26  H    5.655077   5.691142   5.915922   2.646035   3.020132
    27  H    6.464651   6.334245   6.589116   3.741789   3.235578
    28  O    4.729628   4.770695   5.282478   2.740728   3.745912
    29  H    4.734453   4.976022   5.296784   2.511676   4.006560
    30  H    3.837371   3.856851   4.349969   2.374930   3.122578
                   16         17         18         19         20
    16  H    0.000000
    17  O    6.287056   0.000000
    18  H    6.694614   0.969966   0.000000
    19  O    3.487796   5.682967   6.403756   0.000000
    20  H    2.969541   6.259316   6.967399   0.973112   0.000000
    21  O    5.468000   3.113323   3.973719   3.242406   4.032044
    22  H    6.079134   2.468218   3.278994   4.128854   4.927792
    23  O    4.430101   4.186371   4.352212   3.893994   4.503266
    24  H    4.971897   4.769770   4.992019   3.858862   4.569814
    25  O    1.755592   7.354362   7.576391   4.854888   4.396880
    26  H    2.189350   6.844134   6.967978   4.992641   4.716143
    27  H    2.276761   7.781562   7.959098   5.646652   5.125661
    28  O    3.284064   5.718899   5.653858   5.347474   5.374288
    29  H    3.658954   5.564798   5.508776   5.075872   5.247561
    30  H    2.862827   4.929626   4.944822   4.836806   4.876236
                   21         22         23         24         25
    21  O    0.000000
    22  H    0.971044   0.000000
    23  O    3.691231   3.728671   0.000000
    24  H    3.785944   3.861048   0.970570   0.000000
    25  O    6.847470   7.354457   4.884231   5.419513   0.000000
    26  H    6.608249   7.003350   4.244971   4.848229   0.990676
    27  H    7.521771   8.004362   5.659325   6.268222   0.969068
    28  O    6.080723   6.237749   3.250738   4.026369   2.744166
    29  H    5.723283   5.846506   2.498698   3.189586   3.252883
    30  H    5.351084   5.520865   3.033707   3.909380   2.859378
                   26         27         28         29         30
    26  H    0.000000
    27  H    1.549701   0.000000
    28  O    1.785313   3.143565   0.000000
    29  H    2.331064   3.841891   0.972019   0.000000
    30  H    2.083357   3.243329   0.983623   1.521055   0.000000
 Symmetry turned off by external request.
 Stoichiometry    C6H16O8
 Framework group  C1[X(C6H16O8)]
 Deg. of freedom    84
 Full point group                 C1      NOp   1
 Rotational constants (GHZ):      0.8197113      0.4809201      0.3921118
 Standard basis: 6-31G(d) (6D, 7F)
   242 basis functions,   456 primitive gaussians,   242 cartesian basis functions
    58 alpha electrons       58 beta electrons
       nuclear repulsion energy      1118.2993616015 Hartrees.
 NAtoms=   30 NActive=   30 NUniq=   30 SFac= 1.00D+00 NAtFMM=   60 NAOKFM=F Big=F
 Integral buffers will be    131072 words long.
 Raffenetti 2 integral format.
 Two-electron integral symmetry is turned off.
 One-electron integrals computed using PRISM.
 NBasis=   242 RedAO= T EigKep=  1.28D-03  NBF=   242
 NBsUse=   242 1.00D-06 EigRej= -1.00D+00 NBFU=   242
 ExpMin= 1.61D-01 ExpMax= 5.48D+03 ExpMxC= 8.25D+02 IAcc=1 IRadAn=         1 AccDes= 0.00D+00
 Harris functional with IExCor=  402 and IRadAn=       1 diagonalized for initial guess.
 HarFok:  IExCor=  402 AccDes= 0.00D+00 IRadAn=         1 IDoV= 1 UseB2=F ITyADJ=14
 ICtDFT=  3500011 ScaDFX=  1.000000  1.000000  1.000000  1.000000
 FoFCou: FMM=F IPFlag=           0 FMFlag=      100000 FMFlg1=           0
         NFxFlg=           0 DoJE=T BraDBF=F KetDBF=T FulRan=T
         wScrn=  0.000000 ICntrl=     500 IOpCl=  0 I1Cent=   200000004 NGrid=           0
         NMat0=    1 NMatS0=      1 NMatT0=    0 NMatD0=    1 NMtDS0=    0 NMtDT0=    0
 Symmetry not used in FoFCou.
 Requested convergence on RMS density matrix=1.00D-08 within 128 cycles.
 Requested convergence on MAX density matrix=1.00D-06.
 Requested convergence on             energy=1.00D-06.
 No special actions if energy rises.
 Integral accuracy reduced to 1.0D-05 until final iterations.
 Initial convergence to 1.0D-05 achieved.  Increase integral accuracy.
 SCF Done:  E(RB3LYP) =  -839.992002265     A.U. after   14 cycles
            NFock= 14  Conv=0.39D-08     -V/T= 2.0085
 DoSCS=F DFT=T ScalE2(SS,OS)=  1.000000  1.000000
 Range of M.O.s used for correlation:     1   242
 NBasis=   242 NAE=    58 NBE=    58 NFC=     0 NFV=     0
 NROrb=    242 NOA=    58 NOB=    58 NVA=   184 NVB=   184
 Symmetrizing basis deriv contribution to polar:
 IMax=3 JMax=2 DiffMx= 0.00D+00
 G2DrvN: will do    31 centers at a time, making    1 passes.
 Calling FoFCou, ICntrl=  3107 FMM=F I1Cent=   0 AccDes= 0.00D+00.
 End of G2Drv F.D. properties file   721 does not exist.
 End of G2Drv F.D. properties file   722 does not exist.
 End of G2Drv F.D. properties file   788 does not exist.
          IDoAtm=111111111111111111111111111111
          Differentiating once with respect to nuclear coordinates.
          There are    93 degrees of freedom in the 1st order CPHF.  IDoFFX=6 NUNeed=     0.
     87 vectors produced by pass  0 Test12= 1.15D-14 1.08D-09 XBig12= 1.01D-01 7.26D-02.
 AX will form    87 AO Fock derivatives at one time.
     87 vectors produced by pass  1 Test12= 1.15D-14 1.08D-09 XBig12= 9.15D-03 1.23D-02.
     87 vectors produced by pass  2 Test12= 1.15D-14 1.08D-09 XBig12= 1.23D-04 1.83D-03.
     87 vectors produced by pass  3 Test12= 1.15D-14 1.08D-09 XBig12= 2.97D-07 6.53D-05.
     87 vectors produced by pass  4 Test12= 1.15D-14 1.08D-09 XBig12= 4.13D-10 1.73D-06.
     63 vectors produced by pass  5 Test12= 1.15D-14 1.08D-09 XBig12= 3.33D-13 6.10D-08.
      3 vectors produced by pass  6 Test12= 1.15D-14 1.08D-09 XBig12= 2.65D-16 1.67D-09.
 InvSVY:  IOpt=1 It=  1 EMax= 7.22D-16
 Solved reduced A of dimension   501 with    93 vectors.
 End of Minotr F.D. properties file   721 does not exist.
 End of Minotr F.D. properties file   722 does not exist.
 End of Minotr F.D. properties file   788 does not exist.

 **********************************************************************

            Population analysis using the SCF density.

 **********************************************************************

 Alpha  occ. eigenvalues --  -19.17882 -19.17038 -19.16824 -19.15171 -19.15069
 Alpha  occ. eigenvalues --  -19.14642 -19.14104 -19.14036 -10.27993 -10.26034
 Alpha  occ. eigenvalues --  -10.25648 -10.24857 -10.24332 -10.23319  -1.07102
 Alpha  occ. eigenvalues --   -1.04756  -1.03888  -1.02802  -1.01587  -1.01159
 Alpha  occ. eigenvalues --   -1.00393  -0.99169  -0.78993  -0.76543  -0.69671
 Alpha  occ. eigenvalues --   -0.66051  -0.63167  -0.56535  -0.55743  -0.54164
 Alpha  occ. eigenvalues --   -0.53472  -0.52925  -0.52395  -0.51776  -0.51078
 Alpha  occ. eigenvalues --   -0.48186  -0.46997  -0.44182  -0.43299  -0.42451
 Alpha  occ. eigenvalues --   -0.41830  -0.40972  -0.39977  -0.39234  -0.38809
 Alpha  occ. eigenvalues --   -0.37211  -0.35759  -0.35180  -0.33736  -0.32380
 Alpha  occ. eigenvalues --   -0.31232  -0.30803  -0.29871  -0.29495  -0.29065
 Alpha  occ. eigenvalues --   -0.27762  -0.27170  -0.25202
 Alpha virt. eigenvalues --    0.03612   0.04715   0.06520   0.08181   0.09597
 Alpha virt. eigenvalues --    0.10623   0.11341   0.11602   0.12218   0.14073
 Alpha virt. eigenvalues --    0.14862   0.16621   0.17572   0.18315   0.19732
 Alpha virt. eigenvalues --    0.20117   0.20887   0.21032   0.22911   0.23891
 Alpha virt. eigenvalues --    0.24304   0.24771   0.25567   0.28398   0.30260
 Alpha virt. eigenvalues --    0.30963   0.32638   0.34548   0.52692   0.52988
 Alpha virt. eigenvalues --    0.53952   0.55539   0.56531   0.58086   0.58688
 Alpha virt. eigenvalues --    0.59933   0.62501   0.63392   0.64964   0.66610
 Alpha virt. eigenvalues --    0.69430   0.70006   0.72174   0.72717   0.73475
 Alpha virt. eigenvalues --    0.75851   0.77704   0.79420   0.80426   0.80978
 Alpha virt. eigenvalues --    0.81485   0.82868   0.84173   0.84720   0.85706
 Alpha virt. eigenvalues --    0.86203   0.87050   0.87573   0.88315   0.89121
 Alpha virt. eigenvalues --    0.90584   0.92105   0.93170   0.94115   0.96140
 Alpha virt. eigenvalues --    0.96464   0.98740   0.99508   1.01145   1.02709
 Alpha virt. eigenvalues --    1.04338   1.04845   1.06180   1.07405   1.08221
 Alpha virt. eigenvalues --    1.09943   1.10836   1.11596   1.12763   1.15504
 Alpha virt. eigenvalues --    1.17961   1.20016   1.22771   1.24033   1.26039
 Alpha virt. eigenvalues --    1.28435   1.29634   1.32289   1.32907   1.36354
 Alpha virt. eigenvalues --    1.38295   1.40589   1.44018   1.44301   1.47188
 Alpha virt. eigenvalues --    1.51301   1.54563   1.55731   1.56677   1.59830
 Alpha virt. eigenvalues --    1.61671   1.63449   1.63592   1.67793   1.68632
 Alpha virt. eigenvalues --    1.69679   1.71994   1.72889   1.73267   1.74722
 Alpha virt. eigenvalues --    1.76145   1.76399   1.77403   1.79943   1.80312
 Alpha virt. eigenvalues --    1.81768   1.82332   1.83310   1.85225   1.87950
 Alpha virt. eigenvalues --    1.89336   1.89623   1.92809   1.95613   1.96555
 Alpha virt. eigenvalues --    1.97631   1.98656   2.02150   2.04862   2.05743
 Alpha virt. eigenvalues --    2.07491   2.08909   2.11838   2.14336   2.16930
 Alpha virt. eigenvalues --    2.19458   2.22322   2.25260   2.27468   2.28630
 Alpha virt. eigenvalues --    2.30383   2.32635   2.34859   2.35719   2.38040
 Alpha virt. eigenvalues --    2.41646   2.44753   2.45841   2.47718   2.50678
 Alpha virt. eigenvalues --    2.53009   2.53485   2.54477   2.57683   2.59374
 Alpha virt. eigenvalues --    2.62213   2.63121   2.65586   2.67737   2.68998
 Alpha virt. eigenvalues --    2.73524   2.75296   2.80621   2.87639   2.88121
 Alpha virt. eigenvalues --    2.93178   2.98586   3.01664   3.07850   3.09409
 Alpha virt. eigenvalues --    3.72935   3.74404   3.78914   3.84642   3.85739
 Alpha virt. eigenvalues --    3.94161   4.02114   4.17407   4.27675   4.34094
 Alpha virt. eigenvalues --    4.46321   4.52791   4.71477   4.84344
          Condensed to atoms (all electrons):
               1          2          3          4          5          6
     1  O    8.442722  -0.028560  -0.029032  -0.005386   0.130655   0.166725
     2  C   -0.028560   5.061060  -0.021099   0.302410  -0.007020   0.306699
     3  C   -0.029032  -0.021099   5.001556   0.291741   0.302597  -0.013710
     4  C   -0.005386   0.302410   0.291741   4.976120  -0.033861  -0.021314
     5  C    0.130655  -0.007020   0.302597  -0.033861   4.792579  -0.020831
     6  C    0.166725   0.306699  -0.013710  -0.021314  -0.020831   5.004847
     7  H   -0.000048  -0.054987  -0.054182   0.355004   0.002879   0.004939
     8  H   -0.042016  -0.047996  -0.000302   0.005639   0.001598   0.354733
     9  H    0.002902   0.355845   0.005523  -0.055526   0.000758  -0.044942
    10  H    0.001412   0.000652   0.343401  -0.051407  -0.040318   0.001975
    11  C   -0.034236  -0.048567  -0.001781  -0.001535   0.000628   0.322689
    12  H    0.004535   0.006509  -0.000100  -0.000352  -0.000203  -0.046868
    13  H    0.002678  -0.010125  -0.002310   0.002469   0.000837  -0.037614
    14  H   -0.054143  -0.000744  -0.056873  -0.004988   0.350181  -0.002768
    15  O   -0.052308  -0.000204  -0.042824   0.003017   0.264053   0.003422
    16  H    0.002080   0.000067   0.005252  -0.000168  -0.020348  -0.000269
    17  O    0.001491  -0.003053   0.000097  -0.001867  -0.000029  -0.042173
    18  H    0.000005  -0.001254   0.000001   0.000123   0.000002  -0.002252
    19  O    0.001485   0.001518   0.226180  -0.034892  -0.032759   0.000177
    20  H    0.000414  -0.000255  -0.033885   0.007399  -0.007774  -0.000049
    21  O   -0.000003  -0.021761  -0.044682   0.220279   0.002845  -0.004180
    22  H    0.000076  -0.003853   0.006285  -0.035220  -0.000354  -0.001675
    23  O    0.001892   0.182122   0.000838  -0.033386  -0.004833  -0.044240
    24  H   -0.000096  -0.027807  -0.000860  -0.002240   0.000029   0.006693
    25  O   -0.000408   0.000002   0.000074   0.000000   0.003369  -0.000004
    26  H    0.000137   0.000026   0.000072  -0.000004   0.001020  -0.000064
    27  H    0.000003  -0.000000   0.000001  -0.000000   0.000021  -0.000000
    28  O   -0.022946  -0.000773   0.000132  -0.000003   0.003093   0.001918
    29  H    0.000935  -0.001196   0.000001   0.000066  -0.000019   0.000385
    30  H    0.058511   0.000790   0.000852  -0.000057  -0.002136  -0.001564
               7          8          9         10         11         12
     1  O   -0.000048  -0.042016   0.002902   0.001412  -0.034236   0.004535
     2  C   -0.054987  -0.047996   0.355845   0.000652  -0.048567   0.006509
     3  C   -0.054182  -0.000302   0.005523   0.343401  -0.001781  -0.000100
     4  C    0.355004   0.005639  -0.055526  -0.051407  -0.001535  -0.000352
     5  C    0.002879   0.001598   0.000758  -0.040318   0.000628  -0.000203
     6  C    0.004939   0.354733  -0.044942   0.001975   0.322689  -0.046868
     7  H    0.629074  -0.000237  -0.004746   0.005209   0.000282   0.000009
     8  H   -0.000237   0.644924  -0.002049   0.000049  -0.050139  -0.007510
     9  H   -0.004746  -0.002049   0.625498  -0.000348  -0.004148   0.000124
    10  H    0.005209   0.000049  -0.000348   0.612456  -0.001294   0.000054
    11  C    0.000282  -0.050139  -0.004148  -0.001294   4.966493   0.360325
    12  H    0.000009  -0.007510   0.000124   0.000054   0.360325   0.603607
    13  H    0.000203   0.005347  -0.000089   0.005021   0.370981  -0.032267
    14  H    0.000922   0.000613   0.000163   0.007904  -0.000245   0.000007
    15  O   -0.000121  -0.000129   0.000006  -0.002066   0.000002  -0.000001
    16  H    0.000008  -0.000005  -0.000000  -0.000224  -0.000004   0.000001
    17  O   -0.000032   0.003218   0.014992   0.000036   0.217558  -0.029358
    18  H    0.000001   0.003371   0.000695   0.000000  -0.028817  -0.007089
    19  O    0.004932   0.000005  -0.000063  -0.034509   0.000013  -0.000000
    20  H   -0.000374   0.000001   0.000006  -0.002560  -0.000001  -0.000000
    21  O   -0.034516  -0.000120  -0.002466   0.000409   0.002061   0.000356
    22  H    0.000726  -0.000092   0.010575   0.000024  -0.002498   0.000196
    23  O   -0.000825  -0.000326  -0.032670  -0.000080   0.002910  -0.000041
    24  H    0.009543  -0.000250  -0.002699   0.000028  -0.000213   0.000006
    25  O   -0.000000   0.000002   0.000000  -0.000000  -0.000000  -0.000000
    26  H    0.000000  -0.000028  -0.000000  -0.000001  -0.000002  -0.000000
    27  H    0.000000  -0.000000  -0.000000   0.000000  -0.000000   0.000000
    28  O    0.000000   0.004415  -0.000006  -0.000001   0.000033  -0.000001
    29  H   -0.000005   0.000677   0.000055   0.000001   0.000043  -0.000002
    30  H    0.000003  -0.004697  -0.000048  -0.000020   0.000456   0.000035
              13         14         15         16         17         18
     1  O    0.002678  -0.054143  -0.052308   0.002080   0.001491   0.000005
     2  C   -0.010125  -0.000744  -0.000204   0.000067  -0.003053  -0.001254
     3  C   -0.002310  -0.056873  -0.042824   0.005252   0.000097   0.000001
     4  C    0.002469  -0.004988   0.003017  -0.000168  -0.001867   0.000123
     5  C    0.000837   0.350181   0.264053  -0.020348  -0.000029   0.000002
     6  C   -0.037614  -0.002768   0.003422  -0.000269  -0.042173  -0.002252
     7  H    0.000203   0.000922  -0.000121   0.000008  -0.000032   0.000001
     8  H    0.005347   0.000613  -0.000129  -0.000005   0.003218   0.003371
     9  H   -0.000089   0.000163   0.000006  -0.000000   0.014992   0.000695
    10  H    0.005021   0.007904  -0.002066  -0.000224   0.000036   0.000000
    11  C    0.370981  -0.000245   0.000002  -0.000004   0.217558  -0.028817
    12  H   -0.032267   0.000007  -0.000001   0.000001  -0.029358  -0.007089
    13  H    0.524973   0.000082  -0.000103   0.000000  -0.033986   0.006700
    14  H    0.000082   0.667340  -0.049232  -0.006018   0.000006   0.000000
    15  O   -0.000103  -0.049232   8.340597   0.203026   0.000000  -0.000000
    16  H    0.000000  -0.006018   0.203026   0.304046  -0.000000  -0.000000
    17  O   -0.033986   0.000006   0.000000  -0.000000   8.249035   0.234404
    18  H    0.006700   0.000000  -0.000000  -0.000000   0.234404   0.396893
    19  O    0.000012   0.004911  -0.005522  -0.000177   0.000000   0.000000
    20  H   -0.000003   0.000739   0.022827  -0.000446  -0.000000   0.000000
    21  O    0.012183  -0.000022  -0.000010   0.000001  -0.002579   0.000084
    22  H   -0.002922   0.000018   0.000002  -0.000000   0.013297  -0.000429
    23  O   -0.000020   0.011012   0.000132   0.000002   0.000053  -0.000025
    24  H    0.000006   0.000563  -0.000012   0.000000   0.000010   0.000000
    25  O   -0.000000   0.001913  -0.030368   0.081306   0.000000  -0.000000
    26  H    0.000000  -0.000278   0.002389  -0.006237   0.000000   0.000000
    27  H    0.000000  -0.000106   0.001506  -0.003786   0.000000   0.000000
    28  O    0.000000   0.007313  -0.000424   0.000283   0.000000  -0.000000
    29  H    0.000000   0.001817   0.000023  -0.000055  -0.000000  -0.000000
    30  H   -0.000028  -0.005042   0.000698   0.000861  -0.000005  -0.000001
              19         20         21         22         23         24
     1  O    0.001485   0.000414  -0.000003   0.000076   0.001892  -0.000096
     2  C    0.001518  -0.000255  -0.021761  -0.003853   0.182122  -0.027807
     3  C    0.226180  -0.033885  -0.044682   0.006285   0.000838  -0.000860
     4  C   -0.034892   0.007399   0.220279  -0.035220  -0.033386  -0.002240
     5  C   -0.032759  -0.007774   0.002845  -0.000354  -0.004833   0.000029
     6  C    0.000177  -0.000049  -0.004180  -0.001675  -0.044240   0.006693
     7  H    0.004932  -0.000374  -0.034516   0.000726  -0.000825   0.009543
     8  H    0.000005   0.000001  -0.000120  -0.000092  -0.000326  -0.000250
     9  H   -0.000063   0.000006  -0.002466   0.010575  -0.032670  -0.002699
    10  H   -0.034509  -0.002560   0.000409   0.000024  -0.000080   0.000028
    11  C    0.000013  -0.000001   0.002061  -0.002498   0.002910  -0.000213
    12  H   -0.000000  -0.000000   0.000356   0.000196  -0.000041   0.000006
    13  H    0.000012  -0.000003   0.012183  -0.002922  -0.000020   0.000006
    14  H    0.004911   0.000739  -0.000022   0.000018   0.011012   0.000563
    15  O   -0.005522   0.022827  -0.000010   0.000002   0.000132  -0.000012
    16  H   -0.000177  -0.000446   0.000001  -0.000000   0.000002   0.000000
    17  O    0.000000  -0.000000  -0.002579   0.013297   0.000053   0.000010
    18  H    0.000000   0.000000   0.000084  -0.000429  -0.000025   0.000000
    19  O    8.279912   0.233487   0.000836  -0.000100  -0.000036   0.000012
    20  H    0.233487   0.376061  -0.000167   0.000013   0.000008  -0.000000
    21  O    0.000836  -0.000167   8.274230   0.235092   0.001615  -0.000016
    22  H   -0.000100   0.000013   0.235092   0.369662   0.000129   0.000022
    23  O   -0.000036   0.000008   0.001615   0.000129   8.311264   0.233596
    24  H    0.000012  -0.000000  -0.000016   0.000022   0.233596   0.378903
    25  O   -0.000001   0.000012  -0.000000   0.000000  -0.000000  -0.000000
    26  H   -0.000001  -0.000003  -0.000000  -0.000000  -0.000029  -0.000001
    27  H    0.000000  -0.000001   0.000000  -0.000000   0.000000   0.000000
    28  O    0.000000   0.000000   0.000000   0.000000  -0.001961   0.000085
    29  H   -0.000000  -0.000000  -0.000000  -0.000000   0.015251  -0.000557
    30  H   -0.000013  -0.000005  -0.000000  -0.000001  -0.000186   0.000031
              25         26         27         28         29         30
     1  O   -0.000408   0.000137   0.000003  -0.022946   0.000935   0.058511
     2  C    0.000002   0.000026  -0.000000  -0.000773  -0.001196   0.000790
     3  C    0.000074   0.000072   0.000001   0.000132   0.000001   0.000852
     4  C    0.000000  -0.000004  -0.000000  -0.000003   0.000066  -0.000057
     5  C    0.003369   0.001020   0.000021   0.003093  -0.000019  -0.002136
     6  C   -0.000004  -0.000064  -0.000000   0.001918   0.000385  -0.001564
     7  H   -0.000000   0.000000   0.000000   0.000000  -0.000005   0.000003
     8  H    0.000002  -0.000028  -0.000000   0.004415   0.000677  -0.004697
     9  H    0.000000  -0.000000  -0.000000  -0.000006   0.000055  -0.000048
    10  H   -0.000000  -0.000001   0.000000  -0.000001   0.000001  -0.000020
    11  C   -0.000000  -0.000002  -0.000000   0.000033   0.000043   0.000456
    12  H   -0.000000  -0.000000   0.000000  -0.000001  -0.000002   0.000035
    13  H   -0.000000   0.000000   0.000000   0.000000   0.000000  -0.000028
    14  H    0.001913  -0.000278  -0.000106   0.007313   0.001817  -0.005042
    15  O   -0.030368   0.002389   0.001506  -0.000424   0.000023   0.000698
    16  H    0.081306  -0.006237  -0.003786   0.000283  -0.000055   0.000861
    17  O    0.000000   0.000000   0.000000   0.000000  -0.000000  -0.000005
    18  H   -0.000000   0.000000   0.000000  -0.000000  -0.000000  -0.000001
    19  O   -0.000001  -0.000001   0.000000   0.000000  -0.000000  -0.000013
    20  H    0.000012  -0.000003  -0.000001   0.000000  -0.000000  -0.000005
    21  O   -0.000000  -0.000000   0.000000   0.000000  -0.000000  -0.000000
    22  H    0.000000  -0.000000  -0.000000   0.000000  -0.000000  -0.000001
    23  O   -0.000000  -0.000029   0.000000  -0.001961   0.015251  -0.000186
    24  H   -0.000000  -0.000001   0.000000   0.000085  -0.000557   0.000031
    25  O    8.343259   0.202651   0.240658  -0.027690   0.001254   0.004621
    26  H    0.202651   0.316579  -0.014540   0.075276  -0.003497  -0.006369
    27  H    0.240658  -0.014540   0.377614   0.001155  -0.000027   0.000058
    28  O   -0.027690   0.075276   0.001155   8.329049   0.246148   0.214202
    29  H    0.001254  -0.003497  -0.000027   0.246148   0.352679  -0.025148
    30  H    0.004621  -0.006369   0.000058   0.214202  -0.025148   0.322597
 Mulliken charges:
               1
     1  O   -0.549478
     2  C    0.061554
     3  C    0.117037
     4  C    0.117938
     5  C    0.313344
     6  C    0.109313
     7  H    0.136338
     8  H    0.131303
     9  H    0.132658
    10  H    0.154197
    11  C   -0.070994
    12  H    0.148028
    13  H    0.187974
    14  H    0.124953
    15  O   -0.658375
    16  H    0.440801
    17  O   -0.621114
    18  H    0.397585
    19  O   -0.645409
    20  H    0.404555
    21  O   -0.639470
    22  H    0.411028
    23  O   -0.642168
    24  H    0.405222
    25  O   -0.820649
    26  H    0.432903
    27  H    0.397446
    28  O   -0.829299
    29  H    0.411171
    30  H    0.441606
 Sum of Mulliken charges =  -0.00000
 Mulliken charges with hydrogens summed into heavy atoms:
               1
     1  O   -0.549478
     2  C    0.194212
     3  C    0.271233
     4  C    0.254277
     5  C    0.438297
     6  C    0.240617
    11  C    0.265008
    15  O   -0.217573
    17  O   -0.223529
    19  O   -0.240855
    21  O   -0.228442
    23  O   -0.236946
    25  O    0.009701
    28  O    0.023479
 APT charges:
               1
     1  O   -0.421045
     2  C   -0.380589
     3  C   -0.201072
     4  C   -0.317122
     5  C   -0.142559
     6  C   -0.277316
     7  H    0.446508
     8  H    0.413419
     9  H    0.477107
    10  H    0.378110
    11  C   -0.585357
    12  H    0.479581
    13  H    0.300607
    14  H    0.272329
    15  O   -0.671158
    16  H    0.595020
    17  O   -0.867232
    18  H    0.754270
    19  O   -0.764654
    20  H    0.644536
    21  O   -0.732957
    22  H    0.635406
    23  O   -0.873117
    24  H    0.729477
    25  O   -1.117439
    26  H    0.264300
    27  H    0.900810
    28  O   -0.588223
    29  H    0.426289
    30  H    0.222071
 Sum of APT charges =  -0.00000
 APT charges with hydrogens summed into heavy atoms:
               1
     1  O   -0.421045
     2  C    0.096518
     3  C    0.177037
     4  C    0.129386
     5  C    0.129770
     6  C    0.136103
    11  C    0.194832
    15  O   -0.076138
    17  O   -0.112962
    19  O   -0.120118
    21  O   -0.097551
    23  O   -0.143640
    25  O    0.047671
    28  O    0.060137
 Electronic spatial extent (au):  <R**2>=           3091.9461
 Charge=             -0.0000 electrons
 Dipole moment (field-independent basis, Debye):
    X=             -1.1577    Y=             -3.4475    Z=              1.6442  Tot=              3.9911
 Quadrupole moment (field-independent basis, Debye-Ang):
   XX=            -83.8745   YY=            -87.0554   ZZ=            -77.6844
   XY=              7.3141   XZ=             -7.5907   YZ=              2.3003
 Traceless Quadrupole moment (field-independent basis, Debye-Ang):
   XX=             -1.0030   YY=             -4.1840   ZZ=              5.1871
   XY=              7.3141   XZ=             -7.5907   YZ=              2.3003
 Octapole moment (field-independent basis, Debye-Ang**2):
  XXX=             37.5893  YYY=            -27.4558  ZZZ=             26.7311  XYY=             -6.0605
  XXY=            -28.1756  XXZ=            -10.8217  XZZ=              5.5657  YZZ=             -1.2951
  YYZ=            -15.2542  XYZ=              3.5627
 Hexadecapole moment (field-independent basis, Debye-Ang**3):
 XXXX=          -1919.5367 YYYY=          -1062.9660 ZZZZ=           -446.1151 XXXY=            -41.1527
 XXXZ=           -182.8229 YYYX=            142.8160 YYYZ=            -12.4719 ZZZX=             -4.7191
 ZZZY=              7.7565 XXYY=           -486.9054 XXZZ=           -385.7855 YYZZ=           -260.9574
 XXYZ=             23.5201 YYXZ=             -8.7951 ZZXY=            -21.8279
 N-N= 1.118299361601D+03 E-N=-4.208873322501D+03  KE= 8.328778033399D+02
  Exact polarizability:   0.000   0.000   0.000   0.000   0.000   0.000
 Approx polarizability: 136.460   4.566 128.213  -3.381  -1.945 122.913
 Calling FoFJK, ICntrl=    100147 FMM=F ISym2X=0 I1Cent= 0 IOpClX= 0 NMat=1 NMatS=1 NMatT=0.
 -------------------------------------------------------------------
 Center     Atomic                   Forces (Hartrees/Bohr)
 Number     Number              X              Y              Z
 -------------------------------------------------------------------
      1        8           0.000006090    0.000006643   -0.000000940
      2        6          -0.000002695   -0.000010233   -0.000004420
      3        6          -0.000005781   -0.000004149    0.000008643
      4        6          -0.000004945   -0.000006050    0.000001452
      5        6           0.000006361    0.000003171   -0.000001002
      6        6           0.000000876    0.000000920   -0.000004315
      7        1          -0.000003178   -0.000004088   -0.000000564
      8        1           0.000002916   -0.000002679   -0.000003351
      9        1           0.000001445   -0.000002912   -0.000003838
     10        1          -0.000001356    0.000001592   -0.000000427
     11        6           0.000009322   -0.000000572   -0.000005442
     12        1           0.000003733    0.000001224   -0.000004879
     13        1           0.000002318    0.000001082   -0.000004959
     14        1          -0.000002184    0.000000524    0.000003024
     15        8          -0.000003546    0.000009014    0.000012201
     16        1          -0.000000623    0.000004300    0.000005179
     17        8           0.000006657   -0.000022968   -0.000012520
     18        1           0.000002554    0.000011750   -0.000010140
     19        8          -0.000010967    0.000002513    0.000013543
     20        1          -0.000000792    0.000001930    0.000003541
     21        8          -0.000001690   -0.000001039   -0.000005305
     22        1          -0.000004346   -0.000008528   -0.000000314
     23        8          -0.000006309   -0.000010582   -0.000009209
     24        1          -0.000003946   -0.000000512    0.000004257
     25        8           0.000005530    0.000008280    0.000007663
     26        1           0.000002128    0.000004693    0.000001209
     27        1          -0.000003469    0.000009881    0.000011307
     28        8           0.000001162    0.000006341   -0.000009871
     29        1          -0.000002217    0.000001438    0.000003933
     30        1           0.000006952   -0.000000982    0.000005546
 -------------------------------------------------------------------
 Cartesian Forces:  Max     0.000022968 RMS     0.000006155
 IRC-IRC-IRC-IRC-IRC-IRC-IRC-IRC-IRC-IRC-IRC-IRC-IRC-IRC-IRC-IRC-IRC-IRC
          ******** Start new reaction path calculation ********
 Supplied step size of   0.1000 bohr.
    Integration on MW PES will use step size of   0.1451 sqrt(amu)*bohr.
 Point Number:   0          Path Number:   1
 Calculating another point on the path.
 IRC-IRC-IRC-IRC-IRC-IRC-IRC-IRC-IRC-IRC-IRC-IRC-IRC-IRC-IRC-IRC-IRC-IRC
                          Input orientation:                          
 ---------------------------------------------------------------------
 Center     Atomic      Atomic             Coordinates (Angstroms)
 Number     Number       Type             X           Y           Z
 ---------------------------------------------------------------------
      1          8           0        0.458191   -0.734708   -0.740966
      2          6           0       -1.200806   -0.377391    1.046145
      3          6           0       -0.187072    1.593452   -0.219051
      4          6           0       -1.333157    1.120995    0.699369
      5          6           0        0.947892    0.574639   -0.312640
      6          6           0       -0.776882   -1.201715   -0.167606
      7          1           0       -1.268868    1.704297    1.632913
      8          1           0       -0.590239   -2.226547    0.186082
      9          1           0       -2.176467   -0.752611    1.388158
     10          1           0       -0.599424    1.728843   -1.229176
     11          6           0       -1.842595   -1.233485   -1.278519
     12          1           0       -1.513348   -1.926472   -2.064100
     13          1           0       -1.943727   -0.242449   -1.720563
     14          1           0        1.409863    0.450982    0.672433
     15          8           0        1.864120    1.022412   -1.240008
     16          1           0        2.746112    0.641373   -0.990063
     17          8           0       -3.138036   -1.571810   -0.782182
     18          1           0       -3.141334   -2.514898   -0.555119
     19          8           0        0.333823    2.811011    0.288181
     20          1           0        1.109055    3.009164   -0.265640
     21          8           0       -2.567072    1.390617    0.041362
     22          1           0       -3.216386    0.708488    0.281745
     23          8           0       -0.214612   -0.616062    2.057679
     24          1           0       -0.398027   -0.023594    2.804240
     25          8           0        4.074852   -0.235297   -0.249946
     26          1           0        3.602266   -0.961826    0.229910
     27          1           0        4.591458   -0.690639   -0.931767
     28          8           0        2.344151   -2.123551    0.734702
     29          1           0        1.900461   -1.847880    1.554442
     30          1           0        1.712009   -1.818991    0.045386
 ---------------------------------------------------------------------
                    Distance matrix (angstroms):
                    1          2          3          4          5
     1  O    0.000000
     2  C    2.464490   0.000000
     3  C    2.471657   2.551980   0.000000
     4  C    2.954171   1.543675   1.542797   0.000000
     5  C    1.462073   2.714693   1.528032   2.554574   0.000000
     6  C    1.439529   1.527223   2.857181   2.540880   2.480184
     7  H    3.816645   2.163875   2.147636   1.102669   3.158375
     8  H    2.045534   2.128820   3.862521   3.467193   3.234380
     9  H    3.387464   1.099854   3.470566   2.167026   3.796831
    10  H    2.725065   3.158317   1.099417   2.151076   2.136917
    11  C    2.414821   2.559072   3.443081   3.116913   3.462521
    12  H    2.656680   3.488689   4.189639   4.117801   3.921844
    13  H    2.640291   2.867893   2.951425   2.843914   3.318334
    14  H    2.075871   2.764318   2.156428   2.823792   1.095024
    15  O    2.305027   4.071820   2.361319   3.740786   1.378400
    16  H    2.681461   4.556554   3.178755   4.441244   1.922746
    17  O    3.692599   2.919294   4.363965   3.564237   4.639237
    18  H    4.019974   3.301307   5.071405   4.250054   5.130867
    19  O    3.694149   3.618771   1.418121   2.409160   2.395710
    20  H    3.829639   4.304067   1.919988   3.234319   2.440306
    21  O    3.779055   2.449924   2.402782   1.424155   3.625757
    22  H    4.078145   2.413712   3.195419   1.972593   4.208612
    23  O    2.880826   1.432741   3.172730   2.472553   2.896135
    24  H    3.715815   1.964823   3.435059   2.571971   3.447365
    25  O    3.683850   5.434392   4.637809   5.655731   3.230760
    26  H    3.298393   4.906863   4.592396   5.377447   3.114609
    27  H    4.137903   6.128668   5.344097   6.406534   3.906382
    28  O    2.768272   3.963936   4.597047   4.904174   3.213517
    29  H    2.930563   3.469663   4.398390   4.472321   3.203433
    30  H    1.834688   3.400620   3.914230   4.283018   2.538015
                    6          7          8          9         10
     6  C    0.000000
     7  H    3.453813   0.000000
     8  H    1.100096   4.243276   0.000000
     9  H    2.140312   2.630596   2.476609   0.000000
    10  H    3.121954   2.939441   4.200970   3.936383   0.000000
    11  C    1.539767   4.175663   2.167861   2.730179   3.212989
    12  H    2.159709   5.187500   2.450610   3.706179   3.859233
    13  H    2.166424   3.935868   3.066572   3.158889   2.436105
    14  H    2.866867   3.109489   3.377293   3.850021   3.047340
    15  O    3.615478   4.305143   4.314319   5.136566   2.562853
    16  H    4.060160   4.912217   4.554067   5.641889   3.525958
    17  O    2.467736   4.478767   2.803120   2.511190   4.187919
    18  H    2.732260   5.108348   2.672191   2.795165   4.992494
    19  O    4.188482   2.366800   5.122627   4.495654   2.084325
    20  H    4.614962   3.310845   5.523072   5.261240   2.342333
    21  O    3.157315   2.077682   4.124644   2.561221   2.366496
    22  H    3.130810   2.571015   3.939572   2.107223   3.189435
    23  O    2.368762   2.583786   2.497526   2.077446   4.055870
    24  H    3.219219   2.261853   3.427055   2.387385   4.402277
    25  O    4.947734   5.988534   5.091000   6.483055   5.163875
    26  H    4.403692   5.727528   4.379331   5.897378   5.198350
    27  H    5.446486   6.830573   5.518929   7.154768   5.734771
    28  O    3.377097   5.339767   2.987012   4.768907   5.230907
    29  H    3.248253   4.761173   2.866948   4.224762   5.175993
    30  H    2.573125   4.880515   2.342273   4.249759   4.422031
                   11         12         13         14         15
    11  C    0.000000
    12  H    1.098076   0.000000
    13  H    1.089855   1.771772   0.000000
    14  H    4.149956   4.656830   4.177780   0.000000
    15  O    4.339389   4.558765   4.041102   2.047025   0.000000
    16  H    4.965334   5.088259   4.827977   2.141426   0.992760
    17  O    1.427928   2.099693   2.018448   5.185651   5.653420
    18  H    1.962663   2.296434   2.820735   5.569266   6.167350
    19  O    4.852762   5.602590   4.306496   2.622070   2.806467
    20  H    5.266710   5.871282   4.691403   2.741307   2.338097
    21  O    3.025371   4.067725   2.481904   4.134874   4.627413
    22  H    2.844817   3.917440   2.556008   4.649852   5.312798
    23  O    3.763212   4.515856   4.171875   2.386715   4.228530
    24  H    4.496614   5.344682   4.786537   2.835188   4.750514
    25  O    6.088557   6.113854   6.195649   2.902401   2.729357
    26  H    5.656472   5.688808   5.922828   2.645465   3.019770
    27  H    6.466217   6.330727   6.597856   3.741564   3.235417
    28  O    4.730129   4.769951   5.287037   2.739523   3.745262
    29  H    4.734303   4.975351   5.299137   2.510656   4.006101
    30  H    3.838066   3.855438   4.355279   2.374291   3.122330
                   16         17         18         19         20
    16  H    0.000000
    17  O    6.290039   0.000000
    18  H    6.694269   0.970043   0.000000
    19  O    3.487173   5.692856   6.415074   0.000000
    20  H    2.968363   6.268167   6.976020   0.973122   0.000000
    21  O    5.463985   3.127331   3.992319   3.239388   4.028381
    22  H    6.096998   2.517506   3.331094   4.126091   4.929723
    23  O    4.431226   4.186248   4.358669   3.895733   4.504683
    24  H    4.972377   4.771483   5.001762   3.860200   4.570895
    25  O    1.755527   7.354951   7.573840   4.854367   4.395763
    26  H    2.188969   6.843105   6.964513   4.992035   4.714916
    27  H    2.276610   7.780996   7.953983   5.645996   5.124392
    28  O    3.283472   5.714869   5.648658   5.347027   5.373165
    29  H    3.658690   5.560799   5.505893   5.075730   5.246894
    30  H    2.862676   4.926347   4.939618   4.836865   4.875589
                   21         22         23         24         25
    21  O    0.000000
    22  H    0.971953   0.000000
    23  O    3.691391   3.730821   0.000000
    24  H    3.786588   3.852541   0.970574   0.000000
    25  O    6.844240   7.371267   4.885654   5.420288   0.000000
    26  H    6.605322   7.020445   4.246039   4.848691   0.990679
    27  H    7.518189   8.024499   5.660446   6.268784   0.969070
    28  O    6.078668   6.256611   3.251162   4.026456   2.744150
    29  H    5.721550   5.859770   2.498831   3.189524   3.253339
    30  H    5.349031   5.543743   3.034506   3.909857   2.859779
                   26         27         28         29         30
    26  H    0.000000
    27  H    1.549689   0.000000
    28  O    1.785293   3.143365   0.000000
    29  H    2.331441   3.842122   0.972023   0.000000
    30  H    2.083712   3.243336   0.983625   1.521053   0.000000
 Symmetry turned off by external request.
 Stoichiometry    C6H16O8
 Framework group  C1[X(C6H16O8)]
 Deg. of freedom    84
 Full point group                 C1      NOp   1
 Rotational constants (GHZ):      0.8185073      0.4811226      0.3919509
 Standard basis: 6-31G(d) (6D, 7F)
   242 basis functions,   456 primitive gaussians,   242 cartesian basis functions
    58 alpha electrons       58 beta electrons
       nuclear repulsion energy      1118.1282456580 Hartrees.
 NAtoms=   30 NActive=   30 NUniq=   30 SFac= 1.00D+00 NAtFMM=   60 NAOKFM=F Big=F
 Integral buffers will be    131072 words long.
 Raffenetti 2 integral format.
 Two-electron integral symmetry is turned off.
 One-electron integrals computed using PRISM.
 NBasis=   242 RedAO= T EigKep=  1.28D-03  NBF=   242
 NBsUse=   242 1.00D-06 EigRej= -1.00D+00 NBFU=   242
 Initial guess from the checkpoint file:  "/scratch/10502087.yak.local/Gau-20631.chk"
 B after Tr=     0.018099   -0.038494    0.008400
         Rot=    1.000000   -0.000055   -0.000033    0.000022 Ang=  -0.01 deg.
 ExpMin= 1.61D-01 ExpMax= 5.48D+03 ExpMxC= 8.25D+02 IAcc=1 IRadAn=         1 AccDes= 0.00D+00
 Harris functional with IExCor=  402 and IRadAn=       1 diagonalized for initial guess.
 HarFok:  IExCor=  402 AccDes= 0.00D+00 IRadAn=         1 IDoV= 1 UseB2=F ITyADJ=14
 ICtDFT=  3500011 ScaDFX=  1.000000  1.000000  1.000000  1.000000
 FoFCou: FMM=F IPFlag=           0 FMFlag=      100000 FMFlg1=           0
         NFxFlg=           0 DoJE=T BraDBF=F KetDBF=T FulRan=T
         wScrn=  0.000000 ICntrl=     500 IOpCl=  0 I1Cent=   200000004 NGrid=           0
         NMat0=    1 NMatS0=      1 NMatT0=    0 NMatD0=    1 NMtDS0=    0 NMtDT0=    0
 Symmetry not used in FoFCou.
 Requested convergence on RMS density matrix=1.00D-08 within 128 cycles.
 Requested convergence on MAX density matrix=1.00D-06.
 Requested convergence on             energy=1.00D-06.
 No special actions if energy rises.
 Integral accuracy reduced to 1.0D-05 until final iterations.
 Initial convergence to 1.0D-05 achieved.  Increase integral accuracy.
 SCF Done:  E(RB3LYP) =  -839.992006262     A.U. after   10 cycles
            NFock= 10  Conv=0.46D-08     -V/T= 2.0085
 DoSCS=F DFT=T ScalE2(SS,OS)=  1.000000  1.000000
 Range of M.O.s used for correlation:     1   242
 NBasis=   242 NAE=    58 NBE=    58 NFC=     0 NFV=     0
 NROrb=    242 NOA=    58 NOB=    58 NVA=   184 NVB=   184
 Symmetrizing basis deriv contribution to polar:
 IMax=3 JMax=2 DiffMx= 0.00D+00
 Calling FoFJK, ICntrl=      2147 FMM=F ISym2X=0 I1Cent= 0 IOpClX= 0 NMat=1 NMatS=1 NMatT=0.
 -------------------------------------------------------------------
 Center     Atomic                   Forces (Hartrees/Bohr)
 Number     Number              X              Y              Z
 -------------------------------------------------------------------
      1        8          -0.000010933    0.000024775   -0.000014377
      2        6          -0.000021644    0.000001681   -0.000003839
      3        6           0.000012462    0.000000087    0.000022554
      4        6           0.000029210    0.000015632   -0.000003589
      5        6           0.000005806    0.000009880    0.000000895
      6        6          -0.000010252    0.000013634   -0.000007983
      7        1          -0.000008612   -0.000001753   -0.000006778
      8        1           0.000001762   -0.000001342   -0.000005494
      9        1           0.000000548    0.000004396   -0.000008405
     10        1          -0.000001386    0.000003028   -0.000002063
     11        6          -0.000016117    0.000001818   -0.000021335
     12        1          -0.000009124    0.000023550    0.000008474
     13        1          -0.000006502   -0.000027390    0.000006300
     14        1          -0.000002962   -0.000000297    0.000002840
     15        8           0.000000686    0.000016317    0.000020993
     16        1          -0.000000738    0.000004694    0.000005230
     17        8           0.000052000   -0.000257286   -0.000007958
     18        1           0.000009959    0.000088799   -0.000036550
     19        8           0.000009263    0.000015655    0.000018961
     20        1           0.000000474    0.000002194    0.000003822
     21        8          -0.000604423   -0.000661878    0.000239475
     22        1           0.000609874    0.000722064   -0.000216577
     23        8          -0.000023407   -0.000024131   -0.000006166
     24        1          -0.000005085   -0.000002112    0.000003306
     25        8           0.000003949    0.000004543    0.000009652
     26        1           0.000001560    0.000004691    0.000001103
     27        1          -0.000003982    0.000009657    0.000011337
     28        8          -0.000014744    0.000008615   -0.000021959
     29        1          -0.000003855    0.000001297    0.000003064
     30        1           0.000006211   -0.000000819    0.000005068
 -------------------------------------------------------------------
 Cartesian Forces:  Max     0.000722064 RMS     0.000144892
 IRC-IRC-IRC-IRC-IRC-IRC-IRC-IRC-IRC-IRC-IRC-IRC-IRC-IRC-IRC-IRC-IRC-IRC
 Pt  1 Step number   1 out of a maximum of  20
 Modified Bulirsch-Stoer Extrapolation Cycles:
    EPS =    0.000010000000000
 Maximum DWI energy   std dev =  0.000000543 at pt     2
 Maximum DWI gradient std dev =  1.816788833 at pt     6
 CORRECTOR INTEGRATION CONVERGENCE:
   Recorrection delta-x convergence threshold:    0.010000
   Delta-x Convergence NOT Met
 IRC-IRC-IRC-IRC-IRC-IRC-IRC-IRC-IRC-IRC-IRC-IRC-IRC-IRC-IRC-IRC-IRC-IRC
                          Input orientation:                          
 ---------------------------------------------------------------------
 Center     Atomic      Atomic             Coordinates (Angstroms)
 Number     Number       Type             X           Y           Z
 ---------------------------------------------------------------------
      1          8           0        0.458407   -0.734528   -0.741024
      2          6           0       -1.200953   -0.377698    1.045901
      3          6           0       -0.187280    1.593436   -0.218895
      4          6           0       -1.333367    1.120751    0.699444
      5          6           0        0.947867    0.574831   -0.312451
      6          6           0       -0.776681   -1.201761   -0.167929
      7          1           0       -1.268941    1.703823    1.633086
      8          1           0       -0.589986   -2.226639    0.185599
      9          1           0       -2.176646   -0.753042    1.387641
     10          1           0       -0.599570    1.728885   -1.229045
     11          6           0       -1.842134   -1.233506   -1.279077
     12          1           0       -1.512587   -1.926162   -2.064777
     13          1           0       -1.943387   -0.242440   -1.720980
     14          1           0        1.409673    0.451103    0.672695
     15          8           0        1.864176    1.022816   -1.239619
     16          1           0        2.746192    0.641929   -0.989533
     17          8           0       -3.137587   -1.572206   -0.783144
     18          1           0       -3.140729   -2.515215   -0.556178
     19          8           0        0.333383    2.811031    0.288519
     20          1           0        1.108680    3.009355   -0.265148
     21          8           0       -2.567625    1.390641    0.042188
     22          1           0       -3.215409    0.707572    0.279439
     23          8           0       -0.214880   -0.616476    2.057533
     24          1           0       -0.398809   -0.024559    2.804408
     25          8           0        4.074920   -0.234713   -0.249405
     26          1           0        3.602396   -0.961389    0.230276
     27          1           0        4.591830   -0.689832   -0.931121
     28          8           0        2.344298   -2.123349    0.734696
     29          1           0        1.900398   -1.847847    1.554385
     30          1           0        1.712279   -1.818751    0.045299
 ---------------------------------------------------------------------
                    Distance matrix (angstroms):
                    1          2          3          4          5
     1  O    0.000000
     2  C    2.464529   0.000000
     3  C    2.471629   2.551982   0.000000
     4  C    2.954228   1.543670   1.542820   0.000000
     5  C    1.462077   2.714749   1.528027   2.554601   0.000000
     6  C    1.439509   1.527242   2.857117   2.540925   2.480167
     7  H    3.816502   2.163825   2.147559   1.102638   3.158160
     8  H    2.045520   2.128845   3.862481   3.467228   3.234390
     9  H    3.387486   1.099839   3.470518   2.166988   3.796859
    10  H    2.725048   3.158280   1.099424   2.151128   2.136948
    11  C    2.414740   2.559110   3.442983   3.117036   3.462449
    12  H    2.656526   3.488720   4.189426   4.117853   3.921664
    13  H    2.640281   2.867950   2.951375   2.844093   3.318319
    14  H    2.075868   2.764337   2.156412   2.823723   1.095027
    15  O    2.305004   4.071862   2.361346   3.740834   1.378389
    16  H    2.681483   4.556598   3.178759   4.441252   1.922737
    17  O    3.692513   2.919384   4.363941   3.564449   4.639208
    18  H    4.019800   3.301267   5.071256   4.250105   5.130732
    19  O    3.694128   3.618814   1.418131   2.409142   2.395693
    20  H    3.829618   4.304113   1.920020   3.234325   2.440288
    21  O    3.779766   2.449950   2.403192   1.424155   3.626293
    22  H    4.076508   2.413153   3.194160   1.972106   4.207234
    23  O    2.880828   1.432744   3.172790   2.472525   2.896207
    24  H    3.716041   1.964813   3.435551   2.572160   3.447841
    25  O    3.683839   5.434436   4.637824   5.655720   3.230758
    26  H    3.298418   4.906945   4.592443   5.377470   3.114651
    27  H    4.138034   6.128816   5.344200   6.406631   3.906481
    28  O    2.768241   3.963956   4.597033   4.904146   3.213520
    29  H    2.930481   3.469621   4.398334   4.472218   3.203398
    30  H    1.834677   3.400700   3.914223   4.283053   2.538020
                    6          7          8          9         10
     6  C    0.000000
     7  H    3.453751   0.000000
     8  H    1.100096   4.243198   0.000000
     9  H    2.140339   2.630657   2.476667   0.000000
    10  H    3.121862   2.939469   4.200890   3.936264   0.000000
    11  C    1.539756   4.175781   2.167824   2.730225   3.212823
    12  H    2.159710   5.187518   2.450647   3.706261   3.858940
    13  H    2.166442   3.936061   3.066559   3.158900   2.435974
    14  H    2.866836   3.109120   3.377306   3.850038   3.047359
    15  O    3.615438   4.304954   4.314292   5.136576   2.562946
    16  H    4.060155   4.911929   4.554086   5.641918   3.526041
    17  O    2.467711   4.479104   2.803037   2.511323   4.187787
    18  H    2.732146   5.108498   2.672041   2.795200   4.992256
    19  O    4.188447   2.366689   5.122628   4.495658   2.084332
    20  H    4.614925   3.310708   5.523067   5.261246   2.342396
    21  O    3.157876   2.077406   4.125086   2.560954   2.367210
    22  H    3.129391   2.571695   3.938432   2.107257   3.187666
    23  O    2.368725   2.583600   2.497492   2.077482   4.055896
    24  H    3.219220   2.261952   3.426932   2.387178   4.402682
    25  O    4.947711   5.988200   5.091006   6.483106   5.163939
    26  H    4.403710   5.727230   4.379374   5.897477   5.198434
    27  H    5.446599   6.830328   5.519063   7.154923   5.734945
    28  O    3.377064   5.339461   2.987004   4.768963   5.230903
    29  H    3.248160   4.760805   2.866892   4.224771   5.175938
    30  H    2.573143   4.880294   2.342324   4.249865   4.422027
                   11         12         13         14         15
    11  C    0.000000
    12  H    1.098042   0.000000
    13  H    1.089836   1.771639   0.000000
    14  H    4.149887   4.656687   4.177762   0.000000
    15  O    4.339272   4.558496   4.041055   2.047041   0.000000
    16  H    4.965262   5.088068   4.827969   2.141425   0.992759
    17  O    1.427889   2.099641   2.018397   5.185635   5.653331
    18  H    1.962578   2.296454   2.820620   5.569140   6.167158
    19  O    4.852681   5.602375   4.306444   2.622071   2.806465
    20  H    5.266614   5.871034   4.691347   2.741314   2.338099
    21  O    3.026256   4.068610   2.483021   4.135114   4.628087
    22  H    2.842999   3.915546   2.553868   4.648850   5.311224
    23  O    3.763196   4.515834   4.171906   2.386770   4.228589
    24  H    4.496620   5.344675   4.786683   2.835676   4.751026
    25  O    6.088459   6.113657   6.195613   2.902439   2.729339
    26  H    5.656421   5.688683   5.922838   2.645544   3.019780
    27  H    6.466262   6.330687   6.597962   3.741669   3.235496
    28  O    4.730043   4.769852   5.287004   2.739557   3.745236
    29  H    4.734180   4.975232   5.299060   2.510649   4.006055
    30  H    3.838012   3.855349   4.355272   2.374328   3.122274
                   16         17         18         19         20
    16  H    0.000000
    17  O    6.289980   0.000000
    18  H    6.694117   0.969943   0.000000
    19  O    3.487129   5.692879   6.414972   0.000000
    20  H    2.968314   6.268158   6.975891   0.973121   0.000000
    21  O    5.464583   3.128018   3.992769   3.239450   4.028636
    22  H    6.095514   2.516451   3.330193   4.125355   4.928745
    23  O    4.431269   4.186297   4.358588   3.895871   4.504810
    24  H    4.972849   4.771440   5.001503   3.860877   4.571578
    25  O    1.755508   7.354864   7.573664   4.854381   4.395772
    26  H    2.188984   6.843062   6.964383   4.992093   4.714964
    27  H    2.276704   7.781026   7.953935   5.646055   5.124436
    28  O    3.283481   5.714775   5.648490   5.347052   5.373183
    29  H    3.658671   5.560693   5.505708   5.075736   5.246897
    30  H    2.862656   4.926287   4.939487   4.836879   4.875584
                   21         22         23         24         25
    21  O    0.000000
    22  H    0.970822   0.000000
    23  O    3.691279   3.730669   0.000000
    24  H    3.786345   3.852884   0.970576   0.000000
    25  O    6.844721   7.369971   4.885702   5.420718   0.000000
    26  H    6.605800   7.019282   4.246108   4.849067   0.990671
    27  H    7.518876   8.023165   5.660556   6.269230   0.969055
    28  O    6.079036   6.255534   3.251147   4.026570   2.744167
    29  H    5.721693   5.858936   2.498766   3.189559   3.253368
    30  H    5.349559   5.542494   3.034550   3.910051   2.859737
                   26         27         28         29         30
    26  H    0.000000
    27  H    1.549699   0.000000
    28  O    1.785330   3.143457   0.000000
    29  H    2.331495   3.842206   0.972029   0.000000
    30  H    2.083706   3.243404   0.983613   1.521044   0.000000
 Symmetry turned off by external request.
 Stoichiometry    C6H16O8
 Framework group  C1[X(C6H16O8)]
 Deg. of freedom    84
 Full point group                 C1      NOp   1
 Rotational constants (GHZ):      0.8184639      0.4811152      0.3919441
 Standard basis: 6-31G(d) (6D, 7F)
   242 basis functions,   456 primitive gaussians,   242 cartesian basis functions
    58 alpha electrons       58 beta electrons
       nuclear repulsion energy      1118.1252536467 Hartrees.
 NAtoms=   30 NActive=   30 NUniq=   30 SFac= 1.00D+00 NAtFMM=   60 NAOKFM=F Big=F
 Integral buffers will be    131072 words long.
 Raffenetti 2 integral format.
 Two-electron integral symmetry is turned off.
 One-electron integrals computed using PRISM.
 NBasis=   242 RedAO= T EigKep=  1.28D-03  NBF=   242
 NBsUse=   242 1.00D-06 EigRej= -1.00D+00 NBFU=   242
 Initial guess from the checkpoint file:  "/scratch/10502087.yak.local/Gau-20631.chk"
 B after Tr=    -0.000007    0.000027    0.000010
         Rot=    1.000000   -0.000097    0.000070   -0.000067 Ang=  -0.02 deg.
 ExpMin= 1.61D-01 ExpMax= 5.48D+03 ExpMxC= 8.25D+02 IAcc=1 IRadAn=         1 AccDes= 0.00D+00
 Harris functional with IExCor=  402 and IRadAn=       1 diagonalized for initial guess.
 HarFok:  IExCor=  402 AccDes= 0.00D+00 IRadAn=         1 IDoV= 1 UseB2=F ITyADJ=14
 ICtDFT=  3500011 ScaDFX=  1.000000  1.000000  1.000000  1.000000
 FoFCou: FMM=F IPFlag=           0 FMFlag=      100000 FMFlg1=           0
         NFxFlg=           0 DoJE=T BraDBF=F KetDBF=T FulRan=T
         wScrn=  0.000000 ICntrl=     500 IOpCl=  0 I1Cent=   200000004 NGrid=           0
         NMat0=    1 NMatS0=      1 NMatT0=    0 NMatD0=    1 NMtDS0=    0 NMtDT0=    0
 Symmetry not used in FoFCou.
 Requested convergence on RMS density matrix=1.00D-08 within 128 cycles.
 Requested convergence on MAX density matrix=1.00D-06.
 Requested convergence on             energy=1.00D-06.
 No special actions if energy rises.
 Integral accuracy reduced to 1.0D-05 until final iterations.
 Initial convergence to 1.0D-05 achieved.  Increase integral accuracy.
 SCF Done:  E(RB3LYP) =  -839.992007269     A.U. after    9 cycles
            NFock=  9  Conv=0.35D-08     -V/T= 2.0085
 DoSCS=F DFT=T ScalE2(SS,OS)=  1.000000  1.000000
 Range of M.O.s used for correlation:     1   242
 NBasis=   242 NAE=    58 NBE=    58 NFC=     0 NFV=     0
 NROrb=    242 NOA=    58 NOB=    58 NVA=   184 NVB=   184
 Symmetrizing basis deriv contribution to polar:
 IMax=3 JMax=2 DiffMx= 0.00D+00
 Calling FoFJK, ICntrl=      2147 FMM=F ISym2X=0 I1Cent= 0 IOpClX= 0 NMat=1 NMatS=1 NMatT=0.
 -------------------------------------------------------------------
 Center     Atomic                   Forces (Hartrees/Bohr)
 Number     Number              X              Y              Z
 -------------------------------------------------------------------
      1        8          -0.000007180    0.000023803   -0.000012489
      2        6          -0.000011223   -0.000000943   -0.000012032
      3        6           0.000000043    0.000011713    0.000013167
      4        6           0.000003940    0.000007972    0.000016460
      5        6          -0.000002487    0.000006872    0.000008235
      6        6          -0.000007384    0.000009928   -0.000016085
      7        1           0.000001337   -0.000001691    0.000002296
      8        1           0.000000265    0.000000183   -0.000001894
      9        1          -0.000000710   -0.000001472   -0.000002165
     10        1          -0.000000369    0.000000490    0.000001248
     11        6          -0.000011225    0.000009703   -0.000014189
     12        1           0.000001359    0.000006408   -0.000001042
     13        1          -0.000003904   -0.000001008    0.000003339
     14        1          -0.000000560    0.000000046    0.000000783
     15        8           0.000003389    0.000021955    0.000022488
     16        1           0.000000209    0.000001607    0.000001711
     17        8           0.000032833   -0.000162629   -0.000022406
     18        1           0.000005650   -0.000001221   -0.000010699
     19        8           0.000004994    0.000013081    0.000017713
     20        1          -0.000000356    0.000000506    0.000001541
     21        8           0.000111561    0.000090825   -0.000071208
     22        1          -0.000075798   -0.000036533    0.000067673
     23        8          -0.000031605   -0.000024961   -0.000004429
     24        1          -0.000002603   -0.000002712    0.000000509
     25        8          -0.000000103    0.000016420    0.000021534
     26        1           0.000000077    0.000001180    0.000000964
     27        1           0.000000859    0.000002111    0.000001743
     28        8          -0.000010682    0.000007836   -0.000011520
     29        1          -0.000000615   -0.000000199   -0.000000682
     30        1           0.000000288    0.000000732   -0.000000565
 -------------------------------------------------------------------
 Cartesian Forces:  Max     0.000162629 RMS     0.000028399
 IRC-IRC-IRC-IRC-IRC-IRC-IRC-IRC-IRC-IRC-IRC-IRC-IRC-IRC-IRC-IRC-IRC-IRC
 Error in corrector energy =          -0.0000001955
 Magnitude of corrector gradient =     0.0001983212
 Magnitude of analytic gradient =      0.0002694154
 Magnitude of difference =             0.0001440222
 Angle between gradients (degrees)=   31.4393
 Pt  1 Step number   2 out of a maximum of  20
 Modified Bulirsch-Stoer Extrapolation Cycles:
    EPS =    0.000010000000000
 Maximum DWI energy   std dev =  0.000000193 at pt     2
 Maximum DWI gradient std dev =  1.794225409 at pt     4
 CORRECTOR INTEGRATION CONVERGENCE:
   Recorrection delta-x convergence threshold:    0.010000
   Delta-x Convergence NOT Met
 IRC-IRC-IRC-IRC-IRC-IRC-IRC-IRC-IRC-IRC-IRC-IRC-IRC-IRC-IRC-IRC-IRC-IRC
                          Input orientation:                          
 ---------------------------------------------------------------------
 Center     Atomic      Atomic             Coordinates (Angstroms)
 Number     Number       Type             X           Y           Z
 ---------------------------------------------------------------------
      1          8           0        0.458483   -0.734599   -0.740964
      2          6           0       -1.200902   -0.377825    1.045914
      3          6           0       -0.187358    1.593362   -0.218889
      4          6           0       -1.333428    1.120603    0.699379
      5          6           0        0.947839    0.574795   -0.312441
      6          6           0       -0.776625   -1.201879   -0.167898
      7          1           0       -1.269249    1.703744    1.633018
      8          1           0       -0.589859   -2.226742    0.185632
      9          1           0       -2.176552   -0.753272    1.387672
     10          1           0       -0.599640    1.728788   -1.229046
     11          6           0       -1.842097   -1.233627   -1.279052
     12          1           0       -1.512798   -1.926714   -2.064469
     13          1           0       -1.942938   -0.242692   -1.721277
     14          1           0        1.409663    0.451146    0.672707
     15          8           0        1.864118    1.022836   -1.239622
     16          1           0        2.746152    0.641996   -0.989534
     17          8           0       -3.137678   -1.571678   -0.783062
     18          1           0       -3.141246   -2.514676   -0.556131
     19          8           0        0.333231    2.810982    0.288532
     20          1           0        1.108507    3.009354   -0.265145
     21          8           0       -2.567371    1.390157    0.041461
     22          1           0       -3.216533    0.709260    0.282227
     23          8           0       -0.214787   -0.616461    2.057549
     24          1           0       -0.398654   -0.024413    2.804335
     25          8           0        4.074931   -0.234603   -0.249371
     26          1           0        3.602446   -0.961306    0.230308
     27          1           0        4.591896   -0.689689   -0.931067
     28          8           0        2.344428   -2.123320    0.734772
     29          1           0        1.900559   -1.847810    1.554475
     30          1           0        1.712374   -1.818738    0.045397
 ---------------------------------------------------------------------
                    Distance matrix (angstroms):
                    1          2          3          4          5
     1  O    0.000000
     2  C    2.464504   0.000000
     3  C    2.471654   2.551975   0.000000
     4  C    2.954202   1.543676   1.542788   0.000000
     5  C    1.462058   2.714719   1.528039   2.554577   0.000000
     6  C    1.439530   1.527224   2.857133   2.540890   2.480169
     7  H    3.816591   2.163861   2.147611   1.102657   3.158292
     8  H    2.045505   2.128838   3.862491   3.467211   3.234377
     9  H    3.387454   1.099842   3.470536   2.167028   3.796835
    10  H    2.725092   3.158288   1.099424   2.151083   2.136951
    11  C    2.414795   2.559100   3.442960   3.116943   3.462437
    12  H    2.656831   3.488670   4.189736   4.117909   3.921974
    13  H    2.640040   2.868140   2.951325   2.844232   3.318086
    14  H    2.075861   2.764330   2.156404   2.823726   1.095028
    15  O    2.305005   4.071839   2.361344   3.740800   1.378395
    16  H    2.681461   4.556568   3.178753   4.441223   1.922733
    17  O    3.692539   2.919168   4.363503   3.563892   4.638995
    18  H    4.020061   3.301154   5.071012   4.249678   5.130773
    19  O    3.694143   3.618796   1.418129   2.409135   2.395713
    20  H    3.829637   4.304094   1.920010   3.234305   2.440313
    21  O    3.779228   2.449883   2.402818   1.424125   3.625846
    22  H    4.078896   2.414072   3.195099   1.972132   4.208765
    23  O    2.880785   1.432751   3.172734   2.472524   2.896142
    24  H    3.715938   1.964827   3.435365   2.572101   3.447664
    25  O    3.683796   5.434398   4.637833   5.655710   3.230760
    26  H    3.298373   4.906914   4.592463   5.377474   3.114662
    27  H    4.138027   6.128803   5.344230   6.406636   3.906504
    28  O    2.768236   3.963953   4.597079   4.904173   3.213555
    29  H    2.930505   3.469660   4.398395   4.472285   3.203445
    30  H    1.834656   3.400653   3.914237   4.283028   2.538023
                    6          7          8          9         10
     6  C    0.000000
     7  H    3.453784   0.000000
     8  H    1.100095   4.243256   0.000000
     9  H    2.140290   2.630651   2.476612   0.000000
    10  H    3.121886   2.939458   4.200908   3.936304   0.000000
    11  C    1.539774   4.175698   2.167873   2.730204   3.212804
    12  H    2.159704   5.187577   2.450467   3.706050   3.859338
    13  H    2.166406   3.936212   3.066526   3.159245   2.435872
    14  H    2.866873   3.109303   3.377338   3.850030   3.047348
    15  O    3.615449   4.305076   4.314291   5.136559   2.562924
    16  H    4.060162   4.912080   4.554080   5.641887   3.526018
    17  O    2.467742   4.478489   2.803366   2.511103   4.187316
    18  H    2.732324   5.108015   2.672582   2.794914   4.991950
    19  O    4.188456   2.366761   5.122631   4.495667   2.084331
    20  H    4.614939   3.310794   5.523074   5.261251   2.342374
    21  O    3.157413   2.077621   4.124718   2.561115   2.366606
    22  H    3.131808   2.570126   3.940668   2.107740   3.189281
    23  O    2.368752   2.583693   2.497550   2.077493   4.055862
    24  H    3.219232   2.261957   3.427013   2.387277   4.402531
    25  O    4.947712   5.988392   5.090983   6.483052   5.163940
    26  H    4.403714   5.727434   4.379354   5.897422   5.198446
    27  H    5.446631   6.830525   5.519070   7.154892   5.734969
    28  O    3.377104   5.339656   2.987020   4.768917   5.230952
    29  H    3.248246   4.761028   2.866967   4.224768   5.176006
    30  H    2.573154   4.880420   2.342308   4.249784   4.422053
                   11         12         13         14         15
    11  C    0.000000
    12  H    1.098038   0.000000
    13  H    1.089810   1.771647   0.000000
    14  H    4.149911   4.656944   4.177619   0.000000
    15  O    4.339264   4.558923   4.040696   2.047037   0.000000
    16  H    4.965261   5.088459   4.827596   2.141418   0.992757
    17  O    1.427870   2.099592   2.018379   5.185497   5.653133
    18  H    1.962521   2.296220   2.820536   5.569283   6.167238
    19  O    4.852653   5.602696   4.306414   2.622045   2.806480
    20  H    5.266589   5.871420   4.691208   2.741294   2.338120
    21  O    3.025561   4.068009   2.482611   4.134853   4.627547
    22  H    2.846310   3.918936   2.557790   4.649816   5.312944
[...]
 Alpha  occ. eigenvalues --  -10.25600 -10.24881 -10.24243 -10.23335  -1.07084
 Alpha  occ. eigenvalues --   -1.04740  -1.03782  -1.02854  -1.01596  -1.01151
 Alpha  occ. eigenvalues --   -1.00386  -0.99159  -0.78971  -0.76541  -0.69612
 Alpha  occ. eigenvalues --   -0.66044  -0.63133  -0.56494  -0.55719  -0.54144
 Alpha  occ. eigenvalues --   -0.53483  -0.52946  -0.52380  -0.51755  -0.51033
 Alpha  occ. eigenvalues --   -0.48172  -0.46992  -0.44137  -0.43230  -0.42413
 Alpha  occ. eigenvalues --   -0.41849  -0.40962  -0.39968  -0.39221  -0.38799
 Alpha  occ. eigenvalues --   -0.37209  -0.35693  -0.35159  -0.33694  -0.32444
 Alpha  occ. eigenvalues --   -0.31209  -0.30751  -0.29869  -0.29489  -0.29025
 Alpha  occ. eigenvalues --   -0.27783  -0.27157  -0.25196
 Alpha virt. eigenvalues --    0.03661   0.04752   0.06533   0.08100   0.09512
 Alpha virt. eigenvalues --    0.10634   0.11360   0.11602   0.12291   0.14107
 Alpha virt. eigenvalues --    0.14886   0.16641   0.17600   0.18346   0.19741
 Alpha virt. eigenvalues --    0.20116   0.20921   0.21020   0.22796   0.23929
 Alpha virt. eigenvalues --    0.24336   0.24780   0.25590   0.28426   0.30257
 Alpha virt. eigenvalues --    0.30976   0.32647   0.34552   0.52740   0.53007
 Alpha virt. eigenvalues --    0.53892   0.55521   0.56571   0.58079   0.58733
 Alpha virt. eigenvalues --    0.59968   0.62506   0.63395   0.64927   0.66640
 Alpha virt. eigenvalues --    0.69436   0.69934   0.72136   0.72719   0.73469
 Alpha virt. eigenvalues --    0.75905   0.77706   0.79357   0.80520   0.80992
 Alpha virt. eigenvalues --    0.81524   0.82902   0.84159   0.84737   0.85732
 Alpha virt. eigenvalues --    0.86134   0.87088   0.87597   0.88323   0.89152
 Alpha virt. eigenvalues --    0.90602   0.92109   0.93189   0.94214   0.96150
 Alpha virt. eigenvalues --    0.96542   0.98734   0.99521   1.01127   1.02756
 Alpha virt. eigenvalues --    1.04355   1.04758   1.06162   1.07373   1.08253
 Alpha virt. eigenvalues --    1.10002   1.10887   1.11656   1.12679   1.15574
 Alpha virt. eigenvalues --    1.17859   1.20078   1.22634   1.24080   1.26004
 Alpha virt. eigenvalues --    1.28277   1.29568   1.32359   1.33017   1.36333
 Alpha virt. eigenvalues --    1.38219   1.40528   1.44005   1.44427   1.47207
 Alpha virt. eigenvalues --    1.51292   1.54551   1.55814   1.56720   1.59754
 Alpha virt. eigenvalues --    1.61685   1.63385   1.63676   1.67772   1.68677
 Alpha virt. eigenvalues --    1.69840   1.72000   1.72890   1.73370   1.74755
 Alpha virt. eigenvalues --    1.76100   1.76407   1.77334   1.79882   1.80367
 Alpha virt. eigenvalues --    1.81755   1.82334   1.83306   1.85299   1.87973
 Alpha virt. eigenvalues --    1.89272   1.89710   1.92925   1.95632   1.96535
 Alpha virt. eigenvalues --    1.97741   1.98730   2.02162   2.05003   2.05774
 Alpha virt. eigenvalues --    2.07547   2.08877   2.11894   2.14480   2.16885
 Alpha virt. eigenvalues --    2.19404   2.22337   2.25158   2.27412   2.28642
 Alpha virt. eigenvalues --    2.30361   2.32676   2.34799   2.35728   2.38103
 Alpha virt. eigenvalues --    2.41747   2.44658   2.45890   2.47714   2.50752
 Alpha virt. eigenvalues --    2.53041   2.53497   2.54453   2.57726   2.59369
 Alpha virt. eigenvalues --    2.62219   2.63125   2.65568   2.67784   2.69014
 Alpha virt. eigenvalues --    2.73542   2.75309   2.80387   2.87660   2.88173
 Alpha virt. eigenvalues --    2.93183   2.98614   3.01726   3.07929   3.09391
 Alpha virt. eigenvalues --    3.72885   3.74387   3.78840   3.84614   3.85742
 Alpha virt. eigenvalues --    3.93982   4.02097   4.17405   4.27713   4.34110
 Alpha virt. eigenvalues --    4.46369   4.52814   4.71526   4.84308
          Condensed to atoms (all electrons):
               1          2          3          4          5          6
     1  O    8.442634  -0.028567  -0.029050  -0.005401   0.130941   0.166381
     2  C   -0.028567   5.063012  -0.021354   0.301382  -0.006904   0.306561
     3  C   -0.029050  -0.021354   4.998450   0.292513   0.303386  -0.013715
     4  C   -0.005401   0.301382   0.292513   4.979303  -0.034075  -0.020880
     5  C    0.130941  -0.006904   0.303386  -0.034075   4.791504  -0.020821
     6  C    0.166381   0.306561  -0.013715  -0.020880  -0.020821   5.004414
     7  H   -0.000048  -0.055842  -0.053345   0.354595   0.002788   0.004956
     8  H   -0.041982  -0.048075  -0.000307   0.005621   0.001592   0.354725
     9  H    0.002906   0.355985   0.005437  -0.055368   0.000764  -0.044949
    10  H    0.001434   0.000649   0.343614  -0.051576  -0.040272   0.001958
    11  C   -0.034106  -0.048568  -0.001719  -0.001634   0.000634   0.323344
    12  H    0.004578   0.006551  -0.000093  -0.000362  -0.000207  -0.047158
    13  H    0.002683  -0.010248  -0.002267   0.002396   0.000821  -0.037518
    14  H   -0.054159  -0.000743  -0.056925  -0.005020   0.350132  -0.002780
    15  O   -0.052331  -0.000208  -0.042915   0.003045   0.264167   0.003423
    16  H    0.002082   0.000067   0.005263  -0.000169  -0.020354  -0.000269
    17  O    0.001490  -0.003107   0.000095  -0.001849  -0.000029  -0.042271
    18  H    0.000005  -0.001250   0.000001   0.000124   0.000002  -0.002214
    19  O    0.001484   0.001527   0.226406  -0.034923  -0.032808   0.000178
    20  H    0.000416  -0.000256  -0.034012   0.007426  -0.007743  -0.000049
    21  O   -0.000004  -0.022401  -0.043980   0.218262   0.002778  -0.004115
    22  H    0.000070  -0.003977   0.006428  -0.034607  -0.000353  -0.001540
    23  O    0.001873   0.181603   0.000826  -0.033166  -0.004801  -0.044100
    24  H   -0.000096  -0.027964  -0.000841  -0.002232   0.000021   0.006696
    25  O   -0.000407   0.000002   0.000074   0.000000   0.003364  -0.000004
    26  H    0.000135   0.000026   0.000072  -0.000004   0.001021  -0.000064
    27  H    0.000003  -0.000000   0.000001  -0.000000   0.000021  -0.000000
    28  O   -0.022898  -0.000773   0.000133  -0.000003   0.003091   0.001909
    29  H    0.000929  -0.001197   0.000001   0.000066  -0.000018   0.000386
    30  H    0.058485   0.000798   0.000853  -0.000057  -0.002133  -0.001561
               7          8          9         10         11         12
     1  O   -0.000048  -0.041982   0.002906   0.001434  -0.034106   0.004578
     2  C   -0.055842  -0.048075   0.355985   0.000649  -0.048568   0.006551
     3  C   -0.053345  -0.000307   0.005437   0.343614  -0.001719  -0.000093
     4  C    0.354595   0.005621  -0.055368  -0.051576  -0.001634  -0.000362
     5  C    0.002788   0.001592   0.000764  -0.040272   0.000634  -0.000207
     6  C    0.004956   0.354725  -0.044949   0.001958   0.323344  -0.047158
     7  H    0.629812  -0.000238  -0.004604   0.005208   0.000275   0.000009
     8  H   -0.000238   0.645328  -0.002053   0.000050  -0.050222  -0.007498
     9  H   -0.004604  -0.002053   0.624985  -0.000347  -0.004073   0.000141
    10  H    0.005208   0.000050  -0.000347   0.612035  -0.001251   0.000053
    11  C    0.000275  -0.050222  -0.004073  -0.001251   4.963760   0.360114
    12  H    0.000009  -0.007498   0.000141   0.000053   0.360114   0.605125
    13  H    0.000205   0.005345  -0.000074   0.004954   0.370973  -0.032407
    14  H    0.000929   0.000619   0.000163   0.007909  -0.000243   0.000007
    15  O   -0.000120  -0.000129   0.000006  -0.002063   0.000001  -0.000001
    16  H    0.000008  -0.000005  -0.000000  -0.000225  -0.000004   0.000001
    17  O   -0.000031   0.003255   0.015204   0.000035   0.218630  -0.029348
    18  H    0.000001   0.003421   0.000634   0.000001  -0.028966  -0.007236
    19  O    0.004852   0.000005  -0.000063  -0.034535   0.000013  -0.000000
    20  H   -0.000362   0.000001   0.000006  -0.002538  -0.000001  -0.000000
    21  O   -0.034176  -0.000124  -0.002546   0.000322   0.001629   0.000365
    22  H    0.000376  -0.000080   0.010727   0.000031  -0.002206   0.000160
    23  O   -0.000719  -0.000343  -0.032700  -0.000080   0.002904  -0.000041
    24  H    0.009590  -0.000249  -0.002652   0.000027  -0.000213   0.000006
    25  O   -0.000000   0.000002   0.000000  -0.000000  -0.000000  -0.000000
    26  H    0.000000  -0.000028  -0.000000  -0.000001  -0.000002  -0.000000
    27  H    0.000000  -0.000000  -0.000000   0.000000  -0.000000   0.000000
    28  O    0.000000   0.004411  -0.000006  -0.000001   0.000033  -0.000001
    29  H   -0.000005   0.000681   0.000055   0.000001   0.000043  -0.000002
    30  H    0.000003  -0.004696  -0.000048  -0.000020   0.000452   0.000035
              13         14         15         16         17         18
     1  O    0.002683  -0.054159  -0.052331   0.002082   0.001490   0.000005
     2  C   -0.010248  -0.000743  -0.000208   0.000067  -0.003107  -0.001250
     3  C   -0.002267  -0.056925  -0.042915   0.005263   0.000095   0.000001
     4  C    0.002396  -0.005020   0.003045  -0.000169  -0.001849   0.000124
     5  C    0.000821   0.350132   0.264167  -0.020354  -0.000029   0.000002
     6  C   -0.037518  -0.002780   0.003423  -0.000269  -0.042271  -0.002214
     7  H    0.000205   0.000929  -0.000120   0.000008  -0.000031   0.000001
     8  H    0.005345   0.000619  -0.000129  -0.000005   0.003255   0.003421
     9  H   -0.000074   0.000163   0.000006  -0.000000   0.015204   0.000634
    10  H    0.004954   0.007909  -0.002063  -0.000225   0.000035   0.000001
    11  C    0.370973  -0.000243   0.000001  -0.000004   0.218630  -0.028966
    12  H   -0.032407   0.000007  -0.000001   0.000001  -0.029348  -0.007236
    13  H    0.524738   0.000081  -0.000100  -0.000000  -0.033878   0.006717
    14  H    0.000081   0.667658  -0.049251  -0.006013   0.000006   0.000000
    15  O   -0.000100  -0.049251   8.340648   0.203029   0.000000  -0.000000
    16  H   -0.000000  -0.006013   0.203029   0.304029  -0.000000  -0.000000
    17  O   -0.033878   0.000006   0.000000  -0.000000   8.249077   0.234364
    18  H    0.006717   0.000000  -0.000000  -0.000000   0.234364   0.397670
    19  O    0.000012   0.004907  -0.005540  -0.000177   0.000000   0.000000
    20  H   -0.000002   0.000744   0.022890  -0.000446  -0.000000   0.000000
    21  O    0.012375  -0.000020  -0.000010   0.000001  -0.002198   0.000071
    22  H   -0.002702   0.000018   0.000002  -0.000000   0.011514  -0.000360
    23  O   -0.000018   0.010999   0.000132   0.000002   0.000051  -0.000025
    24  H    0.000006   0.000564  -0.000012   0.000000   0.000010   0.000000
    25  O   -0.000000   0.001910  -0.030371   0.081320   0.000000  -0.000000
    26  H    0.000000  -0.000277   0.002391  -0.006241   0.000000   0.000000
    27  H    0.000000  -0.000105   0.001506  -0.003787   0.000000   0.000000
    28  O    0.000000   0.007335  -0.000425   0.000284   0.000000  -0.000000
    29  H    0.000000   0.001823   0.000023  -0.000055  -0.000000  -0.000000
    30  H   -0.000028  -0.005057   0.000697   0.000861  -0.000005  -0.000001
              19         20         21         22         23         24
     1  O    0.001484   0.000416  -0.000004   0.000070   0.001873  -0.000096
     2  C    0.001527  -0.000256  -0.022401  -0.003977   0.181603  -0.027964
     3  C    0.226406  -0.034012  -0.043980   0.006428   0.000826  -0.000841
     4  C   -0.034923   0.007426   0.218262  -0.034607  -0.033166  -0.002232
     5  C   -0.032808  -0.007743   0.002778  -0.000353  -0.004801   0.000021
     6  C    0.000178  -0.000049  -0.004115  -0.001540  -0.044100   0.006696
     7  H    0.004852  -0.000362  -0.034176   0.000376  -0.000719   0.009590
     8  H    0.000005   0.000001  -0.000124  -0.000080  -0.000343  -0.000249
     9  H   -0.000063   0.000006  -0.002546   0.010727  -0.032700  -0.002652
    10  H   -0.034535  -0.002538   0.000322   0.000031  -0.000080   0.000027
    11  C    0.000013  -0.000001   0.001629  -0.002206   0.002904  -0.000213
    12  H   -0.000000  -0.000000   0.000365   0.000160  -0.000041   0.000006
    13  H    0.000012  -0.000002   0.012375  -0.002702  -0.000018   0.000006
    14  H    0.004907   0.000744  -0.000020   0.000018   0.010999   0.000564
    15  O   -0.005540   0.022890  -0.000010   0.000002   0.000132  -0.000012
    16  H   -0.000177  -0.000446   0.000001  -0.000000   0.000002   0.000000
    17  O    0.000000  -0.000000  -0.002198   0.011514   0.000051   0.000010
    18  H    0.000000   0.000000   0.000071  -0.000360  -0.000025   0.000000
    19  O    8.279876   0.233537   0.000809  -0.000103  -0.000036   0.000011
    20  H    0.233537   0.375926  -0.000166   0.000014   0.000008  -0.000000
    21  O    0.000809  -0.000166   8.273662   0.234986   0.001620  -0.000011
    22  H   -0.000103   0.000014   0.234986   0.372033   0.000122   0.000018
    23  O   -0.000036   0.000008   0.001620   0.000122   8.311560   0.233530
    24  H    0.000011  -0.000000  -0.000011   0.000018   0.233530   0.379243
    25  O   -0.000001   0.000012  -0.000000   0.000000  -0.000000  -0.000000
    26  H   -0.000001  -0.000003  -0.000000  -0.000000  -0.000029  -0.000001
    27  H    0.000000  -0.000001   0.000000  -0.000000   0.000000   0.000000
    28  O    0.000000   0.000000   0.000000   0.000000  -0.001961   0.000085
    29  H   -0.000000  -0.000000  -0.000000  -0.000000   0.015259  -0.000559
    30  H   -0.000013  -0.000005  -0.000000  -0.000001  -0.000188   0.000031
              25         26         27         28         29         30
     1  O   -0.000407   0.000135   0.000003  -0.022898   0.000929   0.058485
     2  C    0.000002   0.000026  -0.000000  -0.000773  -0.001197   0.000798
     3  C    0.000074   0.000072   0.000001   0.000133   0.000001   0.000853
     4  C    0.000000  -0.000004  -0.000000  -0.000003   0.000066  -0.000057
     5  C    0.003364   0.001021   0.000021   0.003091  -0.000018  -0.002133
     6  C   -0.000004  -0.000064  -0.000000   0.001909   0.000386  -0.001561
     7  H   -0.000000   0.000000   0.000000   0.000000  -0.000005   0.000003
     8  H    0.000002  -0.000028  -0.000000   0.004411   0.000681  -0.004696
     9  H    0.000000  -0.000000  -0.000000  -0.000006   0.000055  -0.000048
    10  H   -0.000000  -0.000001   0.000000  -0.000001   0.000001  -0.000020
    11  C   -0.000000  -0.000002  -0.000000   0.000033   0.000043   0.000452
    12  H   -0.000000  -0.000000   0.000000  -0.000001  -0.000002   0.000035
    13  H   -0.000000   0.000000   0.000000   0.000000   0.000000  -0.000028
    14  H    0.001910  -0.000277  -0.000105   0.007335   0.001823  -0.005057
    15  O   -0.030371   0.002391   0.001506  -0.000425   0.000023   0.000697
    16  H    0.081320  -0.006241  -0.003787   0.000284  -0.000055   0.000861
    17  O    0.000000   0.000000   0.000000   0.000000  -0.000000  -0.000005
    18  H   -0.000000   0.000000   0.000000  -0.000000  -0.000000  -0.000001
    19  O   -0.000001  -0.000001   0.000000   0.000000  -0.000000  -0.000013
    20  H    0.000012  -0.000003  -0.000001   0.000000  -0.000000  -0.000005
    21  O   -0.000000  -0.000000   0.000000   0.000000  -0.000000  -0.000000
    22  H    0.000000  -0.000000  -0.000000   0.000000  -0.000000  -0.000001
    23  O   -0.000000  -0.000029   0.000000  -0.001961   0.015259  -0.000188
    24  H   -0.000000  -0.000001   0.000000   0.000085  -0.000559   0.000031
    25  O    8.343232   0.202676   0.240664  -0.027683   0.001253   0.004613
    26  H    0.202676   0.316545  -0.014543   0.075256  -0.003496  -0.006367
    27  H    0.240664  -0.014543   0.377611   0.001155  -0.000027   0.000058
    28  O   -0.027683   0.075256   0.001155   8.328980   0.246145   0.214211
    29  H    0.001253  -0.003496  -0.000027   0.246145   0.352641  -0.025144
    30  H    0.004613  -0.006367   0.000058   0.214211  -0.025144   0.322623
 Mulliken charges:
               1
     1  O   -0.549481
     2  C    0.063272
     3  C    0.116971
     4  C    0.116592
     5  C    0.313491
     6  C    0.109075
     7  H    0.135883
     8  H    0.130972
     9  H    0.132469
    10  H    0.154627
    11  C   -0.069597
    12  H    0.147208
    13  H    0.187934
    14  H    0.124791
    15  O   -0.658481
    16  H    0.440800
    17  O   -0.621016
    18  H    0.397041
    19  O   -0.645418
    20  H    0.404604
    21  O   -0.637126
    22  H    0.409431
    23  O   -0.642283
    24  H    0.404991
    25  O   -0.820655
    26  H    0.432934
    27  H    0.397446
    28  O   -0.829279
    29  H    0.411199
    30  H    0.441604
 Sum of Mulliken charges =  -0.00000
 Mulliken charges with hydrogens summed into heavy atoms:
               1
     1  O   -0.549481
     2  C    0.195741
     3  C    0.271599
     4  C    0.252476
     5  C    0.438282
     6  C    0.240047
    11  C    0.265544
    15  O   -0.217681
    17  O   -0.223975
    19  O   -0.240813
    21  O   -0.227695
    23  O   -0.237292
    25  O    0.009725
    28  O    0.023524
 APT charges:
               1
     1  O   -0.420989
     2  C   -0.376228
     3  C   -0.202381
     4  C   -0.314631
     5  C   -0.143075
     6  C   -0.281375
     7  H    0.444207
     8  H    0.415301
     9  H    0.476528
    10  H    0.377028
    11  C   -0.582683
    12  H    0.478584
    13  H    0.298241
    14  H    0.273148
    15  O   -0.672971
    16  H    0.596843
    17  O   -0.869551
    18  H    0.756994
    19  O   -0.765069
    20  H    0.644312
    21  O   -0.745543
    22  H    0.648263
    23  O   -0.871563
    24  H    0.727839
    25  O   -1.119536
    26  H    0.265117
    27  H    0.902173
    28  O   -0.584900
    29  H    0.425542
    30  H    0.220377
 Sum of APT charges =  -0.00000
 APT charges with hydrogens summed into heavy atoms:
               1
     1  O   -0.420989
     2  C    0.100300
     3  C    0.174647
     4  C    0.129576
     5  C    0.130073
     6  C    0.133927
    11  C    0.194142
    15  O   -0.076129
    17  O   -0.112558
    19  O   -0.120757
    21  O   -0.097280
    23  O   -0.143724
    25  O    0.047754
    28  O    0.061020
 Electronic spatial extent (au):  <R**2>=           3093.0467
 Charge=              0.0000 electrons
 Dipole moment (field-independent basis, Debye):
    X=             -1.1852    Y=             -3.3872    Z=              1.6822  Tot=              3.9633
 Quadrupole moment (field-independent basis, Debye-Ang):
   XX=            -83.7400   YY=            -86.8907   ZZ=            -77.6531
   XY=              7.0357   XZ=             -7.7386   YZ=              2.3249
 Traceless Quadrupole moment (field-independent basis, Debye-Ang):
   XX=             -0.9787   YY=             -4.1294   ZZ=              5.1081
   XY=              7.0357   XZ=             -7.7386   YZ=              2.3249
 Octapole moment (field-independent basis, Debye-Ang**2):
  XXX=             34.4490  YYY=            -22.4074  ZZZ=             25.6807  XYY=             -7.2970
  XXY=            -25.2958  XXZ=            -10.7871  XZZ=              4.5998  YZZ=              0.3044
  YYZ=            -15.8190  XYZ=              3.4710
 Hexadecapole moment (field-independent basis, Debye-Ang**3):
 XXXX=          -1914.6217 YYYY=          -1062.3229 ZZZZ=           -445.8514 XXXY=            -47.2002
 XXXZ=           -184.9683 YYYX=            142.6844 YYYZ=            -11.6601 ZZZX=             -4.4825
 ZZZY=              6.8420 XXYY=           -485.7440 XXZZ=           -385.1476 YYZZ=           -261.3400
 XXYZ=             24.5373 YYXZ=             -8.9036 ZZXY=            -22.1444
 N-N= 1.118135314517D+03 E-N=-4.208565490582D+03  KE= 8.328783316138D+02
  Exact polarizability:   0.000   0.000   0.000   0.000   0.000   0.000
 Approx polarizability: 136.547   4.555 128.056  -3.465  -2.015 122.977

 This type of calculation cannot be archived.


 You don't have to suffer to be a poet.
 Adolescence is enough suffering for anyone.
                             -- John Ciardi
 Job cpu time:       0 days  1 hours 11 minutes 26.9 seconds.
 File lengths (MBytes):  RWF=    220 Int=      0 D2E=      0 Chk=      9 Scr=      1
 Normal termination of Gaussian 09 at Tue Jan 31 12:23:22 2017.
