 Entering Gaussian System, Link 0=g09
 Initial command:
 /global/software/gaussian/g09.e01/l1.exe "/scratch/10502186.yak.local/Gau-10454.inp" -scrdir="/scratch/10502186.yak.local/"
 Entering Link 1 = /global/software/gaussian/g09.e01/l1.exe PID=     10455.
  
 Copyright (c) 1988,1990,1992,1993,1995,1998,2003,2009,2015,
            Gaussian, Inc.  All Rights Reserved.
  
 This is part of the Gaussian(R) 09 program.  It is based on
 the Gaussian(R) 03 system (copyright 2003, Gaussian, Inc.),
 the Gaussian(R) 98 system (copyright 1998, Gaussian, Inc.),
 the Gaussian(R) 94 system (copyright 1995, Gaussian, Inc.),
 the Gaussian 92(TM) system (copyright 1992, Gaussian, Inc.),
 the Gaussian 90(TM) system (copyright 1990, Gaussian, Inc.),
 the Gaussian 88(TM) system (copyright 1988, Gaussian, Inc.),
 the Gaussian 86(TM) system (copyright 1986, Carnegie Mellon
 University), and the Gaussian 82(TM) system (copyright 1983,
 Carnegie Mellon University). Gaussian is a federally registered
 trademark of Gaussian, Inc.
  
 This software contains proprietary and confidential information,
 including trade secrets, belonging to Gaussian, Inc.
  
 This software is provided under written license and may be
 used, copied, transmitted, or stored only in accord with that
 written license.
  
 The following legend is applicable only to US Government
 contracts under FAR:
  
                    RESTRICTED RIGHTS LEGEND
  
 Use, reproduction and disclosure by the US Government is
 subject to restrictions as set forth in subparagraphs (a)
 and (c) of the Commercial Computer Software - Restricted
 Rights clause in FAR 52.227-19.
  
 Gaussian, Inc.
 340 Quinnipiac St., Bldg. 40, Wallingford CT 06492
  
  
 ---------------------------------------------------------------
 Warning -- This program may not be used in any manner that
 competes with the business of Gaussian, Inc. or will provide
 assistance to any competitor of Gaussian, Inc.  The licensee
 of this program is prohibited from giving any competitor of
 Gaussian, Inc. access to this program.  By using this program,
 the user acknowledges that Gaussian, Inc. is engaged in the
 business of creating and licensing software in the field of
 computational chemistry and represents and warrants to the
 licensee that it is not a competitor of Gaussian, Inc. and that
 it will not use this program in any manner prohibited above.
 ---------------------------------------------------------------
  

 Cite this work as:
 Gaussian 09, Revision E.01,
 M. J. Frisch, G. W. Trucks, H. B. Schlegel, G. E. Scuseria, 
 M. A. Robb, J. R. Cheeseman, G. Scalmani, V. Barone, B. Mennucci, 
 G. A. Petersson, H. Nakatsuji, M. Caricato, X. Li, H. P. Hratchian, 
 A. F. Izmaylov, J. Bloino, G. Zheng, J. L. Sonnenberg, M. Hada, 
 M. Ehara, K. Toyota, R. Fukuda, J. Hasegawa, M. Ishida, T. Nakajima, 
 Y. Honda, O. Kitao, H. Nakai, T. Vreven, J. A. Montgomery, Jr., 
 J. E. Peralta, F. Ogliaro, M. Bearpark, J. J. Heyd, E. Brothers, 
 K. N. Kudin, V. N. Staroverov, T. Keith, R. Kobayashi, J. Normand, 
 K. Raghavachari, A. Rendell, J. C. Burant, S. S. Iyengar, J. Tomasi, 
 M. Cossi, N. Rega, J. M. Millam, M. Klene, J. E. Knox, J. B. Cross, 
 V. Bakken, C. Adamo, J. Jaramillo, R. Gomperts, R. E. Stratmann, 
 O. Yazyev, A. J. Austin, R. Cammi, C. Pomelli, J. W. Ochterski, 
 R. L. Martin, K. Morokuma, V. G. Zakrzewski, G. A. Voth, 
 P. Salvador, J. J. Dannenberg, S. Dapprich, A. D. Daniels, 
 O. Farkas, J. B. Foresman, J. V. Ortiz, J. Cioslowski, 
 and D. J. Fox, Gaussian, Inc., Wallingford CT, 2013.
 
 ******************************************
 Gaussian 09:  ES64L-G09RevE.01 30-Nov-2015
                31-Jan-2017 
 ******************************************
 %NPROCS=4
 Will use up to    4 processors via shared memory.
 --------------------------------------------------
 # b3lyp/6-31g(d) irc=(calcfc,reverse,maxpoints=20)
 --------------------------------------------------
 1/10=4,14=-1,18=10,22=2,26=3,38=1,42=20,44=3/1,23;
 2/12=2,17=6,18=5,29=1,40=1/2;
 3/5=1,6=6,7=1,11=2,16=1,25=1,30=1,71=2,74=-5,140=1/1,2,3;
 4//1;
 5/5=2,38=5/2;
 8/6=4,10=90,11=11/1;
 11/6=1,8=1,9=11,15=111,16=1/1,2,10;
 10/6=1,13=1/2;
 6/7=2,8=2,9=2,10=2,28=1/1;
 7/10=1,18=20,25=1/1,2,3,16;
 1/10=4,14=-1,18=10,22=2,26=3,42=20,44=3/23(2);
 2/29=1/2;
 99/5=20/99;
 2/29=1/2;
 3/5=1,6=6,7=1,11=2,16=1,25=1,30=1,71=2,74=-5,140=1/1,2,3;
 4/5=5,16=3,69=1/1;
 5/5=2,38=5/2;
 8/6=4,10=90,11=11/1;
 11/6=1,8=1,9=11,15=111,16=1/1,2,10;
 10/6=1,13=1/2;
 7/10=1,18=20,25=1/1,2,3,16;
 1/14=-1,18=10,22=2,26=3,42=20,44=3/23(-8);
 2/29=1/2;
 6/7=2,8=2,9=2,10=2,19=2,28=1/1;
 99/5=20,9=1/99;
 ------------------------------------------
 ./5/glo_2w_beta_boat5_b3lyp_631Gd_iopt.out
 ------------------------------------------
 Symbolic Z-matrix:
 Charge =  0 Multiplicity = 1
 O                     0.44978  -0.71563  -0.74442 
 C                    -1.20955  -0.35779   1.04239 
 C                    -0.19757   1.6127   -0.22433 
 C                    -1.34426   1.13973   0.6939 
 C                     0.93839   0.59492  -0.31727 
 C                    -0.78518  -1.18246  -0.17122 
 H                    -1.28061   1.72419   1.62656 
 H                    -0.5987   -2.20721   0.18271 
 H                    -2.18451  -0.73326   1.38587 
 H                    -0.60958   1.74812  -1.23457 
 C                    -1.84993  -1.21378  -1.28318 
 H                    -1.52511  -1.91338  -2.06459 
 H                    -1.94337  -0.22472  -1.73139 
 H                     1.40042   0.47223   0.66786 
 O                     1.85428   1.04235  -1.24502 
 H                     2.73643   0.66177  -0.99491 
 O                    -3.14892  -1.53974  -0.78734 
 H                    -3.15841  -2.4798   -0.54853 
 O                     0.32246   2.83053   0.28335 
 H                     1.09749   3.0297   -0.27037 
 O                    -2.58076   1.40745   0.03973 
 H                    -3.21476   0.7012    0.24511 
 O                    -0.22249  -0.59491   2.05326 
 H                    -0.40658  -0.00263   2.7998 
 O                     4.06537  -0.21437  -0.25437 
 H                     3.59329  -0.94105   0.22575 
 H                     4.58241  -0.66959  -0.93594 
 O                     2.3358   -2.10316   0.73128 
 H                     1.89254  -1.82696   1.55107 
 H                     1.70353  -1.79863   0.04207 
 
 IRC-IRC-IRC-IRC-IRC-IRC-IRC-IRC-IRC-IRC-IRC-IRC-IRC-IRC-IRC-IRC-IRC-IRC
 ------------------------------------------------------------------------
 INPUT DATA FOR L123
 ------------------------------------------------------------------------
 GENERAL PARAMETERS:
 Rxn path following direction = Reverse
 Maximum points per path      =  20
 Step size                    =   0.100 bohr
 Integration scheme           = HPC                                 
    Redo corrector integration= Yes                                 
    DWI Weight Power          =  2
    DWI will use Hessian update vectors when possible.
    Max correction cycles     =  20
 Initial Hessian              = CalcFC
 Hessian evaluation           = All updating
 Hessian updating method      = Bofill                              
 ------------------------------------------------------------------------
 IRC-IRC-IRC-IRC-IRC-IRC-IRC-IRC-IRC-IRC-IRC-IRC-IRC-IRC-IRC-IRC-IRC-IRC
                          Input orientation:                          
 ---------------------------------------------------------------------
 Center     Atomic      Atomic             Coordinates (Angstroms)
 Number     Number       Type             X           Y           Z
 ---------------------------------------------------------------------
      1          8           0        0.449780   -0.715630   -0.744420
      2          6           0       -1.209550   -0.357790    1.042390
      3          6           0       -0.197570    1.612700   -0.224330
      4          6           0       -1.344260    1.139730    0.693900
      5          6           0        0.938390    0.594920   -0.317270
      6          6           0       -0.785180   -1.182460   -0.171220
      7          1           0       -1.280610    1.724190    1.626560
      8          1           0       -0.598700   -2.207210    0.182710
      9          1           0       -2.184510   -0.733260    1.385870
     10          1           0       -0.609580    1.748120   -1.234570
     11          6           0       -1.849930   -1.213780   -1.283180
     12          1           0       -1.525110   -1.913380   -2.064590
     13          1           0       -1.943370   -0.224720   -1.731390
     14          1           0        1.400420    0.472230    0.667860
     15          8           0        1.854280    1.042350   -1.245020
     16          1           0        2.736430    0.661770   -0.994910
     17          8           0       -3.148920   -1.539740   -0.787340
     18          1           0       -3.158410   -2.479800   -0.548530
     19          8           0        0.322460    2.830530    0.283350
     20          1           0        1.097490    3.029700   -0.270370
     21          8           0       -2.580760    1.407450    0.039730
     22          1           0       -3.214760    0.701200    0.245110
     23          8           0       -0.222490   -0.594910    2.053260
     24          1           0       -0.406580   -0.002630    2.799800
     25          8           0        4.065370   -0.214370   -0.254370
     26          1           0        3.593290   -0.941050    0.225750
     27          1           0        4.582410   -0.669590   -0.935940
     28          8           0        2.335800   -2.103160    0.731280
     29          1           0        1.892540   -1.826960    1.551070
     30          1           0        1.703530   -1.798630    0.042070
 ---------------------------------------------------------------------
                    Distance matrix (angstroms):
                    1          2          3          4          5
     1  O    0.000000
     2  C    2.464572   0.000000
     3  C    2.471978   2.551767   0.000000
     4  C    2.954607   1.543424   1.543290   0.000000
     5  C    1.462443   2.714770   1.528044   2.555342   0.000000
     6  C    1.439310   1.527423   2.856751   2.540388   2.480142
     7  H    3.816873   2.163549   2.147370   1.102497   3.158748
     8  H    2.045407   2.128977   3.862421   3.466869   3.234897
     9  H    3.387909   1.099774   3.470476   2.166318   3.797006
    10  H    2.726271   3.159014   1.099398   2.151485   2.137176
    11  C    2.413935   2.559508   3.440995   3.115053   3.461085
    12  H    2.660384   3.488949   4.193109   4.118671   3.926007
    13  H    2.634819   2.872291   2.948756   2.846522   3.313018
    14  H    2.075876   2.764263   2.156443   2.824801   1.094991
    15  O    2.305150   4.071817   2.361609   3.741597   1.378321
    16  H    2.681183   4.556408   3.179059   4.442134   1.922658
    17  O    3.692105   2.916517   4.354920   3.553932   4.635067
    18  H    4.021157   3.291202   5.061644   4.235064   5.127490
    19  O    3.694289   3.617814   1.418196   2.409421   2.395426
    20  H    3.830372   4.303587   1.920205   3.234802   2.440423
    21  O    3.782398   2.449820   2.406543   1.424270   3.629335
    22  H    4.051596   2.403743   3.186635   1.972940   4.192400
    23  O    2.879850   1.432610   3.171999   2.472894   2.895298
    24  H    3.715268   1.964533   3.434871   2.572750   3.447047
    25  O    3.682920   5.433869   4.638076   5.656580   3.230621
    26  H    3.297529   4.906563   4.592911   5.378495   3.114895
    27  H    4.137322   6.128443   5.344478   6.407451   3.906484
    28  O    2.767671   3.963914   4.597692   4.905158   3.214319
    29  H    2.930168   3.469896   4.399076   4.473574   3.204153
    30  H    1.833942   3.400396   3.914374   4.283441   2.538434
                    6          7          8          9         10
     6  C    0.000000
     7  H    3.453415   0.000000
     8  H    1.100070   4.243302   0.000000
     9  H    2.141129   2.629454   2.476876   0.000000
    10  H    3.122475   2.938864   4.201599   3.937557   0.000000
    11  C    1.539847   4.174012   2.168251   2.732521   3.211492
    12  H    2.160229   5.188091   2.448454   3.705829   3.864416
    13  H    2.166287   3.938696   3.066298   3.167660   2.432678
    14  H    2.866863   3.110375   3.378054   3.849736   3.047497
    15  O    3.615187   4.305626   4.314529   5.136750   2.562972
    16  H    4.059727   4.912988   4.554221   5.641797   3.526099
    17  O    2.468708   4.468863   2.808938   2.510645   4.178311
    18  H    2.730874   5.092218   2.676029   2.782227   4.984224
    19  O    4.187790   2.366017   5.122254   4.494558   2.084320
    20  H    4.614821   3.310296   5.523366   5.260658   2.342267
    21  O    3.158519   2.075751   4.124897   2.559638   2.371803
    22  H    3.102316   2.587634   3.912354   2.102480   3.173713
    23  O    2.368575   2.584553   2.498000   2.077035   4.055793
    24  H    3.219052   2.263256   3.427279   2.386222   4.402553
    25  O    4.946913   5.989609   5.090776   6.482332   5.164041
    26  H    4.403052   5.728933   4.379246   5.896781   5.198874
    27  H    5.445994   6.831661   5.519017   7.154444   5.735090
    28  O    3.376790   5.341213   2.987147   4.768471   5.231844
    29  H    3.248361   4.762903   2.867625   4.224430   5.177025
    30  H    2.572710   4.881184   2.342430   4.249431   4.422638
                   11         12         13         14         15
    11  C    0.000000
    12  H    1.097975   0.000000
    13  H    1.089891   1.771309   0.000000
    14  H    4.148971   4.660058   4.174095   0.000000
    15  O    4.337367   4.563805   4.032886   2.046982   0.000000
    16  H    4.963415   5.092773   4.819626   2.141414   0.992766
    17  O    1.428104   2.099460   2.018380   5.182868   5.648776
    18  H    1.963323   2.299334   2.821501   5.565700   6.165849
    19  O    4.850746   5.606337   4.304383   2.621340   2.807129
    20  H    5.264997   5.876334   4.687500   2.740930   2.339281
    21  O    3.025731   4.070684   2.491407   4.137509   4.631788
    22  H    2.804564   3.876295   2.525928   4.640154   5.294529
    23  O    3.763428   4.515736   4.173972   2.385782   4.227558
    24  H    4.496762   5.344564   4.789857   2.834768   4.750162
    25  O    6.086710   6.116944   6.187621   2.902393   2.729405
    26  H    5.655077   5.691142   5.915922   2.646035   3.020132
    27  H    6.464651   6.334245   6.589116   3.741789   3.235578
    28  O    4.729628   4.770695   5.282478   2.740728   3.745912
    29  H    4.734453   4.976022   5.296784   2.511676   4.006560
    30  H    3.837371   3.856851   4.349969   2.374930   3.122578
                   16         17         18         19         20
    16  H    0.000000
    17  O    6.287056   0.000000
    18  H    6.694614   0.969966   0.000000
    19  O    3.487796   5.682967   6.403756   0.000000
    20  H    2.969541   6.259316   6.967399   0.973112   0.000000
    21  O    5.468000   3.113323   3.973719   3.242406   4.032044
    22  H    6.079134   2.468218   3.278994   4.128854   4.927792
    23  O    4.430101   4.186371   4.352212   3.893994   4.503266
    24  H    4.971897   4.769770   4.992019   3.858862   4.569814
    25  O    1.755592   7.354362   7.576391   4.854888   4.396880
    26  H    2.189350   6.844134   6.967978   4.992641   4.716143
    27  H    2.276761   7.781562   7.959098   5.646652   5.125661
    28  O    3.284064   5.718899   5.653858   5.347474   5.374288
    29  H    3.658954   5.564798   5.508776   5.075872   5.247561
    30  H    2.862827   4.929626   4.944822   4.836806   4.876236
                   21         22         23         24         25
    21  O    0.000000
    22  H    0.971044   0.000000
    23  O    3.691231   3.728671   0.000000
    24  H    3.785944   3.861048   0.970570   0.000000
    25  O    6.847470   7.354457   4.884231   5.419513   0.000000
    26  H    6.608249   7.003350   4.244971   4.848229   0.990676
    27  H    7.521771   8.004362   5.659325   6.268222   0.969068
    28  O    6.080723   6.237749   3.250738   4.026369   2.744166
    29  H    5.723283   5.846506   2.498698   3.189586   3.252883
    30  H    5.351084   5.520865   3.033707   3.909380   2.859378
                   26         27         28         29         30
    26  H    0.000000
    27  H    1.549701   0.000000
    28  O    1.785313   3.143565   0.000000
    29  H    2.331064   3.841891   0.972019   0.000000
    30  H    2.083357   3.243329   0.983623   1.521055   0.000000
 Symmetry turned off by external request.
 Stoichiometry    C6H16O8
 Framework group  C1[X(C6H16O8)]
 Deg. of freedom    84
 Full point group                 C1      NOp   1
 Rotational constants (GHZ):      0.8197113      0.4809201      0.3921118
 Standard basis: 6-31G(d) (6D, 7F)
   242 basis functions,   456 primitive gaussians,   242 cartesian basis functions
    58 alpha electrons       58 beta electrons
       nuclear repulsion energy      1118.2993616015 Hartrees.
 NAtoms=   30 NActive=   30 NUniq=   30 SFac= 1.00D+00 NAtFMM=   60 NAOKFM=F Big=F
 Integral buffers will be    131072 words long.
 Raffenetti 2 integral format.
 Two-electron integral symmetry is turned off.
 One-electron integrals computed using PRISM.
 NBasis=   242 RedAO= T EigKep=  1.28D-03  NBF=   242
 NBsUse=   242 1.00D-06 EigRej= -1.00D+00 NBFU=   242
 ExpMin= 1.61D-01 ExpMax= 5.48D+03 ExpMxC= 8.25D+02 IAcc=1 IRadAn=         1 AccDes= 0.00D+00
 Harris functional with IExCor=  402 and IRadAn=       1 diagonalized for initial guess.
 HarFok:  IExCor=  402 AccDes= 0.00D+00 IRadAn=         1 IDoV= 1 UseB2=F ITyADJ=14
 ICtDFT=  3500011 ScaDFX=  1.000000  1.000000  1.000000  1.000000
 FoFCou: FMM=F IPFlag=           0 FMFlag=      100000 FMFlg1=           0
         NFxFlg=           0 DoJE=T BraDBF=F KetDBF=T FulRan=T
         wScrn=  0.000000 ICntrl=     500 IOpCl=  0 I1Cent=   200000004 NGrid=           0
         NMat0=    1 NMatS0=      1 NMatT0=    0 NMatD0=    1 NMtDS0=    0 NMtDT0=    0
 Symmetry not used in FoFCou.
 Requested convergence on RMS density matrix=1.00D-08 within 128 cycles.
 Requested convergence on MAX density matrix=1.00D-06.
 Requested convergence on             energy=1.00D-06.
 No special actions if energy rises.
 Integral accuracy reduced to 1.0D-05 until final iterations.
 Initial convergence to 1.0D-05 achieved.  Increase integral accuracy.
 SCF Done:  E(RB3LYP) =  -839.992002265     A.U. after   14 cycles
            NFock= 14  Conv=0.39D-08     -V/T= 2.0085
 DoSCS=F DFT=T ScalE2(SS,OS)=  1.000000  1.000000
 Range of M.O.s used for correlation:     1   242
 NBasis=   242 NAE=    58 NBE=    58 NFC=     0 NFV=     0
 NROrb=    242 NOA=    58 NOB=    58 NVA=   184 NVB=   184
 Symmetrizing basis deriv contribution to polar:
 IMax=3 JMax=2 DiffMx= 0.00D+00
 G2DrvN: will do    31 centers at a time, making    1 passes.
 Calling FoFCou, ICntrl=  3107 FMM=F I1Cent=   0 AccDes= 0.00D+00.
 End of G2Drv F.D. properties file   721 does not exist.
 End of G2Drv F.D. properties file   722 does not exist.
 End of G2Drv F.D. properties file   788 does not exist.
          IDoAtm=111111111111111111111111111111
          Differentiating once with respect to nuclear coordinates.
          There are    93 degrees of freedom in the 1st order CPHF.  IDoFFX=6 NUNeed=     0.
     87 vectors produced by pass  0 Test12= 1.15D-14 1.08D-09 XBig12= 1.01D-01 7.26D-02.
 AX will form    87 AO Fock derivatives at one time.
     87 vectors produced by pass  1 Test12= 1.15D-14 1.08D-09 XBig12= 9.15D-03 1.23D-02.
     87 vectors produced by pass  2 Test12= 1.15D-14 1.08D-09 XBig12= 1.23D-04 1.83D-03.
     87 vectors produced by pass  3 Test12= 1.15D-14 1.08D-09 XBig12= 2.97D-07 6.53D-05.
     87 vectors produced by pass  4 Test12= 1.15D-14 1.08D-09 XBig12= 4.13D-10 1.73D-06.
     63 vectors produced by pass  5 Test12= 1.15D-14 1.08D-09 XBig12= 3.33D-13 6.10D-08.
      3 vectors produced by pass  6 Test12= 1.15D-14 1.08D-09 XBig12= 2.65D-16 1.67D-09.
 InvSVY:  IOpt=1 It=  1 EMax= 5.55D-16
 Solved reduced A of dimension   501 with    93 vectors.
 End of Minotr F.D. properties file   721 does not exist.
 End of Minotr F.D. properties file   722 does not exist.
 End of Minotr F.D. properties file   788 does not exist.

 **********************************************************************

            Population analysis using the SCF density.

 **********************************************************************

 Alpha  occ. eigenvalues --  -19.17882 -19.17038 -19.16824 -19.15171 -19.15069
 Alpha  occ. eigenvalues --  -19.14642 -19.14104 -19.14036 -10.27993 -10.26034
 Alpha  occ. eigenvalues --  -10.25648 -10.24857 -10.24332 -10.23319  -1.07102
 Alpha  occ. eigenvalues --   -1.04756  -1.03888  -1.02802  -1.01587  -1.01159
 Alpha  occ. eigenvalues --   -1.00393  -0.99169  -0.78993  -0.76543  -0.69671
 Alpha  occ. eigenvalues --   -0.66051  -0.63167  -0.56535  -0.55743  -0.54164
 Alpha  occ. eigenvalues --   -0.53472  -0.52925  -0.52395  -0.51776  -0.51078
 Alpha  occ. eigenvalues --   -0.48186  -0.46997  -0.44182  -0.43299  -0.42451
 Alpha  occ. eigenvalues --   -0.41830  -0.40972  -0.39977  -0.39234  -0.38809
 Alpha  occ. eigenvalues --   -0.37211  -0.35759  -0.35180  -0.33736  -0.32380
 Alpha  occ. eigenvalues --   -0.31232  -0.30803  -0.29871  -0.29495  -0.29065
 Alpha  occ. eigenvalues --   -0.27762  -0.27170  -0.25202
 Alpha virt. eigenvalues --    0.03612   0.04715   0.06520   0.08181   0.09597
 Alpha virt. eigenvalues --    0.10623   0.11341   0.11602   0.12218   0.14073
 Alpha virt. eigenvalues --    0.14862   0.16621   0.17572   0.18315   0.19732
 Alpha virt. eigenvalues --    0.20117   0.20887   0.21032   0.22911   0.23891
 Alpha virt. eigenvalues --    0.24304   0.24771   0.25567   0.28398   0.30260
 Alpha virt. eigenvalues --    0.30963   0.32638   0.34548   0.52692   0.52988
 Alpha virt. eigenvalues --    0.53952   0.55539   0.56531   0.58086   0.58688
 Alpha virt. eigenvalues --    0.59933   0.62501   0.63392   0.64964   0.66610
 Alpha virt. eigenvalues --    0.69430   0.70006   0.72174   0.72717   0.73475
 Alpha virt. eigenvalues --    0.75851   0.77704   0.79420   0.80426   0.80978
 Alpha virt. eigenvalues --    0.81485   0.82868   0.84173   0.84720   0.85706
 Alpha virt. eigenvalues --    0.86203   0.87050   0.87573   0.88315   0.89121
 Alpha virt. eigenvalues --    0.90584   0.92105   0.93170   0.94115   0.96140
 Alpha virt. eigenvalues --    0.96464   0.98740   0.99508   1.01145   1.02709
 Alpha virt. eigenvalues --    1.04338   1.04845   1.06180   1.07405   1.08221
 Alpha virt. eigenvalues --    1.09943   1.10836   1.11596   1.12763   1.15504
 Alpha virt. eigenvalues --    1.17961   1.20016   1.22771   1.24033   1.26039
 Alpha virt. eigenvalues --    1.28435   1.29634   1.32289   1.32907   1.36354
 Alpha virt. eigenvalues --    1.38295   1.40589   1.44018   1.44301   1.47188
 Alpha virt. eigenvalues --    1.51301   1.54563   1.55731   1.56677   1.59830
 Alpha virt. eigenvalues --    1.61671   1.63449   1.63592   1.67793   1.68632
 Alpha virt. eigenvalues --    1.69679   1.71994   1.72889   1.73267   1.74722
 Alpha virt. eigenvalues --    1.76145   1.76399   1.77403   1.79943   1.80312
 Alpha virt. eigenvalues --    1.81768   1.82332   1.83310   1.85225   1.87950
 Alpha virt. eigenvalues --    1.89336   1.89623   1.92809   1.95613   1.96555
 Alpha virt. eigenvalues --    1.97631   1.98656   2.02150   2.04862   2.05743
 Alpha virt. eigenvalues --    2.07491   2.08909   2.11838   2.14336   2.16930
 Alpha virt. eigenvalues --    2.19458   2.22322   2.25260   2.27468   2.28630
 Alpha virt. eigenvalues --    2.30383   2.32635   2.34859   2.35719   2.38040
 Alpha virt. eigenvalues --    2.41646   2.44753   2.45841   2.47718   2.50678
 Alpha virt. eigenvalues --    2.53009   2.53485   2.54477   2.57683   2.59374
 Alpha virt. eigenvalues --    2.62213   2.63121   2.65586   2.67737   2.68998
 Alpha virt. eigenvalues --    2.73524   2.75296   2.80621   2.87639   2.88121
 Alpha virt. eigenvalues --    2.93178   2.98586   3.01664   3.07850   3.09409
 Alpha virt. eigenvalues --    3.72935   3.74404   3.78914   3.84642   3.85739
 Alpha virt. eigenvalues --    3.94161   4.02114   4.17407   4.27675   4.34094
 Alpha virt. eigenvalues --    4.46321   4.52791   4.71477   4.84344
          Condensed to atoms (all electrons):
               1          2          3          4          5          6
     1  O    8.442722  -0.028560  -0.029032  -0.005386   0.130655   0.166725
     2  C   -0.028560   5.061060  -0.021099   0.302410  -0.007020   0.306699
     3  C   -0.029032  -0.021099   5.001556   0.291741   0.302597  -0.013710
     4  C   -0.005386   0.302410   0.291741   4.976120  -0.033861  -0.021314
     5  C    0.130655  -0.007020   0.302597  -0.033861   4.792579  -0.020831
     6  C    0.166725   0.306699  -0.013710  -0.021314  -0.020831   5.004847
     7  H   -0.000048  -0.054987  -0.054182   0.355004   0.002879   0.004939
     8  H   -0.042016  -0.047996  -0.000302   0.005639   0.001598   0.354733
     9  H    0.002902   0.355845   0.005523  -0.055526   0.000758  -0.044942
    10  H    0.001412   0.000652   0.343401  -0.051407  -0.040318   0.001975
    11  C   -0.034236  -0.048567  -0.001781  -0.001535   0.000628   0.322689
    12  H    0.004535   0.006509  -0.000100  -0.000352  -0.000203  -0.046868
    13  H    0.002678  -0.010125  -0.002310   0.002469   0.000837  -0.037614
    14  H   -0.054143  -0.000744  -0.056873  -0.004988   0.350181  -0.002768
    15  O   -0.052308  -0.000204  -0.042824   0.003017   0.264053   0.003422
    16  H    0.002080   0.000067   0.005252  -0.000168  -0.020348  -0.000269
    17  O    0.001491  -0.003053   0.000097  -0.001867  -0.000029  -0.042173
    18  H    0.000005  -0.001254   0.000001   0.000123   0.000002  -0.002252
    19  O    0.001485   0.001518   0.226180  -0.034892  -0.032759   0.000177
    20  H    0.000414  -0.000255  -0.033885   0.007399  -0.007774  -0.000049
    21  O   -0.000003  -0.021761  -0.044682   0.220279   0.002845  -0.004180
    22  H    0.000076  -0.003853   0.006285  -0.035220  -0.000354  -0.001675
    23  O    0.001892   0.182122   0.000838  -0.033386  -0.004833  -0.044240
    24  H   -0.000096  -0.027807  -0.000860  -0.002240   0.000029   0.006693
    25  O   -0.000408   0.000002   0.000074   0.000000   0.003369  -0.000004
    26  H    0.000137   0.000026   0.000072  -0.000004   0.001020  -0.000064
    27  H    0.000003  -0.000000   0.000001  -0.000000   0.000021  -0.000000
    28  O   -0.022946  -0.000773   0.000132  -0.000003   0.003093   0.001918
    29  H    0.000935  -0.001196   0.000001   0.000066  -0.000019   0.000385
    30  H    0.058511   0.000790   0.000852  -0.000057  -0.002136  -0.001564
               7          8          9         10         11         12
     1  O   -0.000048  -0.042016   0.002902   0.001412  -0.034236   0.004535
     2  C   -0.054987  -0.047996   0.355845   0.000652  -0.048567   0.006509
     3  C   -0.054182  -0.000302   0.005523   0.343401  -0.001781  -0.000100
     4  C    0.355004   0.005639  -0.055526  -0.051407  -0.001535  -0.000352
     5  C    0.002879   0.001598   0.000758  -0.040318   0.000628  -0.000203
     6  C    0.004939   0.354733  -0.044942   0.001975   0.322689  -0.046868
     7  H    0.629074  -0.000237  -0.004746   0.005209   0.000282   0.000009
     8  H   -0.000237   0.644924  -0.002049   0.000049  -0.050139  -0.007510
     9  H   -0.004746  -0.002049   0.625498  -0.000348  -0.004148   0.000124
    10  H    0.005209   0.000049  -0.000348   0.612456  -0.001294   0.000054
    11  C    0.000282  -0.050139  -0.004148  -0.001294   4.966493   0.360325
    12  H    0.000009  -0.007510   0.000124   0.000054   0.360325   0.603607
    13  H    0.000203   0.005347  -0.000089   0.005021   0.370981  -0.032267
    14  H    0.000922   0.000613   0.000163   0.007904  -0.000245   0.000007
    15  O   -0.000121  -0.000129   0.000006  -0.002066   0.000002  -0.000001
    16  H    0.000008  -0.000005  -0.000000  -0.000224  -0.000004   0.000001
    17  O   -0.000032   0.003218   0.014992   0.000036   0.217558  -0.029358
    18  H    0.000001   0.003371   0.000695   0.000000  -0.028817  -0.007089
    19  O    0.004932   0.000005  -0.000063  -0.034509   0.000013  -0.000000
    20  H   -0.000374   0.000001   0.000006  -0.002560  -0.000001  -0.000000
    21  O   -0.034516  -0.000120  -0.002466   0.000409   0.002061   0.000356
    22  H    0.000726  -0.000092   0.010575   0.000024  -0.002498   0.000196
    23  O   -0.000825  -0.000326  -0.032670  -0.000080   0.002910  -0.000041
    24  H    0.009543  -0.000250  -0.002699   0.000028  -0.000213   0.000006
    25  O   -0.000000   0.000002   0.000000  -0.000000  -0.000000  -0.000000
    26  H    0.000000  -0.000028  -0.000000  -0.000001  -0.000002  -0.000000
    27  H    0.000000  -0.000000  -0.000000   0.000000  -0.000000   0.000000
    28  O    0.000000   0.004415  -0.000006  -0.000001   0.000033  -0.000001
    29  H   -0.000005   0.000677   0.000055   0.000001   0.000043  -0.000002
    30  H    0.000003  -0.004697  -0.000048  -0.000020   0.000456   0.000035
              13         14         15         16         17         18
     1  O    0.002678  -0.054143  -0.052308   0.002080   0.001491   0.000005
     2  C   -0.010125  -0.000744  -0.000204   0.000067  -0.003053  -0.001254
     3  C   -0.002310  -0.056873  -0.042824   0.005252   0.000097   0.000001
     4  C    0.002469  -0.004988   0.003017  -0.000168  -0.001867   0.000123
     5  C    0.000837   0.350181   0.264053  -0.020348  -0.000029   0.000002
     6  C   -0.037614  -0.002768   0.003422  -0.000269  -0.042173  -0.002252
     7  H    0.000203   0.000922  -0.000121   0.000008  -0.000032   0.000001
     8  H    0.005347   0.000613  -0.000129  -0.000005   0.003218   0.003371
     9  H   -0.000089   0.000163   0.000006  -0.000000   0.014992   0.000695
    10  H    0.005021   0.007904  -0.002066  -0.000224   0.000036   0.000000
    11  C    0.370981  -0.000245   0.000002  -0.000004   0.217558  -0.028817
    12  H   -0.032267   0.000007  -0.000001   0.000001  -0.029358  -0.007089
    13  H    0.524973   0.000082  -0.000103   0.000000  -0.033986   0.006700
    14  H    0.000082   0.667340  -0.049232  -0.006018   0.000006   0.000000
    15  O   -0.000103  -0.049232   8.340597   0.203026   0.000000  -0.000000
    16  H    0.000000  -0.006018   0.203026   0.304046  -0.000000  -0.000000
    17  O   -0.033986   0.000006   0.000000  -0.000000   8.249035   0.234404
    18  H    0.006700   0.000000  -0.000000  -0.000000   0.234404   0.396893
    19  O    0.000012   0.004911  -0.005522  -0.000177   0.000000   0.000000
    20  H   -0.000003   0.000739   0.022827  -0.000446  -0.000000   0.000000
    21  O    0.012183  -0.000022  -0.000010   0.000001  -0.002579   0.000084
    22  H   -0.002922   0.000018   0.000002  -0.000000   0.013297  -0.000429
    23  O   -0.000020   0.011012   0.000132   0.000002   0.000053  -0.000025
    24  H    0.000006   0.000563  -0.000012   0.000000   0.000010   0.000000
    25  O   -0.000000   0.001913  -0.030368   0.081306   0.000000  -0.000000
    26  H    0.000000  -0.000278   0.002389  -0.006237   0.000000   0.000000
    27  H    0.000000  -0.000106   0.001506  -0.003786   0.000000   0.000000
    28  O    0.000000   0.007313  -0.000424   0.000283   0.000000  -0.000000
    29  H    0.000000   0.001817   0.000023  -0.000055  -0.000000  -0.000000
    30  H   -0.000028  -0.005042   0.000698   0.000861  -0.000005  -0.000001
              19         20         21         22         23         24
     1  O    0.001485   0.000414  -0.000003   0.000076   0.001892  -0.000096
     2  C    0.001518  -0.000255  -0.021761  -0.003853   0.182122  -0.027807
     3  C    0.226180  -0.033885  -0.044682   0.006285   0.000838  -0.000860
     4  C   -0.034892   0.007399   0.220279  -0.035220  -0.033386  -0.002240
     5  C   -0.032759  -0.007774   0.002845  -0.000354  -0.004833   0.000029
     6  C    0.000177  -0.000049  -0.004180  -0.001675  -0.044240   0.006693
     7  H    0.004932  -0.000374  -0.034516   0.000726  -0.000825   0.009543
     8  H    0.000005   0.000001  -0.000120  -0.000092  -0.000326  -0.000250
     9  H   -0.000063   0.000006  -0.002466   0.010575  -0.032670  -0.002699
    10  H   -0.034509  -0.002560   0.000409   0.000024  -0.000080   0.000028
    11  C    0.000013  -0.000001   0.002061  -0.002498   0.002910  -0.000213
    12  H   -0.000000  -0.000000   0.000356   0.000196  -0.000041   0.000006
    13  H    0.000012  -0.000003   0.012183  -0.002922  -0.000020   0.000006
    14  H    0.004911   0.000739  -0.000022   0.000018   0.011012   0.000563
    15  O   -0.005522   0.022827  -0.000010   0.000002   0.000132  -0.000012
    16  H   -0.000177  -0.000446   0.000001  -0.000000   0.000002   0.000000
    17  O    0.000000  -0.000000  -0.002579   0.013297   0.000053   0.000010
    18  H    0.000000   0.000000   0.000084  -0.000429  -0.000025   0.000000
    19  O    8.279912   0.233487   0.000836  -0.000100  -0.000036   0.000012
    20  H    0.233487   0.376061  -0.000167   0.000013   0.000008  -0.000000
    21  O    0.000836  -0.000167   8.274230   0.235092   0.001615  -0.000016
    22  H   -0.000100   0.000013   0.235092   0.369662   0.000129   0.000022
    23  O   -0.000036   0.000008   0.001615   0.000129   8.311264   0.233596
    24  H    0.000012  -0.000000  -0.000016   0.000022   0.233596   0.378903
    25  O   -0.000001   0.000012  -0.000000   0.000000  -0.000000  -0.000000
    26  H   -0.000001  -0.000003  -0.000000  -0.000000  -0.000029  -0.000001
    27  H    0.000000  -0.000001   0.000000  -0.000000   0.000000   0.000000
    28  O    0.000000   0.000000   0.000000   0.000000  -0.001961   0.000085
    29  H   -0.000000  -0.000000  -0.000000  -0.000000   0.015251  -0.000557
    30  H   -0.000013  -0.000005  -0.000000  -0.000001  -0.000186   0.000031
              25         26         27         28         29         30
     1  O   -0.000408   0.000137   0.000003  -0.022946   0.000935   0.058511
     2  C    0.000002   0.000026  -0.000000  -0.000773  -0.001196   0.000790
     3  C    0.000074   0.000072   0.000001   0.000132   0.000001   0.000852
     4  C    0.000000  -0.000004  -0.000000  -0.000003   0.000066  -0.000057
     5  C    0.003369   0.001020   0.000021   0.003093  -0.000019  -0.002136
     6  C   -0.000004  -0.000064  -0.000000   0.001918   0.000385  -0.001564
     7  H   -0.000000   0.000000   0.000000   0.000000  -0.000005   0.000003
     8  H    0.000002  -0.000028  -0.000000   0.004415   0.000677  -0.004697
     9  H    0.000000  -0.000000  -0.000000  -0.000006   0.000055  -0.000048
    10  H   -0.000000  -0.000001   0.000000  -0.000001   0.000001  -0.000020
    11  C   -0.000000  -0.000002  -0.000000   0.000033   0.000043   0.000456
    12  H   -0.000000  -0.000000   0.000000  -0.000001  -0.000002   0.000035
    13  H   -0.000000   0.000000   0.000000   0.000000   0.000000  -0.000028
    14  H    0.001913  -0.000278  -0.000106   0.007313   0.001817  -0.005042
    15  O   -0.030368   0.002389   0.001506  -0.000424   0.000023   0.000698
    16  H    0.081306  -0.006237  -0.003786   0.000283  -0.000055   0.000861
    17  O    0.000000   0.000000   0.000000   0.000000  -0.000000  -0.000005
    18  H   -0.000000   0.000000   0.000000  -0.000000  -0.000000  -0.000001
    19  O   -0.000001  -0.000001   0.000000   0.000000  -0.000000  -0.000013
    20  H    0.000012  -0.000003  -0.000001   0.000000  -0.000000  -0.000005
    21  O   -0.000000  -0.000000   0.000000   0.000000  -0.000000  -0.000000
    22  H    0.000000  -0.000000  -0.000000   0.000000  -0.000000  -0.000001
    23  O   -0.000000  -0.000029   0.000000  -0.001961   0.015251  -0.000186
    24  H   -0.000000  -0.000001   0.000000   0.000085  -0.000557   0.000031
    25  O    8.343259   0.202651   0.240658  -0.027690   0.001254   0.004621
    26  H    0.202651   0.316579  -0.014540   0.075276  -0.003497  -0.006369
    27  H    0.240658  -0.014540   0.377614   0.001155  -0.000027   0.000058
    28  O   -0.027690   0.075276   0.001155   8.329049   0.246148   0.214202
    29  H    0.001254  -0.003497  -0.000027   0.246148   0.352679  -0.025148
    30  H    0.004621  -0.006369   0.000058   0.214202  -0.025148   0.322597
 Mulliken charges:
               1
     1  O   -0.549478
     2  C    0.061554
     3  C    0.117037
     4  C    0.117938
     5  C    0.313344
     6  C    0.109313
     7  H    0.136338
     8  H    0.131303
     9  H    0.132658
    10  H    0.154197
    11  C   -0.070994
    12  H    0.148028
    13  H    0.187974
    14  H    0.124953
    15  O   -0.658375
    16  H    0.440801
    17  O   -0.621114
    18  H    0.397585
    19  O   -0.645409
    20  H    0.404555
    21  O   -0.639470
    22  H    0.411028
    23  O   -0.642168
    24  H    0.405222
    25  O   -0.820649
    26  H    0.432903
    27  H    0.397446
    28  O   -0.829299
    29  H    0.411171
    30  H    0.441606
 Sum of Mulliken charges =  -0.00000
 Mulliken charges with hydrogens summed into heavy atoms:
               1
     1  O   -0.549478
     2  C    0.194212
     3  C    0.271233
     4  C    0.254277
     5  C    0.438297
     6  C    0.240617
    11  C    0.265008
    15  O   -0.217573
    17  O   -0.223529
    19  O   -0.240855
    21  O   -0.228442
    23  O   -0.236946
    25  O    0.009701
    28  O    0.023479
 APT charges:
               1
     1  O   -0.421045
     2  C   -0.380589
     3  C   -0.201072
     4  C   -0.317122
     5  C   -0.142559
     6  C   -0.277316
     7  H    0.446508
     8  H    0.413419
     9  H    0.477107
    10  H    0.378110
    11  C   -0.585357
    12  H    0.479581
    13  H    0.300607
    14  H    0.272329
    15  O   -0.671158
    16  H    0.595020
    17  O   -0.867232
    18  H    0.754270
    19  O   -0.764654
    20  H    0.644536
    21  O   -0.732957
    22  H    0.635406
    23  O   -0.873117
    24  H    0.729477
    25  O   -1.117439
    26  H    0.264300
    27  H    0.900810
    28  O   -0.588223
    29  H    0.426289
    30  H    0.222071
 Sum of APT charges =  -0.00000
 APT charges with hydrogens summed into heavy atoms:
               1
     1  O   -0.421045
     2  C    0.096518
     3  C    0.177037
     4  C    0.129386
     5  C    0.129770
     6  C    0.136103
    11  C    0.194832
    15  O   -0.076138
    17  O   -0.112962
    19  O   -0.120118
    21  O   -0.097551
    23  O   -0.143640
    25  O    0.047671
    28  O    0.060137
 Electronic spatial extent (au):  <R**2>=           3091.9461
 Charge=             -0.0000 electrons
 Dipole moment (field-independent basis, Debye):
    X=             -1.1577    Y=             -3.4475    Z=              1.6442  Tot=              3.9911
 Quadrupole moment (field-independent basis, Debye-Ang):
   XX=            -83.8745   YY=            -87.0554   ZZ=            -77.6844
   XY=              7.3141   XZ=             -7.5907   YZ=              2.3003
 Traceless Quadrupole moment (field-independent basis, Debye-Ang):
   XX=             -1.0030   YY=             -4.1840   ZZ=              5.1871
   XY=              7.3141   XZ=             -7.5907   YZ=              2.3003
 Octapole moment (field-independent basis, Debye-Ang**2):
  XXX=             37.5893  YYY=            -27.4558  ZZZ=             26.7311  XYY=             -6.0605
  XXY=            -28.1756  XXZ=            -10.8217  XZZ=              5.5657  YZZ=             -1.2951
  YYZ=            -15.2542  XYZ=              3.5627
 Hexadecapole moment (field-independent basis, Debye-Ang**3):
 XXXX=          -1919.5367 YYYY=          -1062.9660 ZZZZ=           -446.1151 XXXY=            -41.1527
 XXXZ=           -182.8229 YYYX=            142.8160 YYYZ=            -12.4719 ZZZX=             -4.7191
 ZZZY=              7.7565 XXYY=           -486.9054 XXZZ=           -385.7855 YYZZ=           -260.9574
 XXYZ=             23.5201 YYXZ=             -8.7951 ZZXY=            -21.8279
 N-N= 1.118299361601D+03 E-N=-4.208873322501D+03  KE= 8.328778033399D+02
  Exact polarizability:   0.000   0.000   0.000   0.000   0.000   0.000
 Approx polarizability: 136.460   4.566 128.213  -3.381  -1.945 122.913
 Calling FoFJK, ICntrl=    100147 FMM=F ISym2X=0 I1Cent= 0 IOpClX= 0 NMat=1 NMatS=1 NMatT=0.
 -------------------------------------------------------------------
 Center     Atomic                   Forces (Hartrees/Bohr)
 Number     Number              X              Y              Z
 -------------------------------------------------------------------
      1        8           0.000006090    0.000006643   -0.000000940
      2        6          -0.000002695   -0.000010233   -0.000004420
      3        6          -0.000005781   -0.000004149    0.000008643
      4        6          -0.000004945   -0.000006050    0.000001452
      5        6           0.000006361    0.000003171   -0.000001002
      6        6           0.000000876    0.000000920   -0.000004315
      7        1          -0.000003178   -0.000004088   -0.000000564
      8        1           0.000002916   -0.000002679   -0.000003351
      9        1           0.000001445   -0.000002912   -0.000003838
     10        1          -0.000001356    0.000001592   -0.000000427
     11        6           0.000009322   -0.000000572   -0.000005442
     12        1           0.000003733    0.000001224   -0.000004879
     13        1           0.000002318    0.000001082   -0.000004959
     14        1          -0.000002184    0.000000524    0.000003024
     15        8          -0.000003546    0.000009014    0.000012201
     16        1          -0.000000623    0.000004300    0.000005179
     17        8           0.000006657   -0.000022968   -0.000012520
     18        1           0.000002554    0.000011750   -0.000010140
     19        8          -0.000010967    0.000002513    0.000013543
     20        1          -0.000000792    0.000001930    0.000003541
     21        8          -0.000001690   -0.000001039   -0.000005305
     22        1          -0.000004346   -0.000008528   -0.000000314
     23        8          -0.000006309   -0.000010582   -0.000009209
     24        1          -0.000003946   -0.000000512    0.000004257
     25        8           0.000005530    0.000008280    0.000007663
     26        1           0.000002128    0.000004693    0.000001209
     27        1          -0.000003469    0.000009881    0.000011307
     28        8           0.000001162    0.000006341   -0.000009871
     29        1          -0.000002217    0.000001438    0.000003933
     30        1           0.000006952   -0.000000982    0.000005546
 -------------------------------------------------------------------
 Cartesian Forces:  Max     0.000022968 RMS     0.000006155
 IRC-IRC-IRC-IRC-IRC-IRC-IRC-IRC-IRC-IRC-IRC-IRC-IRC-IRC-IRC-IRC-IRC-IRC
          ******** Start new reaction path calculation ********
 Supplied step size of   0.1000 bohr.
    Integration on MW PES will use step size of   0.1451 sqrt(amu)*bohr.
 Point Number:   0          Path Number:   1
 Calculating another point on the path.
 IRC-IRC-IRC-IRC-IRC-IRC-IRC-IRC-IRC-IRC-IRC-IRC-IRC-IRC-IRC-IRC-IRC-IRC
                          Input orientation:                          
 ---------------------------------------------------------------------
 Center     Atomic      Atomic             Coordinates (Angstroms)
 Number     Number       Type             X           Y           Z
 ---------------------------------------------------------------------
      1          8           0        0.460656   -0.737505   -0.739178
      2          6           0       -1.199008   -0.379142    1.047331
      3          6           0       -0.188782    1.590995   -0.220914
      4          6           0       -1.336077    1.117511    0.697127
      5          6           0        0.948174    0.574248   -0.313204
      6          6           0       -0.774192   -1.204158   -0.166139
      7          1           0       -1.273065    1.703130    1.628902
      8          1           0       -0.587874   -2.228826    0.188034
      9          1           0       -2.173266   -0.754862    1.392278
     10          1           0       -0.600449    1.726443   -1.231269
     11          6           0       -1.837978   -1.235028   -1.279146
     12          1           0       -1.517586   -1.941241   -2.056385
     13          1           0       -1.923727   -0.247944   -1.733521
     14          1           0        1.410263    0.452525    0.671982
     15          8           0        1.863726    1.021334   -1.241337
     16          1           0        2.746034    0.641214   -0.991061
     17          8           0       -3.140518   -1.548623   -0.783802
     18          1           0       -3.156200   -2.485655   -0.533246
     19          8           0        0.330383    2.809096    0.287214
     20          1           0        1.105212    3.009283   -0.266405
     21          8           0       -2.575161    1.383330    0.046793
     22          1           0       -3.193848    0.652959    0.217171
     23          8           0       -0.211082   -0.614711    2.057536
     24          1           0       -0.395847   -0.022619    2.804055
     25          8           0        4.075174   -0.234396   -0.250098
     26          1           0        3.603600   -0.961227    0.230285
     27          1           0        4.592649   -0.689494   -0.931418
     28          8           0        2.346735   -2.123723    0.736553
     29          1           0        1.903905   -1.846993    1.556393
     30          1           0        1.714338   -1.819222    0.047450
 ---------------------------------------------------------------------
                    Distance matrix (angstroms):
                    1          2          3          4          5
     1  O    0.000000
     2  C    2.464654   0.000000
     3  C    2.472303   2.551556   0.000000
     4  C    2.955048   1.543179   1.543784   0.000000
     5  C    1.462814   2.714848   1.528058   2.556112   0.000000
     6  C    1.439092   1.527622   2.856323   2.539900   2.480101
     7  H    3.817106   2.163230   2.147106   1.102327   3.159123
     8  H    2.045281   2.129133   3.862324   3.466548   3.235415
     9  H    3.388355   1.099697   3.470390   2.165619   3.797183
    10  H    2.727479   3.159712   1.099379   2.151895   2.137436
    11  C    2.413050   2.559945   3.438911   3.113197   3.459649
    12  H    2.664105   3.489226   4.196590   4.119556   3.930183
    13  H    2.629386   2.876729   2.946135   2.849184   3.307736
    14  H    2.075885   2.764209   2.156460   2.825814   1.094959
    15  O    2.305274   4.071814   2.361899   3.742410   1.378242
    16  H    2.680908   4.556262   3.179365   4.443025   1.922570
    17  O    3.691660   2.913794   4.345893   3.543646   4.630923
    18  H    4.022447   3.281192   5.051950   4.220127   5.124189
    19  O    3.694433   3.616859   1.418272   2.409683   2.395144
    20  H    3.831108   4.303110   1.920425   3.235287   2.440542
    21  O    3.785747   2.449731   2.410311   1.424403   3.632920
    22  H    4.025344   2.394532   3.178404   1.974204   4.176583
    23  O    2.878875   1.432482   3.171272   2.473241   2.894462
    24  H    3.714722   1.964244   3.434685   2.573534   3.446730
    25  O    3.681991   5.433348   4.638343   5.657431   3.230482
    26  H    3.296666   4.906264   4.593428   5.379545   3.115180
    27  H    4.136741   6.128218   5.344860   6.408371   3.906587
    28  O    2.767070   3.963892   4.598338   4.906145   3.215122
    29  H    2.929775   3.470130   4.399764   4.474831   3.204875
    30  H    1.833198   3.400173   3.914520   4.283867   2.538854
                    6          7          8          9         10
     6  C    0.000000
     7  H    3.453023   0.000000
     8  H    1.100044   4.243332   0.000000
     9  H    2.141947   2.628323   2.477144   0.000000
    10  H    3.122997   2.938288   4.202230   3.938734   0.000000
    11  C    1.539928   4.172366   2.168643   2.734864   3.209997
    12  H    2.160777   5.188697   2.446320   3.705494   3.869608
    13  H    2.166210   3.941566   3.066068   3.176454   2.429306
    14  H    2.866860   3.111264   3.378817   3.849454   3.047654
    15  O    3.614896   4.306109   4.314741   5.136936   2.563092
    16  H    4.059296   4.913760   4.554376   5.641707   3.526241
    17  O    2.469750   4.458971   2.814806   2.510171   4.168721
    18  H    2.729646   5.076121   2.680019   2.769376   4.976030
    19  O    4.187101   2.365234   5.121884   4.493465   2.084316
    20  H    4.614682   3.309747   5.523662   5.260080   2.342204
    21  O    3.159735   2.073836   4.125158   2.558069   2.377111
    22  H    3.074174   2.604851   3.885439   2.098672   3.158490
    23  O    2.368390   2.585328   2.498475   2.076627   4.055718
    24  H    3.218886   2.264665   3.427505   2.385061   4.402831
    25  O    4.946093   5.990686   5.090553   6.481612   5.164207
    26  H    4.402411   5.730340   4.379161   5.896185   5.199398
    27  H    5.445503   6.832751   5.519106   7.154120   5.735410
    28  O    3.376483   5.342663   2.987282   4.768036   5.232781
    29  H    3.248470   4.764638   2.868304   4.224099   5.178059
    30  H    2.572295   4.881858   2.342588   4.249105   4.423246
                   11         12         13         14         15
    11  C    0.000000
    12  H    1.097948   0.000000
    13  H    1.090021   1.771002   0.000000
    14  H    4.147988   4.663304   4.170443   0.000000
    15  O    4.335345   4.568854   4.024688   2.046940   0.000000
    16  H    4.961496   5.097298   4.811291   2.141402   0.992773
    17  O    1.428396   2.099410   2.018493   5.180107   5.644154
    18  H    1.964216   2.302476   2.822588   5.562199   6.164416
    19  O    4.848733   5.610093   4.302310   2.620613   2.807793
    20  H    5.263287   5.881393   4.683634   2.740554   2.340465
    21  O    3.026111   4.073646   2.500988   4.140153   4.636166
    22  H    2.764388   3.835203   2.496003   4.630860   5.276552
    23  O    3.763646   4.515637   4.176097   2.384851   4.226587
    24  H    4.496910   5.344463   4.793202   2.834348   4.749811
    25  O    6.084864   6.120045   6.179607   2.902386   2.729453
    26  H    5.653682   5.693490   5.909031   2.646605   3.020494
    27  H    6.463086   6.337775   6.580387   3.742015   3.235739
    28  O    4.729128   4.771455   5.277941   2.741934   3.746563
    29  H    4.734604   4.976710   5.294456   2.512698   4.007020
    30  H    3.836677   3.858282   4.344685   2.375571   3.122827
                   16         17         18         19         20
    16  H    0.000000
    17  O    6.284094   0.000000
    18  H    6.695019   0.970080   0.000000
    19  O    3.488420   5.673089   6.392480   0.000000
    20  H    2.970720   6.250474   6.958820   0.973103   0.000000
    21  O    5.472020   3.099333   3.955136   3.245427   4.035711
    22  H    6.061532   2.419040   3.227296   4.132074   4.926258
    23  O    4.428976   4.186525   4.345837   3.892258   4.501851
    24  H    4.971418   4.768084   4.982336   3.857526   4.568734
    25  O    1.755657   7.353791   7.578991   4.855410   4.397999
    26  H    2.189731   6.845183   6.971496   4.993248   4.717371
    27  H    2.276911   7.782144   7.964257   5.647310   5.126930
    28  O    3.284656   5.722951   5.659124   5.347923   5.375412
    29  H    3.659219   5.568819   5.511728   5.076017   5.248231
    30  H    2.862979   4.932933   4.950099   4.836750   4.876885
                   21         22         23         24         25
    21  O    0.000000
    22  H    0.972236   0.000000
    23  O    3.691087   3.727040   0.000000
    24  H    3.785314   3.870037   0.970567   0.000000
    25  O    6.850704   7.337876   4.882807   5.418739   0.000000
    26  H    6.611180   6.986492   4.243904   4.847767   0.990673
    27  H    7.525357   7.984420   5.658203   6.267660   0.969067
    28  O    6.082783   6.219146   3.250314   4.026283   2.744182
    29  H    5.725025   5.833555   2.498566   3.189649   3.252429
    30  H    5.353143   5.498252   3.032909   3.908904   2.858978
                   26         27         28         29         30
    26  H    0.000000
    27  H    1.549713   0.000000
    28  O    1.785333   3.143766   0.000000
    29  H    2.330688   3.841660   0.972016   0.000000
    30  H    2.083002   3.243323   0.983621   1.521058   0.000000
 Symmetry turned off by external request.
 Stoichiometry    C6H16O8
 Framework group  C1[X(C6H16O8)]
 Deg. of freedom    84
 Full point group                 C1      NOp   1
 Rotational constants (GHZ):      0.8209077      0.4807151      0.3922700
 Standard basis: 6-31G(d) (6D, 7F)
   242 basis functions,   456 primitive gaussians,   242 cartesian basis functions
    58 alpha electrons       58 beta electrons
       nuclear repulsion energy      1118.4564255630 Hartrees.
 NAtoms=   30 NActive=   30 NUniq=   30 SFac= 1.00D+00 NAtFMM=   60 NAOKFM=F Big=F
 Integral buffers will be    131072 words long.
 Raffenetti 2 integral format.
 Two-electron integral symmetry is turned off.
 One-electron integrals computed using PRISM.
 NBasis=   242 RedAO= T EigKep=  1.28D-03  NBF=   242
 NBsUse=   242 1.00D-06 EigRej= -1.00D+00 NBFU=   242
 Initial guess from the checkpoint file:  "/scratch/10502186.yak.local/Gau-10455.chk"
 B after Tr=     0.018347   -0.038896    0.008032
         Rot=    1.000000    0.000055    0.000033   -0.000022 Ang=   0.01 deg.
 ExpMin= 1.61D-01 ExpMax= 5.48D+03 ExpMxC= 8.25D+02 IAcc=1 IRadAn=         1 AccDes= 0.00D+00
 Harris functional with IExCor=  402 and IRadAn=       1 diagonalized for initial guess.
 HarFok:  IExCor=  402 AccDes= 0.00D+00 IRadAn=         1 IDoV= 1 UseB2=F ITyADJ=14
 ICtDFT=  3500011 ScaDFX=  1.000000  1.000000  1.000000  1.000000
 FoFCou: FMM=F IPFlag=           0 FMFlag=      100000 FMFlg1=           0
         NFxFlg=           0 DoJE=T BraDBF=F KetDBF=T FulRan=T
         wScrn=  0.000000 ICntrl=     500 IOpCl=  0 I1Cent=   200000004 NGrid=           0
         NMat0=    1 NMatS0=      1 NMatT0=    0 NMatD0=    1 NMtDS0=    0 NMtDT0=    0
 Symmetry not used in FoFCou.
 Requested convergence on RMS density matrix=1.00D-08 within 128 cycles.
 Requested convergence on MAX density matrix=1.00D-06.
 Requested convergence on             energy=1.00D-06.
 No special actions if energy rises.
 Integral accuracy reduced to 1.0D-05 until final iterations.
 Initial convergence to 1.0D-05 achieved.  Increase integral accuracy.
 SCF Done:  E(RB3LYP) =  -839.992005544     A.U. after   11 cycles
            NFock= 11  Conv=0.39D-08     -V/T= 2.0085
 DoSCS=F DFT=T ScalE2(SS,OS)=  1.000000  1.000000
 Range of M.O.s used for correlation:     1   242
 NBasis=   242 NAE=    58 NBE=    58 NFC=     0 NFV=     0
 NROrb=    242 NOA=    58 NOB=    58 NVA=   184 NVB=   184
 Symmetrizing basis deriv contribution to polar:
 IMax=3 JMax=2 DiffMx= 0.00D+00
 Calling FoFJK, ICntrl=      2147 FMM=F ISym2X=0 I1Cent= 0 IOpClX= 0 NMat=1 NMatS=1 NMatT=0.
 -------------------------------------------------------------------
 Center     Atomic                   Forces (Hartrees/Bohr)
 Number     Number              X              Y              Z
 -------------------------------------------------------------------
      1        8           0.000020455   -0.000013044    0.000009356
      2        6          -0.000002578   -0.000015856    0.000008969
      3        6          -0.000004792   -0.000023718    0.000003922
      4        6           0.000000270   -0.000013532   -0.000024335
      5        6           0.000008853    0.000004779   -0.000005101
      6        6           0.000015177   -0.000009979    0.000006986
      7        1          -0.000011388   -0.000002609   -0.000009106
      8        1           0.000003689   -0.000003297   -0.000003835
      9        1           0.000003389    0.000002036   -0.000003501
     10        1          -0.000002093    0.000001133   -0.000003723
     11        6           0.000027222   -0.000010581   -0.000028046
     12        1          -0.000012719    0.000011238    0.000014798
     13        1           0.000009784   -0.000032222   -0.000002500
     14        1          -0.000002548    0.000000912    0.000002458
     15        8          -0.000004017   -0.000000531    0.000002155
     16        1          -0.000000804    0.000004334    0.000004332
     17        8           0.000017875    0.000055076   -0.000025736
     18        1          -0.000001449    0.000112692   -0.000020128
     19        8          -0.000032689   -0.000010026    0.000005035
     20        1          -0.000002523    0.000002177    0.000003094
     21        8          -0.000678663   -0.000804412    0.000236907
     22        1           0.000597496    0.000720960   -0.000199487
     23        8           0.000023657   -0.000005506   -0.000007596
     24        1          -0.000003118   -0.000001114    0.000003128
     25        8           0.000007815    0.000011451    0.000005654
     26        1           0.000002585    0.000004908    0.000001330
     27        1          -0.000003078    0.000010242    0.000011499
     28        8           0.000017287    0.000003700    0.000002034
     29        1          -0.000001093    0.000001926    0.000004661
     30        1           0.000007999   -0.000001137    0.000006776
 -------------------------------------------------------------------
 Cartesian Forces:  Max     0.000804412 RMS     0.000153003
 IRC-IRC-IRC-IRC-IRC-IRC-IRC-IRC-IRC-IRC-IRC-IRC-IRC-IRC-IRC-IRC-IRC-IRC
 Pt  1 Step number   1 out of a maximum of  20
 Modified Bulirsch-Stoer Extrapolation Cycles:
    EPS =    0.000010000000000
 Maximum DWI energy   std dev =  0.000000622 at pt     2
 Maximum DWI gradient std dev =  1.856167102 at pt    33
 CORRECTOR INTEGRATION CONVERGENCE:
   Recorrection delta-x convergence threshold:    0.010000
   Delta-x Convergence NOT Met
 IRC-IRC-IRC-IRC-IRC-IRC-IRC-IRC-IRC-IRC-IRC-IRC-IRC-IRC-IRC-IRC-IRC-IRC
                          Input orientation:                          
 ---------------------------------------------------------------------
 Center     Atomic      Atomic             Coordinates (Angstroms)
 Number     Number       Type             X           Y           Z
 ---------------------------------------------------------------------
      1          8           0        0.460937   -0.737467   -0.739126
      2          6           0       -1.199076   -0.379616    1.047137
      3          6           0       -0.189052    1.590862   -0.220736
      4          6           0       -1.336276    1.117098    0.697139
      5          6           0        0.948108    0.574318   -0.313010
      6          6           0       -0.774002   -1.204360   -0.166400
      7          1           0       -1.273537    1.702610    1.629016
      8          1           0       -0.587566   -2.229069    0.187587
      9          1           0       -2.173316   -0.755590    1.391841
     10          1           0       -0.600671    1.726302   -1.231121
     11          6           0       -1.837622   -1.235115   -1.279599
     12          1           0       -1.517280   -1.941562   -2.056622
     13          1           0       -1.922948   -0.248131   -1.734153
     14          1           0        1.410097    0.452650    0.672236
     15          8           0        1.863676    1.021694   -1.240995
     16          1           0        2.746031    0.641762   -0.990610
     17          8           0       -3.140300   -1.548267   -0.784514
     18          1           0       -3.156479   -2.485360   -0.534652
     19          8           0        0.329819    2.809040    0.287512
     20          1           0        1.104669    3.009403   -0.266013
     21          8           0       -2.574995    1.382636    0.046138
     22          1           0       -3.195429    0.656573    0.221523
     23          8           0       -0.211198   -0.615119    2.057438
     24          1           0       -0.396239   -0.023266    2.804081
     25          8           0        4.075233   -0.233756   -0.249547
     26          1           0        3.603749   -0.960756    0.230662
     27          1           0        4.593049   -0.688617   -0.930745
     28          8           0        2.347044   -2.123548    0.736665
     29          1           0        1.904075   -1.846978    1.556489
     30          1           0        1.714677   -1.819053    0.047539
 ---------------------------------------------------------------------
                    Distance matrix (angstroms):
                    1          2          3          4          5
     1  O    0.000000
     2  C    2.464636   0.000000
     3  C    2.472312   2.551555   0.000000
     4  C    2.955037   1.543203   1.543719   0.000000
     5  C    1.462768   2.714846   1.528074   2.556056   0.000000
     6  C    1.439124   1.527600   2.856289   2.539886   2.480092
     7  H    3.817129   2.163284   2.147132   1.102341   3.159148
     8  H    2.045246   2.129142   3.862307   3.466561   3.235409
     9  H    3.388308   1.099691   3.470381   2.165689   3.797164
    10  H    2.727494   3.159658   1.099387   2.151843   2.137454
    11  C    2.413117   2.559945   3.438767   3.113157   3.459571
    12  H    2.664392   3.489161   4.196748   4.119632   3.930391
    13  H    2.629151   2.876952   2.945967   2.849424   3.307421
    14  H    2.075867   2.764236   2.156433   2.825717   1.094964
    15  O    2.305254   4.071814   2.361900   3.742347   1.378247
    16  H    2.680890   4.556258   3.179341   4.442935   1.922555
    17  O    3.691661   2.913595   4.345324   3.543157   4.630633
    18  H    4.022765   3.281408   5.051708   4.219971   5.124295
    19  O    3.694440   3.616916   1.418274   2.409634   2.395180
    20  H    3.831092   4.303145   1.920423   3.235227   2.440566
    21  O    3.785281   2.449629   2.409835   1.424337   3.632440
    22  H    4.029294   2.395987   3.179118   1.973510   4.178683
    23  O    2.878802   1.432506   3.171264   2.473215   2.894438
    24  H    3.714721   1.964278   3.434800   2.573578   3.446829
    25  O    3.681922   5.433323   4.638339   5.657336   3.230467
    26  H    3.296606   4.906269   4.593457   5.379491   3.115198
    27  H    4.136841   6.128312   5.344963   6.408394   3.906686
    28  O    2.767052   3.963919   4.598395   4.906139   3.215170
    29  H    2.929763   3.470178   4.399824   4.474831   3.204930
    30  H    1.833176   3.400166   3.914547   4.283840   2.538868
                    6          7          8          9         10
     6  C    0.000000
     7  H    3.453047   0.000000
     8  H    1.100042   4.243392   0.000000
     9  H    2.141865   2.628422   2.477089   0.000000
    10  H    3.122892   2.938315   4.202126   3.938645   0.000000
    11  C    1.539949   4.172345   2.168690   2.734817   3.209733
    12  H    2.160756   5.188770   2.446119   3.705240   3.869735
    13  H    2.166172   3.941832   3.066014   3.176797   2.428959
    14  H    2.866929   3.111225   3.378928   3.849483   3.047646
    15  O    3.614888   4.306125   4.314730   5.136912   2.563118
    16  H    4.059326   4.913732   4.554414   5.641687   3.526256
    17  O    2.469757   4.458490   2.815123   2.509962   4.167970
    18  H    2.729976   5.076025   2.680789   2.769492   4.975472
    19  O    4.187104   2.365285   5.121925   4.493530   2.084318
    20  H    4.614665   3.309790   5.523677   5.260118   2.342214
    21  O    3.159318   2.074050   4.124838   2.558177   2.376437
    22  H    3.078452   2.601711   3.889606   2.099658   3.160263
    23  O    2.368419   2.585339   2.498565   2.076694   4.055682
    24  H    3.218920   2.264746   3.427567   2.385104   4.402912
    25  O    4.946116   5.990647   5.090585   6.481575   5.164241
    26  H    4.402466   5.730343   4.379223   5.896177   5.199446
    27  H    5.445682   6.832802   5.519278   7.154200   5.735572
    28  O    3.376590   5.342694   2.987400   4.768041   5.232833
    29  H    3.248600   4.764668   2.868477   4.224139   5.178113
    30  H    2.572381   4.881865   2.342658   4.249069   4.423274
                   11         12         13         14         15
    11  C    0.000000
    12  H    1.097931   0.000000
    13  H    1.089971   1.770949   0.000000
    14  H    4.147998   4.663524   4.170250   0.000000
    15  O    4.335237   4.569136   4.024199   2.046948   0.000000
    16  H    4.961457   5.097624   4.810834   2.141387   0.992769
    17  O    1.428336   2.099318   2.018444   5.179951   5.643833
    18  H    1.964038   2.301974   2.822339   5.562562   6.164439
    19  O    4.848590   5.610255   4.302137   2.620608   2.807785
    20  H    5.263113   5.881578   4.683314   2.740545   2.340442
    21  O    3.025543   4.073162   2.500800   4.139786   4.635600
    22  H    2.770468   3.841411   2.502473   4.632019   5.278903
    23  O    3.763703   4.515616   4.176234   2.384850   4.226572
    24  H    4.496955   5.344439   4.793430   2.834451   4.749926
    25  O    6.084864   6.120320   6.179193   2.902376   2.729488
    26  H    5.653731   5.693732   5.908698   2.646660   3.020552
    27  H    6.463272   6.338264   6.580099   3.742088   3.235877
    28  O    4.729277   4.771642   5.277779   2.742046   3.746642
    29  H    4.734772   4.976865   5.294407   2.512809   4.007097
    30  H    3.836809   3.858503   4.344483   2.375637   3.122878
                   16         17         18         19         20
    16  H    0.000000
    17  O    6.283915   0.000000
    18  H    6.695254   0.969968   0.000000
    19  O    3.488376   5.672485   6.392254   0.000000
    20  H    2.970662   6.249877   6.958590   0.973102   0.000000
    21  O    5.471476   3.098344   3.954344   3.245125   4.035311
    22  H    6.063863   2.424143   3.231883   4.130962   4.925885
    23  O    4.428944   4.186537   4.346425   3.892326   4.501899
    24  H    4.971499   4.767967   4.982767   3.857750   4.568948
    25  O    1.755700   7.353777   7.579490   4.855426   4.398023
    26  H    2.189806   6.845286   6.972145   4.993316   4.717441
    27  H    2.277053   7.782356   7.964946   5.647379   5.126990
    28  O    3.284754   5.723275   5.660028   5.348023   5.375504
    29  H    3.659294   5.569133   5.512677   5.076129   5.248334
    30  H    2.863050   4.933197   4.950866   4.836803   4.876927
                   21         22         23         24         25
    21  O    0.000000
    22  H    0.971012   0.000000
    23  O    3.691055   3.727388   0.000000
    24  H    3.785470   3.868753   0.970571   0.000000
    25  O    6.850232   7.340103   4.882735   5.418765   0.000000
    26  H    6.610780   6.988895   4.243865   4.847811   0.990670
    27  H    7.524975   7.987343   5.658217   6.267744   0.969053
    28  O    6.082484   6.222013   3.250292   4.026288   2.744187
    29  H    5.724826   5.835653   2.498561   3.189649   3.252411
    30  H    5.352765   5.501649   3.032844   3.908880   2.858960
                   26         27         28         29         30
    26  H    0.000000
    27  H    1.549723   0.000000
    28  O    1.785338   3.143854   0.000000
    29  H    2.330686   3.841707   0.972020   0.000000
    30  H    2.082979   3.243448   0.983615   1.521046   0.000000
 Symmetry turned off by external request.
 Stoichiometry    C6H16O8
 Framework group  C1[X(C6H16O8)]
 Deg. of freedom    84
 Full point group                 C1      NOp   1
 Rotational constants (GHZ):      0.8209638      0.4807139      0.3922869
 Standard basis: 6-31G(d) (6D, 7F)
   242 basis functions,   456 primitive gaussians,   242 cartesian basis functions
    58 alpha electrons       58 beta electrons
       nuclear repulsion energy      1118.4700372098 Hartrees.
 NAtoms=   30 NActive=   30 NUniq=   30 SFac= 1.00D+00 NAtFMM=   60 NAOKFM=F Big=F
 Integral buffers will be    131072 words long.
 Raffenetti 2 integral format.
 Two-electron integral symmetry is turned off.
 One-electron integrals computed using PRISM.
 NBasis=   242 RedAO= T EigKep=  1.28D-03  NBF=   242
 NBsUse=   242 1.00D-06 EigRej= -1.00D+00 NBFU=   242
 Initial guess from the checkpoint file:  "/scratch/10502186.yak.local/Gau-10455.chk"
 B after Tr=     0.000010   -0.000012   -0.000001
         Rot=    1.000000   -0.000067    0.000067   -0.000055 Ang=  -0.01 deg.
 ExpMin= 1.61D-01 ExpMax= 5.48D+03 ExpMxC= 8.25D+02 IAcc=1 IRadAn=         1 AccDes= 0.00D+00
 Harris functional with IExCor=  402 and IRadAn=       1 diagonalized for initial guess.
 HarFok:  IExCor=  402 AccDes= 0.00D+00 IRadAn=         1 IDoV= 1 UseB2=F ITyADJ=14
 ICtDFT=  3500011 ScaDFX=  1.000000  1.000000  1.000000  1.000000
 FoFCou: FMM=F IPFlag=           0 FMFlag=      100000 FMFlg1=           0
         NFxFlg=           0 DoJE=T BraDBF=F KetDBF=T FulRan=T
         wScrn=  0.000000 ICntrl=     500 IOpCl=  0 I1Cent=   200000004 NGrid=           0
         NMat0=    1 NMatS0=      1 NMatT0=    0 NMatD0=    1 NMtDS0=    0 NMtDT0=    0
 Symmetry not used in FoFCou.
 Requested convergence on RMS density matrix=1.00D-08 within 128 cycles.
 Requested convergence on MAX density matrix=1.00D-06.
 Requested convergence on             energy=1.00D-06.
 No special actions if energy rises.
 Integral accuracy reduced to 1.0D-05 until final iterations.
 Initial convergence to 1.0D-05 achieved.  Increase integral accuracy.
 SCF Done:  E(RB3LYP) =  -839.992006480     A.U. after    9 cycles
            NFock=  9  Conv=0.40D-08     -V/T= 2.0085
 DoSCS=F DFT=T ScalE2(SS,OS)=  1.000000  1.000000
 Range of M.O.s used for correlation:     1   242
 NBasis=   242 NAE=    58 NBE=    58 NFC=     0 NFV=     0
 NROrb=    242 NOA=    58 NOB=    58 NVA=   184 NVB=   184
 Symmetrizing basis deriv contribution to polar:
 IMax=3 JMax=2 DiffMx= 0.00D+00
 Calling FoFJK, ICntrl=      2147 FMM=F ISym2X=0 I1Cent= 0 IOpClX= 0 NMat=1 NMatS=1 NMatT=0.
 -------------------------------------------------------------------
 Center     Atomic                   Forces (Hartrees/Bohr)
 Number     Number              X              Y              Z
 -------------------------------------------------------------------
      1        8           0.000019775   -0.000011189    0.000009829
      2        6           0.000005824   -0.000016178   -0.000002185
      3        6          -0.000012125   -0.000009744   -0.000002896
      4        6          -0.000019515   -0.000023569   -0.000006617
      5        6           0.000000275    0.000000073    0.000002790
      6        6           0.000012894   -0.000012801   -0.000001639
      7        1          -0.000000888   -0.000002095    0.000000655
      8        1           0.000001156   -0.000000751   -0.000001173
      9        1          -0.000000063   -0.000003188   -0.000000734
     10        1          -0.000000518   -0.000000378    0.000000669
     11        6           0.000019205   -0.000005036   -0.000013690
     12        1          -0.000001383    0.000000736    0.000002355
     13        1           0.000003205   -0.000006279    0.000000757
     14        1          -0.000000439    0.000000401    0.000000706
     15        8          -0.000002645    0.000005733    0.000004714
     16        1          -0.000000012    0.000001580    0.000001373
     17        8           0.000000697    0.000110256   -0.000029092
     18        1          -0.000000901    0.000007770   -0.000002395
     19        8          -0.000031288   -0.000010764    0.000005753
     20        1          -0.000001872    0.000000372    0.000001605
     21        8           0.000055504    0.000098476    0.000006144
     22        1          -0.000084414   -0.000151148   -0.000004437
     23        8           0.000010087   -0.000004972   -0.000004602
     24        1          -0.000000942   -0.000001555    0.000000062
     25        8           0.000003739    0.000023963    0.000015983
     26        1           0.000000621    0.000001589    0.000001091
     27        1           0.000000752    0.000002943    0.000002379
     28        8           0.000021343    0.000005165    0.000011495
     29        1           0.000000625    0.000000162    0.000000582
     30        1           0.000001305    0.000000431    0.000000520
 -------------------------------------------------------------------
 Cartesian Forces:  Max     0.000151148 RMS     0.000026216
 IRC-IRC-IRC-IRC-IRC-IRC-IRC-IRC-IRC-IRC-IRC-IRC-IRC-IRC-IRC-IRC-IRC-IRC
 Error in corrector energy =          -0.0000003861
 Magnitude of corrector gradient =     0.0001594956
 Magnitude of analytic gradient =      0.0002487051
 Magnitude of difference =             0.0002419336
 Angle between gradients (degrees)=   68.7444
 Pt  1 Step number   2 out of a maximum of  20
 Modified Bulirsch-Stoer Extrapolation Cycles:
    EPS =    0.000010000000000
 Maximum DWI energy   std dev =  0.000000196 at pt     2
 Maximum DWI gradient std dev =  1.782712744 at pt    31
 CORRECTOR INTEGRATION CONVERGENCE:
   Recorrection delta-x convergence threshold:    0.010000
   Delta-x Convergence NOT Met
 IRC-IRC-IRC-IRC-IRC-IRC-IRC-IRC-IRC-IRC-IRC-IRC-IRC-IRC-IRC-IRC-IRC-IRC
                          Input orientation:                          
 ---------------------------------------------------------------------
 Center     Atomic      Atomic             Coordinates (Angstroms)
 Number     Number       Type             X           Y           Z
 ---------------------------------------------------------------------
      1          8           0        0.460890   -0.737325   -0.739222
      2          6           0       -1.199155   -0.379541    1.047062
      3          6           0       -0.189001    1.590968   -0.220674
      4          6           0       -1.336278    1.117206    0.697219
      5          6           0        0.948132    0.574413   -0.312971
      6          6           0       -0.774016   -1.204230   -0.166514
      7          1           0       -1.273310    1.702577    1.629141
      8          1           0       -0.587635   -2.228967    0.187424
      9          1           0       -2.173439   -0.755468    1.391689
     10          1           0       -0.600610    1.726479   -1.231052
     11          6           0       -1.837587   -1.234965   -1.279730
     12          1           0       -1.516922   -1.940835   -2.057113
     13          1           0       -1.923428   -0.247825   -1.733851
     14          1           0        1.410065    0.452622    0.672285
     15          8           0        1.863757    1.021775   -1.240894
     16          1           0        2.746096    0.641826   -0.990476
     17          8           0       -3.140096   -1.548963   -0.784759
     18          1           0       -3.155750   -2.486078   -0.534976
     19          8           0        0.329916    2.809101    0.287641
     20          1           0        1.104806    3.009459   -0.265828
     21          8           0       -2.575362    1.383134    0.046974
     22          1           0       -3.194072    0.654016    0.217884
     23          8           0       -0.211361   -0.615206    2.057387
     24          1           0       -0.396633   -0.023658    2.804215
     25          8           0        4.075231   -0.233753   -0.249449
     26          1           0        3.603726   -0.960771    0.230705
     27          1           0        4.593114   -0.688572   -0.930622
     28          8           0        2.346909   -2.123551    0.736558
     29          1           0        1.903871   -1.847019    1.556358
     30          1           0        1.714623   -1.818998    0.047389
 ---------------------------------------------------------------------
                    Distance matrix (angstroms):
                    1          2          3          4          5
     1  O    0.000000
     2  C    2.464665   0.000000
     3  C    2.472286   2.551563   0.000000
     4  C    2.955074   1.543194   1.543769   0.000000
     5  C    1.462789   2.714878   1.528062   2.556098   0.000000
     6  C    1.439093   1.527620   2.856275   2.539929   2.480084
     7  H    3.817030   2.163223   2.147091   1.102317   3.159013
     8  H    2.045256   2.129158   3.862300   3.466589   3.235416
     9  H    3.388333   1.099689   3.470370   2.165649   3.797191
    10  H    2.727455   3.159650   1.099385   2.151895   2.137459
    11  C    2.413046   2.559943   3.438798   3.113254   3.459581
    12  H    2.664021   3.489200   4.196369   4.119538   3.930012
    13  H    2.629424   2.876699   2.946031   2.849238   3.307693
    14  H    2.075876   2.764234   2.156437   2.825720   1.094964
    15  O    2.305243   4.071838   2.361916   3.742408   1.378239
    16  H    2.680924   4.556288   3.179349   4.442980   1.922558
    17  O    3.691603   2.913824   4.345839   3.543795   4.630866
    18  H    4.022429   3.281555   5.051998   4.220479   5.124230
    19  O    3.694421   3.616936   1.418277   2.409661   2.395153
    20  H    3.831073   4.303166   1.920440   3.235269   2.440536
    21  O    3.785931   2.449724   2.410300   1.424383   3.632988
    22  H    4.026242   2.394884   3.178154   1.973754   4.176841
    23  O    2.878864   1.432491   3.171320   2.473206   2.894515
    24  H    3.714918   1.964251   3.435125   2.573701   3.447163
    25  O    3.681973   5.433355   4.638330   5.657358   3.230466
    26  H    3.296681   4.906316   4.593462   5.379522   3.115213
    27  H    4.136941   6.128386   5.344993   6.408462   3.906727
    28  O    2.767059   3.963906   4.598346   4.906111   3.215136
    29  H    2.929728   3.470107   4.399740   4.474742   3.204866
    30  H    1.833199   3.400218   3.914526   4.283873   2.538855
                    6          7          8          9         10
     6  C    0.000000
     7  H    3.452999   0.000000
     8  H    1.100044   4.243317   0.000000
     9  H    2.141908   2.628421   2.477142   0.000000
    10  H    3.122878   2.938334   4.202119   3.938607   0.000000
    11  C    1.539927   4.172421   2.168632   2.734812   3.209772
    12  H    2.160754   5.188667   2.446332   3.705448   3.869263
    13  H    2.166195   3.941629   3.066034   3.176351   2.429101
    14  H    2.866872   3.111023   3.378878   3.849484   3.047658
    15  O    3.614864   4.306018   4.314712   5.136929   2.563164
    16  H    4.059313   4.913574   4.554411   5.641716   3.526299
    17  O    2.469697   4.459183   2.814713   2.510177   4.168536
    18  H    2.729753   5.076594   2.680146   2.769834   4.975831
    19  O    4.187094   2.365239   5.121921   4.493535   2.084317
    20  H    4.614651   3.309726   5.523667   5.260125   2.342250
    21  O    3.159885   2.073798   4.125295   2.558010   2.377159
    22  H    3.075306   2.603930   3.886648   2.099084   3.158424
    23  O    2.368389   2.585198   2.498513   2.076674   4.055717
    24  H    3.218913   2.264784   3.427458   2.384914   4.403177
    25  O    4.946100   5.990440   5.090585   6.481620   5.164256
    26  H    4.402463   5.730142   4.379235   5.896242   5.199469
    27  H    5.445718   6.832636   5.519329   7.154288   5.735633
    28  O    3.376516   5.342466   2.987341   4.768060   5.232789
    29  H    3.248468   4.764390   2.868355   4.224104   5.178027
    30  H    2.572356   4.881719   2.342663   4.249149   4.423248
                   11         12         13         14         15
    11  C    0.000000
    12  H    1.097908   0.000000
    13  H    1.089972   1.770884   0.000000
    14  H    4.147959   4.663208   4.170407   0.000000
    15  O    4.335243   4.568617   4.024632   2.046955   0.000000
    16  H    4.961467   5.097173   4.811293   2.141389   0.992770
    17  O    1.428328   2.099320   2.018419   5.180086   5.644050
    18  H    1.964051   2.302162   2.822356   5.562383   6.164317
    19  O    4.848628   5.609864   4.302184   2.620623   2.807779
    20  H    5.263155   5.881119   4.683501   2.740557   2.340437
    21  O    3.026367   4.073849   2.501276   4.140108   4.636266
    22  H    2.766071   3.836886   2.497423   4.630888   5.276828
[...]
 Alpha  occ. eigenvalues --  -10.25692 -10.24831 -10.24419 -10.23302  -1.07119
 Alpha  occ. eigenvalues --   -1.04769  -1.03993  -1.02745  -1.01574  -1.01165
 Alpha  occ. eigenvalues --   -1.00397  -0.99178  -0.79011  -0.76542  -0.69727
 Alpha  occ. eigenvalues --   -0.66051  -0.63198  -0.56575  -0.55764  -0.54183
 Alpha  occ. eigenvalues --   -0.53461  -0.52897  -0.52409  -0.51797  -0.51118
 Alpha  occ. eigenvalues --   -0.48199  -0.47000  -0.44223  -0.43367  -0.42493
 Alpha  occ. eigenvalues --   -0.41808  -0.40978  -0.39980  -0.39244  -0.38816
 Alpha  occ. eigenvalues --   -0.37211  -0.35821  -0.35198  -0.33777  -0.32319
 Alpha  occ. eigenvalues --   -0.31257  -0.30851  -0.29872  -0.29502  -0.29097
 Alpha  occ. eigenvalues --   -0.27741  -0.27177  -0.25207
 Alpha virt. eigenvalues --    0.03564   0.04680   0.06510   0.08242   0.09695
 Alpha virt. eigenvalues --    0.10615   0.11323   0.11603   0.12149   0.14041
 Alpha virt. eigenvalues --    0.14839   0.16604   0.17546   0.18289   0.19720
 Alpha virt. eigenvalues --    0.20119   0.20855   0.21052   0.23016   0.23854
 Alpha virt. eigenvalues --    0.24276   0.24768   0.25551   0.28374   0.30267
 Alpha virt. eigenvalues --    0.30951   0.32633   0.34545   0.52645   0.52973
 Alpha virt. eigenvalues --    0.54008   0.55552   0.56491   0.58095   0.58644
 Alpha virt. eigenvalues --    0.59904   0.62495   0.63394   0.65000   0.66579
 Alpha virt. eigenvalues --    0.69426   0.70083   0.72212   0.72721   0.73484
 Alpha virt. eigenvalues --    0.75803   0.77707   0.79488   0.80324   0.80962
 Alpha virt. eigenvalues --    0.81455   0.82838   0.84192   0.84706   0.85681
 Alpha virt. eigenvalues --    0.86269   0.87017   0.87552   0.88298   0.89101
 Alpha virt. eigenvalues --    0.90568   0.92103   0.93150   0.94026   0.96134
 Alpha virt. eigenvalues --    0.96402   0.98751   0.99494   1.01161   1.02665
 Alpha virt. eigenvalues --    1.04315   1.04912   1.06212   1.07420   1.08195
 Alpha virt. eigenvalues --    1.09876   1.10782   1.11537   1.12841   1.15448
 Alpha virt. eigenvalues --    1.18054   1.19987   1.22894   1.23992   1.26065
 Alpha virt. eigenvalues --    1.28590   1.29693   1.32235   1.32815   1.36372
 Alpha virt. eigenvalues --    1.38362   1.40657   1.43984   1.44255   1.47176
 Alpha virt. eigenvalues --    1.51312   1.54568   1.55643   1.56636   1.59895
 Alpha virt. eigenvalues --    1.61644   1.63520   1.63531   1.67817   1.68605
 Alpha virt. eigenvalues --    1.69526   1.71990   1.72888   1.73173   1.74695
 Alpha virt. eigenvalues --    1.76172   1.76401   1.77462   1.79964   1.80322
 Alpha virt. eigenvalues --    1.81788   1.82328   1.83313   1.85131   1.87922
 Alpha virt. eigenvalues --    1.89353   1.89583   1.92713   1.95591   1.96556
 Alpha virt. eigenvalues --    1.97518   1.98608   2.02143   2.04708   2.05715
 Alpha virt. eigenvalues --    2.07437   2.08939   2.11779   2.14195   2.16978
 Alpha virt. eigenvalues --    2.19506   2.22312   2.25366   2.27536   2.28620
 Alpha virt. eigenvalues --    2.30412   2.32592   2.34908   2.35727   2.37987
 Alpha virt. eigenvalues --    2.41548   2.44819   2.45806   2.47728   2.50579
 Alpha virt. eigenvalues --    2.52973   2.53484   2.54510   2.57637   2.59383
 Alpha virt. eigenvalues --    2.62211   2.63119   2.65606   2.67673   2.68987
 Alpha virt. eigenvalues --    2.73496   2.75296   2.80821   2.87628   2.88074
 Alpha virt. eigenvalues --    2.93173   2.98554   3.01610   3.07767   3.09435
 Alpha virt. eigenvalues --    3.73001   3.74438   3.78978   3.84671   3.85734
 Alpha virt. eigenvalues --    3.94350   4.02130   4.17409   4.27630   4.34086
 Alpha virt. eigenvalues --    4.46275   4.52778   4.71414   4.84394
          Condensed to atoms (all electrons):
               1          2          3          4          5          6
     1  O    8.442818  -0.028552  -0.029020  -0.005372   0.130382   0.167063
     2  C   -0.028552   5.059280  -0.020962   0.303321  -0.007098   0.306898
     3  C   -0.029020  -0.020962   5.004527   0.291011   0.301798  -0.013666
     4  C   -0.005372   0.303321   0.291011   4.973289  -0.033655  -0.021759
     5  C    0.130382  -0.007098   0.301798  -0.033655   4.793654  -0.020859
     6  C    0.167063   0.306898  -0.013666  -0.021759  -0.020859   5.005240
     7  H   -0.000048  -0.054147  -0.054920   0.355375   0.002956   0.004919
     8  H   -0.042055  -0.047899  -0.000298   0.005656   0.001605   0.354735
     9  H    0.002898   0.355702   0.005605  -0.055677   0.000752  -0.044910
    10  H    0.001391   0.000656   0.343173  -0.051249  -0.040368   0.001991
    11  C   -0.034370  -0.048573  -0.001849  -0.001426   0.000621   0.322008
    12  H    0.004494   0.006465  -0.000107  -0.000343  -0.000199  -0.046574
    13  H    0.002677  -0.009996  -0.002343   0.002539   0.000852  -0.037730
    14  H   -0.054127  -0.000746  -0.056825  -0.004959   0.350241  -0.002753
    15  O   -0.052296  -0.000200  -0.042727   0.002991   0.263936   0.003422
    16  H    0.002080   0.000066   0.005240  -0.000166  -0.020342  -0.000269
    17  O    0.001493  -0.003004   0.000099  -0.001882  -0.000028  -0.042091
    18  H    0.000005  -0.001254   0.000001   0.000122   0.000002  -0.002289
    19  O    0.001486   0.001513   0.225984  -0.034866  -0.032708   0.000176
    20  H    0.000413  -0.000254  -0.033764   0.007373  -0.007808  -0.000049
    21  O   -0.000001  -0.021204  -0.045299   0.222126   0.002906  -0.004232
    22  H    0.000081  -0.003731   0.006137  -0.035762  -0.000355  -0.001798
    23  O    0.001911   0.182560   0.000858  -0.033615  -0.004868  -0.044370
    24  H   -0.000095  -0.027641  -0.000874  -0.002250   0.000036   0.006691
    25  O   -0.000409   0.000002   0.000074   0.000000   0.003373  -0.000004
    26  H    0.000138   0.000026   0.000072  -0.000004   0.001018  -0.000064
    27  H    0.000003  -0.000000   0.000000  -0.000000   0.000020  -0.000000
    28  O   -0.022997  -0.000774   0.000131  -0.000003   0.003096   0.001926
    29  H    0.000942  -0.001195   0.000001   0.000067  -0.000019   0.000383
    30  H    0.058539   0.000782   0.000851  -0.000057  -0.002139  -0.001569
               7          8          9         10         11         12
     1  O   -0.000048  -0.042055   0.002898   0.001391  -0.034370   0.004494
     2  C   -0.054147  -0.047899   0.355702   0.000656  -0.048573   0.006465
     3  C   -0.054920  -0.000298   0.005605   0.343173  -0.001849  -0.000107
     4  C    0.355375   0.005656  -0.055677  -0.051249  -0.001426  -0.000343
     5  C    0.002956   0.001605   0.000752  -0.040368   0.000621  -0.000199
     6  C    0.004919   0.354735  -0.044910   0.001991   0.322008  -0.046574
     7  H    0.628300  -0.000236  -0.004872   0.005215   0.000288   0.000009
     8  H   -0.000236   0.644491  -0.002045   0.000048  -0.050043  -0.007523
     9  H   -0.004872  -0.002045   0.625949  -0.000349  -0.004222   0.000109
    10  H    0.005215   0.000048  -0.000349   0.612930  -0.001338   0.000055
    11  C    0.000288  -0.050043  -0.004222  -0.001338   4.969214   0.360564
    12  H    0.000009  -0.007523   0.000109   0.000055   0.360564   0.602070
    13  H    0.000200   0.005349  -0.000103   0.005094   0.371025  -0.032145
    14  H    0.000918   0.000605   0.000162   0.007899  -0.000247   0.000007
    15  O   -0.000122  -0.000129   0.000006  -0.002069   0.000003  -0.000001
    16  H    0.000008  -0.000005  -0.000000  -0.000224  -0.000004   0.000001
    17  O   -0.000033   0.003186   0.014788   0.000036   0.216461  -0.029354
    18  H    0.000001   0.003313   0.000755   0.000000  -0.028647  -0.006950
    19  O    0.005003   0.000005  -0.000064  -0.034483   0.000014  -0.000000
    20  H   -0.000384   0.000001   0.000006  -0.002580  -0.000001  -0.000000
    21  O   -0.034830  -0.000116  -0.002339   0.000500   0.002502   0.000345
    22  H    0.001047  -0.000103   0.010361   0.000017  -0.002791   0.000234
    23  O   -0.000922  -0.000305  -0.032626  -0.000080   0.002916  -0.000040
    24  H    0.009486  -0.000250  -0.002751   0.000028  -0.000213   0.000006
    25  O   -0.000000   0.000002   0.000000  -0.000000  -0.000000  -0.000000
    26  H    0.000000  -0.000028  -0.000000  -0.000001  -0.000002  -0.000000
    27  H    0.000000  -0.000000  -0.000000   0.000000  -0.000000   0.000000
    28  O    0.000000   0.004417  -0.000006  -0.000001   0.000033  -0.000001
    29  H   -0.000005   0.000673   0.000055   0.000001   0.000043  -0.000002
    30  H    0.000003  -0.004696  -0.000048  -0.000020   0.000459   0.000034
              13         14         15         16         17         18
     1  O    0.002677  -0.054127  -0.052296   0.002080   0.001493   0.000005
     2  C   -0.009996  -0.000746  -0.000200   0.000066  -0.003004  -0.001254
     3  C   -0.002343  -0.056825  -0.042727   0.005240   0.000099   0.000001
     4  C    0.002539  -0.004959   0.002991  -0.000166  -0.001882   0.000122
     5  C    0.000852   0.350241   0.263936  -0.020342  -0.000028   0.000002
     6  C   -0.037730  -0.002753   0.003422  -0.000269  -0.042091  -0.002289
     7  H    0.000200   0.000918  -0.000122   0.000008  -0.000033   0.000001
     8  H    0.005349   0.000605  -0.000129  -0.000005   0.003186   0.003313
     9  H   -0.000103   0.000162   0.000006  -0.000000   0.014788   0.000755
    10  H    0.005094   0.007899  -0.002069  -0.000224   0.000036   0.000000
    11  C    0.371025  -0.000247   0.000003  -0.000004   0.216461  -0.028647
    12  H   -0.032145   0.000007  -0.000001   0.000001  -0.029354  -0.006950
    13  H    0.525234   0.000083  -0.000107   0.000000  -0.034089   0.006684
    14  H    0.000083   0.667005  -0.049212  -0.006024   0.000006   0.000000
    15  O   -0.000107  -0.049212   8.340527   0.203042   0.000000  -0.000000
    16  H    0.000000  -0.006024   0.203042   0.304045  -0.000000  -0.000000
    17  O   -0.034089   0.000006   0.000000  -0.000000   8.248886   0.234444
    18  H    0.006684   0.000000  -0.000000  -0.000000   0.234444   0.396101
    19  O    0.000012   0.004915  -0.005505  -0.000177   0.000000   0.000000
    20  H   -0.000003   0.000735   0.022767  -0.000445  -0.000000   0.000000
    21  O    0.011929  -0.000023  -0.000010   0.000001  -0.002983   0.000099
    22  H   -0.003123   0.000018   0.000002  -0.000000   0.015136  -0.000501
    23  O   -0.000022   0.011026   0.000133   0.000002   0.000055  -0.000025
    24  H    0.000006   0.000560  -0.000012   0.000000   0.000010   0.000000
    25  O   -0.000000   0.001914  -0.030357   0.081276   0.000000  -0.000000
    26  H    0.000000  -0.000278   0.002386  -0.006230   0.000000   0.000000
    27  H    0.000000  -0.000106   0.001505  -0.003784   0.000000   0.000000
    28  O    0.000000   0.007289  -0.000423   0.000283   0.000000  -0.000000
    29  H    0.000000   0.001811   0.000022  -0.000055  -0.000000  -0.000000
    30  H   -0.000028  -0.005025   0.000699   0.000861  -0.000005  -0.000001
              19         20         21         22         23         24
     1  O    0.001486   0.000413  -0.000001   0.000081   0.001911  -0.000095
     2  C    0.001513  -0.000254  -0.021204  -0.003731   0.182560  -0.027641
     3  C    0.225984  -0.033764  -0.045299   0.006137   0.000858  -0.000874
     4  C   -0.034866   0.007373   0.222126  -0.035762  -0.033615  -0.002250
     5  C   -0.032708  -0.007808   0.002906  -0.000355  -0.004868   0.000036
     6  C    0.000176  -0.000049  -0.004232  -0.001798  -0.044370   0.006691
     7  H    0.005003  -0.000384  -0.034830   0.001047  -0.000922   0.009486
     8  H    0.000005   0.000001  -0.000116  -0.000103  -0.000305  -0.000250
     9  H   -0.000064   0.000006  -0.002339   0.010361  -0.032626  -0.002751
    10  H   -0.034483  -0.002580   0.000500   0.000017  -0.000080   0.000028
    11  C    0.000014  -0.000001   0.002502  -0.002791   0.002916  -0.000213
    12  H   -0.000000  -0.000000   0.000345   0.000234  -0.000040   0.000006
    13  H    0.000012  -0.000003   0.011929  -0.003123  -0.000022   0.000006
    14  H    0.004915   0.000735  -0.000023   0.000018   0.011026   0.000560
    15  O   -0.005505   0.022767  -0.000010   0.000002   0.000133  -0.000012
    16  H   -0.000177  -0.000445   0.000001  -0.000000   0.000002   0.000000
    17  O    0.000000  -0.000000  -0.002983   0.015136   0.000055   0.000010
    18  H    0.000000   0.000000   0.000099  -0.000501  -0.000025   0.000000
    19  O    8.279945   0.233435   0.000861  -0.000097  -0.000036   0.000013
    20  H    0.233435   0.376207  -0.000168   0.000013   0.000008  -0.000000
    21  O    0.000861  -0.000168   8.275038   0.235070   0.001611  -0.000020
    22  H   -0.000097   0.000013   0.235070   0.367398   0.000135   0.000027
    23  O   -0.000036   0.000008   0.001611   0.000135   8.311023   0.233655
    24  H    0.000013  -0.000000  -0.000020   0.000027   0.233655   0.378597
    25  O   -0.000001   0.000012  -0.000000   0.000000  -0.000000  -0.000000
    26  H   -0.000001  -0.000003  -0.000000  -0.000000  -0.000029  -0.000001
    27  H    0.000000  -0.000001   0.000000  -0.000000   0.000000   0.000000
    28  O    0.000000   0.000000   0.000000   0.000000  -0.001961   0.000084
    29  H   -0.000000  -0.000000  -0.000000  -0.000000   0.015246  -0.000554
    30  H   -0.000013  -0.000005  -0.000000  -0.000001  -0.000185   0.000031
              25         26         27         28         29         30
     1  O   -0.000409   0.000138   0.000003  -0.022997   0.000942   0.058539
     2  C    0.000002   0.000026  -0.000000  -0.000774  -0.001195   0.000782
     3  C    0.000074   0.000072   0.000000   0.000131   0.000001   0.000851
     4  C    0.000000  -0.000004  -0.000000  -0.000003   0.000067  -0.000057
     5  C    0.003373   0.001018   0.000020   0.003096  -0.000019  -0.002139
     6  C   -0.000004  -0.000064  -0.000000   0.001926   0.000383  -0.001569
     7  H   -0.000000   0.000000   0.000000   0.000000  -0.000005   0.000003
     8  H    0.000002  -0.000028  -0.000000   0.004417   0.000673  -0.004696
     9  H    0.000000  -0.000000  -0.000000  -0.000006   0.000055  -0.000048
    10  H   -0.000000  -0.000001   0.000000  -0.000001   0.000001  -0.000020
    11  C   -0.000000  -0.000002  -0.000000   0.000033   0.000043   0.000459
    12  H   -0.000000  -0.000000   0.000000  -0.000001  -0.000002   0.000034
    13  H   -0.000000   0.000000   0.000000   0.000000   0.000000  -0.000028
    14  H    0.001914  -0.000278  -0.000106   0.007289   0.001811  -0.005025
    15  O   -0.030357   0.002386   0.001505  -0.000423   0.000022   0.000699
    16  H    0.081276  -0.006230  -0.003784   0.000283  -0.000055   0.000861
    17  O    0.000000   0.000000   0.000000   0.000000  -0.000000  -0.000005
    18  H   -0.000000   0.000000   0.000000  -0.000000  -0.000000  -0.000001
    19  O   -0.000001  -0.000001   0.000000   0.000000  -0.000000  -0.000013
    20  H    0.000012  -0.000003  -0.000001   0.000000  -0.000000  -0.000005
    21  O   -0.000000  -0.000000   0.000000   0.000000  -0.000000  -0.000000
    22  H    0.000000  -0.000000  -0.000000   0.000000  -0.000000  -0.000001
    23  O   -0.000000  -0.000029   0.000000  -0.001961   0.015246  -0.000185
    24  H   -0.000000  -0.000001   0.000000   0.000084  -0.000554   0.000031
    25  O    8.343307   0.202625   0.240663  -0.027694   0.001254   0.004629
    26  H    0.202625   0.316612  -0.014533   0.075298  -0.003498  -0.006372
    27  H    0.240663  -0.014533   0.377593   0.001154  -0.000027   0.000057
    28  O   -0.027694   0.075298   0.001154   8.329125   0.246150   0.214197
    29  H    0.001254  -0.003498  -0.000027   0.246150   0.352721  -0.025154
    30  H    0.004629  -0.006372   0.000057   0.214197  -0.025154   0.322566
 Mulliken charges:
               1
     1  O   -0.549470
     2  C    0.059958
     3  C    0.117091
     4  C    0.119176
     5  C    0.313198
     6  C    0.109534
     7  H    0.136790
     8  H    0.131645
     9  H    0.132862
    10  H    0.153727
    11  C   -0.072424
    12  H    0.148847
    13  H    0.188005
    14  H    0.125129
    15  O   -0.658270
    16  H    0.440821
    17  O   -0.621128
    18  H    0.398138
    19  O   -0.645410
    20  H    0.404497
    21  O   -0.641762
    22  H    0.412588
    23  O   -0.642054
    24  H    0.405430
    25  O   -0.820666
    26  H    0.432867
    27  H    0.397455
    28  O   -0.829326
    29  H    0.411140
    30  H    0.441610
 Sum of Mulliken charges =  -0.00000
 Mulliken charges with hydrogens summed into heavy atoms:
               1
     1  O   -0.549470
     2  C    0.192820
     3  C    0.270819
     4  C    0.255967
     5  C    0.438328
     6  C    0.241178
    11  C    0.264427
    15  O   -0.217449
    17  O   -0.222990
    19  O   -0.240913
    21  O   -0.229174
    23  O   -0.236624
    25  O    0.009656
    28  O    0.023424
 APT charges:
               1
     1  O   -0.421160
     2  C   -0.383999
     3  C   -0.197960
     4  C   -0.316919
     5  C   -0.143442
     6  C   -0.278794
     7  H    0.446602
     8  H    0.416831
     9  H    0.477888
    10  H    0.376430
    11  C   -0.585110
    12  H    0.483834
    13  H    0.297170
    14  H    0.273655
    15  O   -0.672622
    16  H    0.597005
    17  O   -0.870424
    18  H    0.757131
    19  O   -0.765941
    20  H    0.644619
    21  O   -0.725232
    22  H    0.625134
    23  O   -0.871843
    24  H    0.728652
    25  O   -1.120389
    26  H    0.265408
    27  H    0.902664
    28  O   -0.584842
    29  H    0.425624
    30  H    0.220032
 Sum of APT charges =   0.00000
 APT charges with hydrogens summed into heavy atoms:
               1
     1  O   -0.421160
     2  C    0.093888
     3  C    0.178470
     4  C    0.129684
     5  C    0.130213
     6  C    0.138037
    11  C    0.195893
    15  O   -0.075617
    17  O   -0.113293
    19  O   -0.121322
    21  O   -0.100098
    23  O   -0.143191
    25  O    0.047682
    28  O    0.060813
 Electronic spatial extent (au):  <R**2>=           3091.1074
 Charge=             -0.0000 electrons
 Dipole moment (field-independent basis, Debye):
    X=             -1.1316    Y=             -3.5054    Z=              1.6063  Tot=              4.0185
 Quadrupole moment (field-independent basis, Debye-Ang):
   XX=            -84.0370   YY=            -86.9311   ZZ=            -77.6809
   XY=              7.5653   XZ=             -7.4293   YZ=              2.1817
 Traceless Quadrupole moment (field-independent basis, Debye-Ang):
   XX=             -1.1540   YY=             -4.0481   ZZ=              5.2021
   XY=              7.5653   XZ=             -7.4293   YZ=              2.1817
 Octapole moment (field-independent basis, Debye-Ang**2):
  XXX=             35.9276  YYY=            -21.7974  ZZZ=             25.7794  XYY=             -7.1410
  XXY=            -27.2791  XXZ=            -11.8513  XZZ=              4.8496  YZZ=              0.3068
  YYZ=            -15.6463  XYZ=              4.0284
 Hexadecapole moment (field-independent basis, Debye-Ang**3):
 XXXX=          -1920.8340 YYYY=          -1059.3915 ZZZZ=           -445.4650 XXXY=            -38.3576
 XXXZ=           -181.3884 YYYX=            143.2033 YYYZ=            -11.6019 ZZZX=             -4.5784
 ZZZY=              7.4241 XXYY=           -486.0800 XXZZ=           -386.4495 YYZZ=           -260.8173
 XXYZ=             22.8826 YYXZ=             -9.3169 ZZXY=            -21.6724
 N-N= 1.118456296649D+03 E-N=-4.209169401312D+03  KE= 8.328769591203D+02
  Exact polarizability:   0.000   0.000   0.000   0.000   0.000   0.000
 Approx polarizability: 136.381   4.573 128.355  -3.308  -1.869 122.851

 This type of calculation cannot be archived.



 WE LOSE BECAUSE WE WIN

 GAMBLERS,

 RECOLLECTING WHICH,

 TOSS THEIR DICE AGAIN....


                          EMILY DICKINSON  BOLTS OF MELODY NO. 533
 Job cpu time:       0 days  1 hours  2 minutes 18.9 seconds.
 File lengths (MBytes):  RWF=    220 Int=      0 D2E=      0 Chk=      9 Scr=      1
 Normal termination of Gaussian 09 at Tue Jan 31 13:58:33 2017.
