 Entering Gaussian System, Link 0=g09
 Initial command:
 /global/software/gaussian/g09.e01/l1.exe "/scratch/10502185.yak.local/Gau-1633.inp" -scrdir="/scratch/10502185.yak.local/"
 Entering Link 1 = /global/software/gaussian/g09.e01/l1.exe PID=      1634.
  
 Copyright (c) 1988,1990,1992,1993,1995,1998,2003,2009,2015,
            Gaussian, Inc.  All Rights Reserved.
  
 This is part of the Gaussian(R) 09 program.  It is based on
 the Gaussian(R) 03 system (copyright 2003, Gaussian, Inc.),
 the Gaussian(R) 98 system (copyright 1998, Gaussian, Inc.),
 the Gaussian(R) 94 system (copyright 1995, Gaussian, Inc.),
 the Gaussian 92(TM) system (copyright 1992, Gaussian, Inc.),
 the Gaussian 90(TM) system (copyright 1990, Gaussian, Inc.),
 the Gaussian 88(TM) system (copyright 1988, Gaussian, Inc.),
 the Gaussian 86(TM) system (copyright 1986, Carnegie Mellon
 University), and the Gaussian 82(TM) system (copyright 1983,
 Carnegie Mellon University). Gaussian is a federally registered
 trademark of Gaussian, Inc.
  
 This software contains proprietary and confidential information,
 including trade secrets, belonging to Gaussian, Inc.
  
 This software is provided under written license and may be
 used, copied, transmitted, or stored only in accord with that
 written license.
  
 The following legend is applicable only to US Government
 contracts under FAR:
  
                    RESTRICTED RIGHTS LEGEND
  
 Use, reproduction and disclosure by the US Government is
 subject to restrictions as set forth in subparagraphs (a)
 and (c) of the Commercial Computer Software - Restricted
 Rights clause in FAR 52.227-19.
  
 Gaussian, Inc.
 340 Quinnipiac St., Bldg. 40, Wallingford CT 06492
  
  
 ---------------------------------------------------------------
 Warning -- This program may not be used in any manner that
 competes with the business of Gaussian, Inc. or will provide
 assistance to any competitor of Gaussian, Inc.  The licensee
 of this program is prohibited from giving any competitor of
 Gaussian, Inc. access to this program.  By using this program,
 the user acknowledges that Gaussian, Inc. is engaged in the
 business of creating and licensing software in the field of
 computational chemistry and represents and warrants to the
 licensee that it is not a competitor of Gaussian, Inc. and that
 it will not use this program in any manner prohibited above.
 ---------------------------------------------------------------
  

 Cite this work as:
 Gaussian 09, Revision E.01,
 M. J. Frisch, G. W. Trucks, H. B. Schlegel, G. E. Scuseria, 
 M. A. Robb, J. R. Cheeseman, G. Scalmani, V. Barone, B. Mennucci, 
 G. A. Petersson, H. Nakatsuji, M. Caricato, X. Li, H. P. Hratchian, 
 A. F. Izmaylov, J. Bloino, G. Zheng, J. L. Sonnenberg, M. Hada, 
 M. Ehara, K. Toyota, R. Fukuda, J. Hasegawa, M. Ishida, T. Nakajima, 
 Y. Honda, O. Kitao, H. Nakai, T. Vreven, J. A. Montgomery, Jr., 
 J. E. Peralta, F. Ogliaro, M. Bearpark, J. J. Heyd, E. Brothers, 
 K. N. Kudin, V. N. Staroverov, T. Keith, R. Kobayashi, J. Normand, 
 K. Raghavachari, A. Rendell, J. C. Burant, S. S. Iyengar, J. Tomasi, 
 M. Cossi, N. Rega, J. M. Millam, M. Klene, J. E. Knox, J. B. Cross, 
 V. Bakken, C. Adamo, J. Jaramillo, R. Gomperts, R. E. Stratmann, 
 O. Yazyev, A. J. Austin, R. Cammi, C. Pomelli, J. W. Ochterski, 
 R. L. Martin, K. Morokuma, V. G. Zakrzewski, G. A. Voth, 
 P. Salvador, J. J. Dannenberg, S. Dapprich, A. D. Daniels, 
 O. Farkas, J. B. Foresman, J. V. Ortiz, J. Cioslowski, 
 and D. J. Fox, Gaussian, Inc., Wallingford CT, 2013.
 
 ******************************************
 Gaussian 09:  ES64L-G09RevE.01 30-Nov-2015
                31-Jan-2017 
 ******************************************
 %NPROCS=4
 Will use up to    4 processors via shared memory.
 --------------------------------------------------
 # b3lyp/6-31g(d) irc=(calcfc,reverse,maxpoints=20)
 --------------------------------------------------
 1/10=4,14=-1,18=10,22=2,26=3,38=1,42=20,44=3/1,23;
 2/12=2,17=6,18=5,29=1,40=1/2;
 3/5=1,6=6,7=1,11=2,16=1,25=1,30=1,71=2,74=-5,140=1/1,2,3;
 4//1;
 5/5=2,38=5/2;
 8/6=4,10=90,11=11/1;
 11/6=1,8=1,9=11,15=111,16=1/1,2,10;
 10/6=1,13=1/2;
 6/7=2,8=2,9=2,10=2,28=1/1;
 7/10=1,18=20,25=1/1,2,3,16;
 1/10=4,14=-1,18=10,22=2,26=3,42=20,44=3/23(2);
 2/29=1/2;
 99/5=20/99;
 2/29=1/2;
 3/5=1,6=6,7=1,11=2,16=1,25=1,30=1,71=2,74=-5,140=1/1,2,3;
 4/5=5,16=3,69=1/1;
 5/5=2,38=5/2;
 8/6=4,10=90,11=11/1;
 11/6=1,8=1,9=11,15=111,16=1/1,2,10;
 10/6=1,13=1/2;
 7/10=1,18=20,25=1/1,2,3,16;
 1/14=-1,18=10,22=2,26=3,42=20,44=3/23(-8);
 2/29=1/2;
 6/7=2,8=2,9=2,10=2,19=2,28=1/1;
 99/5=20,9=1/99;
 -------------------------------------------
 ./5/glo_2w_alpha_boat5_b3lyp_631Gd_iopt.out
 -------------------------------------------
 Symbolic Z-matrix:
 Charge =  0 Multiplicity = 1
 O                     0.47949  -0.66229  -0.8021 
 C                    -1.07441  -0.22878   1.08304 
 C                    -0.48954   1.59937  -0.6541 
 C                    -1.3878    1.19361   0.54112 
 C                     0.7727    0.73693  -0.7389 
 C                    -0.64702  -1.18014  -0.03706 
 H                    -1.20873   1.89761   1.36575 
 H                    -0.27269  -2.09694   0.43888 
 H                    -1.98869  -0.64391   1.52138 
 H                    -1.07578   1.44825  -1.56513 
 C                    -1.77136  -1.56654  -1.0108 
 H                    -1.33223  -2.12612  -1.84958 
 H                    -2.26171  -0.67663  -1.40915 
 O                    -2.79135  -2.30677  -0.35047 
 H                    -2.42828  -3.17712  -0.12291 
 O                    -0.12235   2.9651   -0.63864 
 H                     0.59168   3.03422   0.01941 
 O                    -2.72658   1.30164   0.06212 
 H                    -3.32841   1.11764   0.80084 
 O                    -0.11276  -0.20413   2.12703 
 H                     0.66889   0.2664    1.77033 
 H                     1.31269   0.94262  -1.66895 
 O                     1.57523   1.07875   0.36866 
 H                     3.73712  -0.83681  -0.03781 
 O                     2.66016  -2.21888   0.02437 
 H                     2.42347  -2.305     0.96156 
 H                     1.88876  -1.75403  -0.37286 
 O                     4.02528   0.1126   -0.06689 
 H                     4.43662   0.23366  -0.93551 
 H                     2.52489   0.82137   0.19137 
 
 IRC-IRC-IRC-IRC-IRC-IRC-IRC-IRC-IRC-IRC-IRC-IRC-IRC-IRC-IRC-IRC-IRC-IRC
 ------------------------------------------------------------------------
 INPUT DATA FOR L123
 ------------------------------------------------------------------------
 GENERAL PARAMETERS:
 Rxn path following direction = Reverse
 Maximum points per path      =  20
 Step size                    =   0.100 bohr
 Integration scheme           = HPC                                 
    Redo corrector integration= Yes                                 
    DWI Weight Power          =  2
    DWI will use Hessian update vectors when possible.
    Max correction cycles     =  20
 Initial Hessian              = CalcFC
 Hessian evaluation           = All updating
 Hessian updating method      = Bofill                              
 ------------------------------------------------------------------------
 IRC-IRC-IRC-IRC-IRC-IRC-IRC-IRC-IRC-IRC-IRC-IRC-IRC-IRC-IRC-IRC-IRC-IRC
                          Input orientation:                          
 ---------------------------------------------------------------------
 Center     Atomic      Atomic             Coordinates (Angstroms)
 Number     Number       Type             X           Y           Z
 ---------------------------------------------------------------------
      1          8           0        0.479490   -0.662290   -0.802100
      2          6           0       -1.074410   -0.228780    1.083040
      3          6           0       -0.489540    1.599370   -0.654100
      4          6           0       -1.387800    1.193610    0.541120
      5          6           0        0.772700    0.736930   -0.738900
      6          6           0       -0.647020   -1.180140   -0.037060
      7          1           0       -1.208730    1.897610    1.365750
      8          1           0       -0.272690   -2.096940    0.438880
      9          1           0       -1.988690   -0.643910    1.521380
     10          1           0       -1.075780    1.448250   -1.565130
     11          6           0       -1.771360   -1.566540   -1.010800
     12          1           0       -1.332230   -2.126120   -1.849580
     13          1           0       -2.261710   -0.676630   -1.409150
     14          8           0       -2.791350   -2.306770   -0.350470
     15          1           0       -2.428280   -3.177120   -0.122910
     16          8           0       -0.122350    2.965100   -0.638640
     17          1           0        0.591680    3.034220    0.019410
     18          8           0       -2.726580    1.301640    0.062120
     19          1           0       -3.328410    1.117640    0.800840
     20          8           0       -0.112760   -0.204130    2.127030
     21          1           0        0.668890    0.266400    1.770330
     22          1           0        1.312690    0.942620   -1.668950
     23          8           0        1.575230    1.078750    0.368660
     24          1           0        3.737120   -0.836810   -0.037810
     25          8           0        2.660160   -2.218880    0.024370
     26          1           0        2.423470   -2.305000    0.961560
     27          1           0        1.888760   -1.754030   -0.372860
     28          8           0        4.025280    0.112600   -0.066890
     29          1           0        4.436620    0.233660   -0.935510
     30          1           0        2.524890    0.821370    0.191370
 ---------------------------------------------------------------------
                    Distance matrix (angstroms):
                    1          2          3          4          5
     1  O    0.000000
     2  C    2.481187   0.000000
     3  C    2.464960   2.588795   0.000000
     4  C    2.955567   1.554054   1.549214   0.000000
     5  C    1.431008   2.768371   1.531092   2.552404   0.000000
     6  C    1.456873   1.530481   2.851528   2.552986   2.486633
     7  H    3.755363   2.149303   2.164711   1.098953   3.114931
     8  H    2.040595   2.132538   3.860614   3.475866   3.242040
     9  H    3.389810   1.095620   3.465901   2.167593   3.826338
    10  H    2.730469   3.134523   1.093842   2.144408   2.146045
    11  C    2.434656   2.580602   3.434135   3.189671   3.442694
    12  H    2.553888   3.502375   4.002321   4.091350   3.723090
    13  H    2.807649   2.796652   2.981755   2.839907   3.413947
    14  O    3.688723   3.053011   4.544057   3.875248   4.702918
    15  H    3.903946   3.461212   5.182252   4.541675   5.093673
    16  O    3.680610   3.751196   1.414315   2.476161   2.403312
    17  H    3.788357   3.815014   1.918710   2.752884   2.425973
    18  O    3.857821   2.472676   2.367691   1.425989   3.633936
    19  H    4.498630   2.640644   3.226158   1.959386   4.397140
    20  O    3.023322   1.419610   3.336054   2.468707   3.143754
    21  H    2.741484   1.938212   2.999438   2.569173   2.555075
    22  H    2.005340   3.826731   2.170086   3.498579   1.094939
    23  O    2.366970   3.039830   2.362278   2.970266   1.409817
    24  H    3.350634   4.977633   4.917260   5.542794   3.428698
    25  O    2.803809   4.362143   4.995995   5.319596   3.589136
    26  H    3.096458   4.069473   5.132260   5.190647   3.856157
    27  H    1.833626   3.636813   4.120764   4.501087   2.753989
    28  O    3.703190   5.238866   4.789457   5.553350   3.379447
    29  H    4.059483   5.887261   5.119708   6.084884   3.703545
    30  H    2.715123   3.853940   3.225971   3.945888   1.985624
                    6          7          8          9         10
     6  C    0.000000
     7  H    3.428693   0.000000
     8  H    1.098710   4.206149   0.000000
     9  H    2.125172   2.663059   2.495548   0.000000
    10  H    3.070385   2.968107   4.150829   3.838891   0.000000
    11  C    1.536755   4.238499   2.151490   2.703778   3.143258
    12  H    2.156298   5.152087   2.522008   3.740489   3.594830
    13  H    2.177930   3.928810   3.064098   2.943402   2.438416
    14  O    2.442473   4.809044   2.647782   2.629294   4.303342
    15  H    2.677347   5.427365   2.475675   3.051898   5.030239
    16  O    4.221397   2.517407   5.177635   4.601507   2.016989
    17  H    4.392994   2.519125   5.220335   4.737390   2.794010
    18  O    3.239389   2.087702   4.208785   2.541473   2.322623
    19  H    3.629287   2.328201   4.449940   2.327463   3.283513
    20  O    2.433375   2.489580   2.541291   2.019736   4.158102
    21  H    2.662847   2.519918   2.871360   2.820172   3.945369
    22  H    3.318077   4.059430   4.024339   4.857406   2.443610
    23  O    3.194619   3.068412   3.674880   4.122844   3.302110
    24  H    4.397563   5.823098   4.230099   5.937439   5.542401
    25  O    3.467015   5.806298   2.964506   5.131606   5.470978
    26  H    3.419132   5.569396   2.754226   4.747607   5.719773
    27  H    2.621506   5.094280   2.334175   4.455910   4.523782
    28  O    4.847933   5.712581   4.859055   6.265999   5.481742
    29  H    5.352517   6.319375   5.431229   6.934771   5.679631
    30  H    3.757557   4.059234   4.050216   4.928324   4.055009
                   11         12         13         14         15
    11  C    0.000000
    12  H    1.099780   0.000000
    13  H    1.091360   1.777339   0.000000
    14  O    1.422799   2.099761   2.014616   0.000000
    15  H    1.952911   2.299416   2.816844   0.970110   0.000000
    16  O    4.836683   5.371285   4.293337   5.916014   6.581045
    17  H    5.273735   5.815811   4.894183   6.333078   6.908050
    18  O    3.207812   4.165135   2.508843   3.632499   4.492495
    19  H    3.593225   4.640198   3.039952   3.652469   4.484252
    20  O    3.801722   4.581984   4.164830   4.211169   4.388910
    21  H    4.129064   4.778324   4.425699   4.805440   5.003464
    22  H    4.029939   4.055292   3.932658   5.398154   5.775583
    23  O    4.483317   4.862623   4.578654   5.571886   5.863631
    24  H    5.641149   5.535625   6.155663   6.699213   6.595184
    25  O    4.597336   4.411289   5.353347   5.465088   5.179975
    26  H    4.693839   4.694655   5.497524   5.377339   5.047390
    27  H    3.720027   3.562854   4.411472   4.712691   4.552416
    28  O    6.108315   6.073941   6.476943   7.238799   7.243882
    29  H    6.464163   6.299501   6.776473   7.683723   7.708475
    30  H    5.060147   5.265980   5.264713   6.192032   6.373428
                   16         17         18         19         20
    16  O    0.000000
    17  H    0.973471   0.000000
    18  O    3.168624   3.743595   0.000000
    19  H    3.970394   4.432947   0.970445   0.000000
    20  O    4.206310   3.927494   3.655578   3.721056   0.000000
    21  H    3.702996   3.276051   3.939406   4.200349   0.979597
    22  H    2.685387   2.783021   4.409218   5.260257   4.213835
    23  O    2.730338   2.216576   4.318474   4.922802   2.754443
    24  H    5.450782   4.988180   6.808992   7.378680   4.461882
    25  O    5.920776   5.645679   6.435251   6.899148   4.021129
    26  H    6.067602   5.722794   6.351367   6.695104   3.493485
    27  H    5.136671   4.976307   5.552269   6.069837   3.557769
    28  O    5.066211   4.509204   6.856973   7.472604   4.694356
    29  H    5.322885   4.851657   7.310765   8.005749   5.501606
    30  H    3.506048   2.943395   5.274969   5.892398   3.428648
                   21         22         23         24         25
    21  H    0.000000
    22  H    3.563762   0.000000
    23  O    1.856352   2.058959   0.000000
    24  H    3.728334   3.421235   2.916909   0.000000
    25  O    3.631825   3.831200   3.488549   1.753233   0.000000
    26  H    3.216327   4.324402   3.538475   2.209072   0.970445
    27  H    3.188022   3.046905   2.944961   2.090451   0.984345
    28  O    3.829411   3.257863   2.669437   0.992603   2.703272
    29  H    4.638796   3.286259   3.256162   1.562393   3.176812
    30  H    2.499168   2.223718   0.999765   2.066782   3.047836
                   26         27         28         29         30
    26  H    0.000000
    27  H    1.539532   0.000000
    28  O    3.077059   2.853532   0.000000
    29  H    3.754523   3.280103   0.968688   0.000000
    30  H    3.221439   2.712140   1.679352   2.295642   0.000000
 Symmetry turned off by external request.
 Stoichiometry    C6H16O8
 Framework group  C1[X(C6H16O8)]
 Deg. of freedom    84
 Full point group                 C1      NOp   1
 Rotational constants (GHZ):      0.7631384      0.5113085      0.3774918
 Standard basis: 6-31G(d) (6D, 7F)
   242 basis functions,   456 primitive gaussians,   242 cartesian basis functions
    58 alpha electrons       58 beta electrons
       nuclear repulsion energy      1115.7763710796 Hartrees.
 NAtoms=   30 NActive=   30 NUniq=   30 SFac= 1.00D+00 NAtFMM=   60 NAOKFM=F Big=F
 Integral buffers will be    131072 words long.
 Raffenetti 2 integral format.
 Two-electron integral symmetry is turned off.
 One-electron integrals computed using PRISM.
 NBasis=   242 RedAO= T EigKep=  1.09D-03  NBF=   242
 NBsUse=   242 1.00D-06 EigRej= -1.00D+00 NBFU=   242
 ExpMin= 1.61D-01 ExpMax= 5.48D+03 ExpMxC= 8.25D+02 IAcc=1 IRadAn=         1 AccDes= 0.00D+00
 Harris functional with IExCor=  402 and IRadAn=       1 diagonalized for initial guess.
 HarFok:  IExCor=  402 AccDes= 0.00D+00 IRadAn=         1 IDoV= 1 UseB2=F ITyADJ=14
 ICtDFT=  3500011 ScaDFX=  1.000000  1.000000  1.000000  1.000000
 FoFCou: FMM=F IPFlag=           0 FMFlag=      100000 FMFlg1=           0
         NFxFlg=           0 DoJE=T BraDBF=F KetDBF=T FulRan=T
         wScrn=  0.000000 ICntrl=     500 IOpCl=  0 I1Cent=   200000004 NGrid=           0
         NMat0=    1 NMatS0=      1 NMatT0=    0 NMatD0=    1 NMtDS0=    0 NMtDT0=    0
 Symmetry not used in FoFCou.
 Requested convergence on RMS density matrix=1.00D-08 within 128 cycles.
 Requested convergence on MAX density matrix=1.00D-06.
 Requested convergence on             energy=1.00D-06.
 No special actions if energy rises.
 Integral accuracy reduced to 1.0D-05 until final iterations.
 Initial convergence to 1.0D-05 achieved.  Increase integral accuracy.
 SCF Done:  E(RB3LYP) =  -840.000706069     A.U. after   14 cycles
            NFock= 14  Conv=0.43D-08     -V/T= 2.0085
 DoSCS=F DFT=T ScalE2(SS,OS)=  1.000000  1.000000
 Range of M.O.s used for correlation:     1   242
 NBasis=   242 NAE=    58 NBE=    58 NFC=     0 NFV=     0
 NROrb=    242 NOA=    58 NOB=    58 NVA=   184 NVB=   184
 Symmetrizing basis deriv contribution to polar:
 IMax=3 JMax=2 DiffMx= 0.00D+00
 G2DrvN: will do    31 centers at a time, making    1 passes.
 Calling FoFCou, ICntrl=  3107 FMM=F I1Cent=   0 AccDes= 0.00D+00.
 End of G2Drv F.D. properties file   721 does not exist.
 End of G2Drv F.D. properties file   722 does not exist.
 End of G2Drv F.D. properties file   788 does not exist.
          IDoAtm=111111111111111111111111111111
          Differentiating once with respect to nuclear coordinates.
          There are    93 degrees of freedom in the 1st order CPHF.  IDoFFX=6 NUNeed=     0.
     87 vectors produced by pass  0 Test12= 1.15D-14 1.08D-09 XBig12= 1.02D-01 7.39D-02.
 AX will form    87 AO Fock derivatives at one time.
     87 vectors produced by pass  1 Test12= 1.15D-14 1.08D-09 XBig12= 1.07D-02 1.56D-02.
     87 vectors produced by pass  2 Test12= 1.15D-14 1.08D-09 XBig12= 1.46D-04 1.98D-03.
     87 vectors produced by pass  3 Test12= 1.15D-14 1.08D-09 XBig12= 3.23D-07 5.97D-05.
     87 vectors produced by pass  4 Test12= 1.15D-14 1.08D-09 XBig12= 3.87D-10 1.90D-06.
     63 vectors produced by pass  5 Test12= 1.15D-14 1.08D-09 XBig12= 2.79D-13 4.10D-08.
      1 vectors produced by pass  6 Test12= 1.15D-14 1.08D-09 XBig12= 1.92D-16 1.16D-09.
 InvSVY:  IOpt=1 It=  1 EMax= 7.22D-16
 Solved reduced A of dimension   499 with    93 vectors.
 End of Minotr F.D. properties file   721 does not exist.
 End of Minotr F.D. properties file   722 does not exist.
 End of Minotr F.D. properties file   788 does not exist.

 **********************************************************************

            Population analysis using the SCF density.

 **********************************************************************

 Alpha  occ. eigenvalues --  -19.18453 -19.16724 -19.16619 -19.16317 -19.15764
 Alpha  occ. eigenvalues --  -19.15385 -19.14608 -19.13590 -10.30190 -10.25152
 Alpha  occ. eigenvalues --  -10.24306 -10.24108 -10.24052 -10.23743  -1.08513
 Alpha  occ. eigenvalues --   -1.03309  -1.03208  -1.02809  -1.02439  -1.01628
 Alpha  occ. eigenvalues --   -1.00998  -1.00540  -0.78314  -0.76943  -0.69099
 Alpha  occ. eigenvalues --   -0.66109  -0.63558  -0.58897  -0.55271  -0.54551
 Alpha  occ. eigenvalues --   -0.54413  -0.53652  -0.52212  -0.50963  -0.49977
 Alpha  occ. eigenvalues --   -0.48722  -0.46530  -0.45127  -0.43249  -0.42447
 Alpha  occ. eigenvalues --   -0.42209  -0.41691  -0.40645  -0.38767  -0.38613
 Alpha  occ. eigenvalues --   -0.36705  -0.36482  -0.35115  -0.33587  -0.33197
 Alpha  occ. eigenvalues --   -0.32283  -0.31736  -0.31064  -0.30639  -0.29342
 Alpha  occ. eigenvalues --   -0.26879  -0.26758  -0.25314
 Alpha virt. eigenvalues --    0.03787   0.05443   0.06473   0.07557   0.09525
 Alpha virt. eigenvalues --    0.09788   0.11268   0.12050   0.13930   0.14286
 Alpha virt. eigenvalues --    0.14923   0.15475   0.16645   0.18729   0.19392
 Alpha virt. eigenvalues --    0.20377   0.20512   0.21282   0.22516   0.23706
 Alpha virt. eigenvalues --    0.24049   0.25219   0.25988   0.27746   0.29518
 Alpha virt. eigenvalues --    0.30944   0.33089   0.35219   0.51672   0.52649
 Alpha virt. eigenvalues --    0.53615   0.55129   0.56698   0.56954   0.58181
 Alpha virt. eigenvalues --    0.60555   0.62203   0.62372   0.64925   0.66887
 Alpha virt. eigenvalues --    0.67884   0.68402   0.71086   0.73693   0.76325
 Alpha virt. eigenvalues --    0.77242   0.78130   0.78881   0.79691   0.80430
 Alpha virt. eigenvalues --    0.80991   0.82424   0.83455   0.84422   0.84877
 Alpha virt. eigenvalues --    0.86261   0.87240   0.87879   0.88157   0.88700
 Alpha virt. eigenvalues --    0.89890   0.92029   0.92803   0.94130   0.95636
 Alpha virt. eigenvalues --    0.98679   0.99891   1.00180   1.01465   1.02855
 Alpha virt. eigenvalues --    1.03512   1.04584   1.05120   1.05777   1.06890
 Alpha virt. eigenvalues --    1.08979   1.10173   1.10564   1.12529   1.14167
 Alpha virt. eigenvalues --    1.17484   1.18300   1.19740   1.22976   1.24879
 Alpha virt. eigenvalues --    1.26121   1.29882   1.32503   1.33873   1.35396
 Alpha virt. eigenvalues --    1.38552   1.43316   1.43789   1.45308   1.48032
 Alpha virt. eigenvalues --    1.52166   1.53290   1.56264   1.57251   1.59340
 Alpha virt. eigenvalues --    1.61682   1.62699   1.63897   1.67985   1.69202
 Alpha virt. eigenvalues --    1.70577   1.71121   1.71430   1.71886   1.72613
 Alpha virt. eigenvalues --    1.73486   1.75120   1.76446   1.77559   1.79012
 Alpha virt. eigenvalues --    1.80322   1.81359   1.84067   1.84237   1.85126
 Alpha virt. eigenvalues --    1.87456   1.88563   1.92560   1.93283   1.94086
 Alpha virt. eigenvalues --    1.96884   1.99130   2.01162   2.04619   2.05544
 Alpha virt. eigenvalues --    2.07192   2.08804   2.10036   2.14612   2.17288
 Alpha virt. eigenvalues --    2.18694   2.21519   2.23882   2.27350   2.28784
 Alpha virt. eigenvalues --    2.31510   2.34381   2.35563   2.37819   2.39263
 Alpha virt. eigenvalues --    2.41021   2.45291   2.46384   2.48149   2.51624
 Alpha virt. eigenvalues --    2.54210   2.54605   2.55860   2.56332   2.58479
 Alpha virt. eigenvalues --    2.60193   2.61343   2.61982   2.67197   2.72524
 Alpha virt. eigenvalues --    2.75646   2.77268   2.84292   2.88286   2.89300
 Alpha virt. eigenvalues --    2.93066   2.96465   3.01563   3.03265   3.13594
 Alpha virt. eigenvalues --    3.70437   3.74599   3.80718   3.83373   3.87775
 Alpha virt. eigenvalues --    3.96812   4.00386   4.17407   4.25151   4.37143
 Alpha virt. eigenvalues --    4.54817   4.60333   4.65104   4.95228
          Condensed to atoms (all electrons):
               1          2          3          4          5          6
     1  O    8.412192  -0.027706  -0.023926  -0.010753   0.170777   0.145423
     2  C   -0.027706   4.991607  -0.030541   0.262104   0.009119   0.299875
     3  C   -0.023926  -0.030541   4.954737   0.277165   0.295162  -0.021553
     4  C   -0.010753   0.262104   0.277165   5.082688  -0.026933  -0.015432
     5  C    0.170777   0.009119   0.295162  -0.026933   4.802516  -0.022737
     6  C    0.145423   0.299875  -0.021553  -0.015432  -0.022737   5.096711
     7  H    0.000066  -0.057018  -0.038601   0.348567  -0.001544   0.006054
     8  H   -0.042751  -0.043249  -0.000006   0.005253   0.003026   0.353137
     9  H    0.003222   0.364377   0.004354  -0.043273  -0.000131  -0.049105
    10  H    0.002700   0.002370   0.370974  -0.052364  -0.041292  -0.000729
    11  C   -0.033080  -0.037568  -0.000349  -0.002297  -0.001220   0.291017
    12  H    0.006347   0.005504   0.000028  -0.000367   0.000090  -0.048564
    13  H    0.002029  -0.009610  -0.002168   0.001149   0.000676  -0.037495
    14  O    0.001482  -0.003085   0.000053  -0.000443   0.000006  -0.040846
    15  H    0.000020  -0.000855   0.000002   0.000034  -0.000000  -0.003030
    16  O    0.001323   0.002920   0.258623  -0.042889  -0.029339   0.000000
    17  H    0.000445  -0.000153  -0.036025  -0.003541  -0.015480   0.000032
    18  O    0.000072  -0.031680  -0.036099   0.190854   0.001785  -0.001628
    19  H    0.000014  -0.004123   0.007212  -0.023846  -0.000326  -0.000163
    20  O    0.000061   0.235636   0.001404  -0.035588   0.004108  -0.040953
    21  H    0.001301  -0.038614  -0.001048  -0.001832  -0.005370  -0.000517
    22  H   -0.049298  -0.000603  -0.043924   0.006543   0.380758   0.005545
    23  O   -0.055403   0.003447  -0.051027  -0.004333   0.198484  -0.001770
    24  H    0.000289  -0.000000   0.000025  -0.000000   0.000276  -0.000006
    25  O   -0.020435  -0.000276  -0.000008   0.000001   0.001353   0.001023
    26  H    0.000761  -0.000170  -0.000001   0.000006   0.000043   0.000383
    27  H    0.058506   0.000932   0.000571  -0.000047  -0.001300  -0.003550
    28  O   -0.000536   0.000005   0.000071  -0.000001   0.004049  -0.000023
    29  H   -0.000007  -0.000000   0.000017  -0.000000   0.000277   0.000000
    30  H    0.003015  -0.000124   0.004065  -0.000202  -0.010604  -0.000160
               7          8          9         10         11         12
     1  O    0.000066  -0.042751   0.003222   0.002700  -0.033080   0.006347
     2  C   -0.057018  -0.043249   0.364377   0.002370  -0.037568   0.005504
     3  C   -0.038601  -0.000006   0.004354   0.370974  -0.000349   0.000028
     4  C    0.348567   0.005253  -0.043273  -0.052364  -0.002297  -0.000367
     5  C   -0.001544   0.003026  -0.000131  -0.041292  -0.001220   0.000090
     6  C    0.006054   0.353137  -0.049105  -0.000729   0.291017  -0.048564
     7  H    0.618903  -0.000262  -0.002460   0.004918   0.000037   0.000011
     8  H   -0.000262   0.651240  -0.001775   0.000046  -0.055281  -0.005897
     9  H   -0.002460  -0.001775   0.590729  -0.000318  -0.003323   0.000360
    10  H    0.004918   0.000046  -0.000318   0.571143   0.000295   0.000078
    11  C    0.000037  -0.055281  -0.003323   0.000295   4.975615   0.349439
    12  H    0.000011  -0.005897   0.000360   0.000078   0.349439   0.629381
    13  H    0.000197   0.005206  -0.000037   0.003950   0.372219  -0.035518
    14  O   -0.000010   0.002639   0.014502   0.000006   0.234793  -0.029232
    15  H   -0.000000   0.005955  -0.000093   0.000002  -0.031967  -0.007741
    16  O    0.001278   0.000004  -0.000047  -0.036555   0.000014  -0.000001
    17  H    0.002655  -0.000001   0.000001   0.007295   0.000001  -0.000000
    18  O   -0.028669  -0.000171  -0.000040   0.001084  -0.001639   0.000256
    19  H   -0.005268   0.000002   0.006706  -0.000072   0.000157  -0.000013
    20  O    0.007529   0.002120  -0.036112  -0.000061   0.003817  -0.000067
    21  H    0.000307  -0.001037   0.005949   0.000001   0.000032   0.000002
    22  H   -0.000238  -0.000220   0.000011  -0.005983  -0.000013  -0.000041
    23  O    0.001006   0.000004  -0.000040   0.003660  -0.000012   0.000007
    24  H   -0.000000  -0.000064   0.000000  -0.000000  -0.000000  -0.000000
    25  O   -0.000000   0.004410   0.000000   0.000000  -0.000022   0.000000
    26  H   -0.000001   0.001614  -0.000001   0.000000   0.000052  -0.000006
    27  H    0.000002  -0.003693  -0.000036  -0.000006   0.000348   0.000214
    28  O    0.000000   0.000006   0.000000   0.000001  -0.000000   0.000000
    29  H   -0.000000  -0.000001   0.000000  -0.000000   0.000000  -0.000000
    30  H    0.000018  -0.000042   0.000003  -0.000115   0.000007  -0.000001
              13         14         15         16         17         18
     1  O    0.002029   0.001482   0.000020   0.001323   0.000445   0.000072
     2  C   -0.009610  -0.003085  -0.000855   0.002920  -0.000153  -0.031680
     3  C   -0.002168   0.000053   0.000002   0.258623  -0.036025  -0.036099
     4  C    0.001149  -0.000443   0.000034  -0.042889  -0.003541   0.190854
     5  C    0.000676   0.000006  -0.000000  -0.029339  -0.015480   0.001785
     6  C   -0.037495  -0.040846  -0.003030   0.000000   0.000032  -0.001628
     7  H    0.000197  -0.000010  -0.000000   0.001278   0.002655  -0.028669
     8  H    0.005206   0.002639   0.005955   0.000004  -0.000001  -0.000171
     9  H   -0.000037   0.014502  -0.000093  -0.000047   0.000001  -0.000040
    10  H    0.003950   0.000006   0.000002  -0.036555   0.007295   0.001084
    11  C    0.372219   0.234793  -0.031967   0.000014   0.000001  -0.001639
    12  H   -0.035518  -0.029232  -0.007741  -0.000001  -0.000000   0.000256
    13  H    0.530656  -0.033598   0.006928   0.000015   0.000001   0.013378
    14  O   -0.033598   8.229366   0.234722  -0.000000  -0.000000  -0.000148
    15  H    0.006928   0.234722   0.403512   0.000000  -0.000000  -0.000018
    16  O    0.000015  -0.000000   0.000000   8.243504   0.234031   0.001377
    17  H    0.000001  -0.000000  -0.000000   0.234031   0.381981  -0.000113
    18  O    0.013378  -0.000148  -0.000018   0.001377  -0.000113   8.284479
    19  H   -0.000594   0.000075   0.000003  -0.000217   0.000024   0.231897
    20  O    0.000013   0.000001  -0.000025  -0.000012   0.000027   0.001683
    21  H    0.000003  -0.000002   0.000001  -0.000062   0.000170  -0.000024
    22  H   -0.000078   0.000001  -0.000000   0.003673   0.000053  -0.000071
    23  O    0.000014   0.000000   0.000000  -0.007318   0.027548   0.000020
    24  H    0.000000  -0.000000   0.000000   0.000000  -0.000002  -0.000000
    25  O    0.000000   0.000000  -0.000001   0.000000   0.000000   0.000000
    26  H    0.000000  -0.000000  -0.000001   0.000000  -0.000000  -0.000000
    27  H   -0.000024  -0.000007  -0.000005  -0.000004  -0.000003  -0.000000
    28  O    0.000000   0.000000  -0.000000  -0.000001   0.000012   0.000000
    29  H   -0.000000  -0.000000   0.000000   0.000000  -0.000002  -0.000000
    30  H    0.000000  -0.000000   0.000000  -0.000139  -0.000161   0.000001
              19         20         21         22         23         24
     1  O    0.000014   0.000061   0.001301  -0.049298  -0.055403   0.000289
     2  C   -0.004123   0.235636  -0.038614  -0.000603   0.003447  -0.000000
     3  C    0.007212   0.001404  -0.001048  -0.043924  -0.051027   0.000025
     4  C   -0.023846  -0.035588  -0.001832   0.006543  -0.004333  -0.000000
     5  C   -0.000326   0.004108  -0.005370   0.380758   0.198484   0.000276
     6  C   -0.000163  -0.040953  -0.000517   0.005545  -0.001770  -0.000006
     7  H   -0.005268   0.007529   0.000307  -0.000238   0.001006  -0.000000
     8  H    0.000002   0.002120  -0.001037  -0.000220   0.000004  -0.000064
     9  H    0.006706  -0.036112   0.005949   0.000011  -0.000040   0.000000
    10  H   -0.000072  -0.000061   0.000001  -0.005983   0.003660  -0.000000
    11  C    0.000157   0.003817   0.000032  -0.000013  -0.000012  -0.000000
    12  H   -0.000013  -0.000067   0.000002  -0.000041   0.000007  -0.000000
    13  H   -0.000594   0.000013   0.000003  -0.000078   0.000014   0.000000
    14  O    0.000075   0.000001  -0.000002   0.000001   0.000000  -0.000000
    15  H    0.000003  -0.000025   0.000001  -0.000000   0.000000   0.000000
    16  O   -0.000217  -0.000012  -0.000062   0.003673  -0.007318   0.000000
    17  H    0.000024   0.000027   0.000170   0.000053   0.027548  -0.000002
    18  O    0.231897   0.001683  -0.000024  -0.000071   0.000020  -0.000000
    19  H    0.389760   0.000020   0.000034   0.000007   0.000002  -0.000000
    20  O    0.000020   8.325374   0.223302  -0.000072  -0.022469  -0.000006
    21  H    0.000034   0.223302   0.342281   0.000958   0.055239   0.000029
    22  H    0.000007  -0.000072   0.000958   0.606164  -0.046850  -0.000131
    23  O    0.000002  -0.022469   0.055239  -0.046850   8.431848   0.003565
    24  H   -0.000000  -0.000006   0.000029  -0.000131   0.003565   0.318670
    25  O    0.000000  -0.000093   0.000313   0.000036  -0.000788   0.080069
    26  H   -0.000000   0.001134   0.000321   0.000008   0.000240  -0.004848
    27  H   -0.000000  -0.000069   0.000058  -0.000455   0.001731  -0.005226
    28  O    0.000000  -0.000004   0.000023   0.001578  -0.036924   0.195895
    29  H   -0.000000   0.000000   0.000001   0.000157   0.001585  -0.012069
    30  H   -0.000000   0.000663  -0.000708  -0.004476   0.184705  -0.007770
              25         26         27         28         29         30
     1  O   -0.020435   0.000761   0.058506  -0.000536  -0.000007   0.003015
     2  C   -0.000276  -0.000170   0.000932   0.000005  -0.000000  -0.000124
     3  C   -0.000008  -0.000001   0.000571   0.000071   0.000017   0.004065
     4  C    0.000001   0.000006  -0.000047  -0.000001  -0.000000  -0.000202
     5  C    0.001353   0.000043  -0.001300   0.004049   0.000277  -0.010604
     6  C    0.001023   0.000383  -0.003550  -0.000023   0.000000  -0.000160
     7  H   -0.000000  -0.000001   0.000002   0.000000  -0.000000   0.000018
     8  H    0.004410   0.001614  -0.003693   0.000006  -0.000001  -0.000042
     9  H    0.000000  -0.000001  -0.000036   0.000000   0.000000   0.000003
    10  H    0.000000   0.000000  -0.000006   0.000001  -0.000000  -0.000115
    11  C   -0.000022   0.000052   0.000348  -0.000000   0.000000   0.000007
    12  H    0.000000  -0.000006   0.000214   0.000000  -0.000000  -0.000001
    13  H    0.000000   0.000000  -0.000024   0.000000  -0.000000   0.000000
    14  O    0.000000  -0.000000  -0.000007   0.000000  -0.000000  -0.000000
    15  H   -0.000001  -0.000001  -0.000005  -0.000000   0.000000   0.000000
    16  O    0.000000   0.000000  -0.000004  -0.000001   0.000000  -0.000139
    17  H    0.000000  -0.000000  -0.000003   0.000012  -0.000002  -0.000161
    18  O    0.000000  -0.000000  -0.000000   0.000000  -0.000000   0.000001
    19  H    0.000000  -0.000000  -0.000000   0.000000  -0.000000  -0.000000
    20  O   -0.000093   0.001134  -0.000069  -0.000004   0.000000   0.000663
    21  H    0.000313   0.000321   0.000058   0.000023   0.000001  -0.000708
    22  H    0.000036   0.000008  -0.000455   0.001578   0.000157  -0.004476
    23  O   -0.000788   0.000240   0.001731  -0.036924   0.001585   0.184705
    24  H    0.080069  -0.004848  -0.005226   0.195895  -0.012069  -0.007770
    25  O    8.325005   0.244978   0.211898  -0.032219   0.001181   0.002045
    26  H    0.244978   0.367772  -0.020601   0.001838  -0.000046   0.000110
    27  H    0.211898  -0.020601   0.313959   0.004415   0.000084   0.000766
    28  O   -0.032219   0.001838   0.004415   8.347760   0.242089   0.091379
    29  H    0.001181  -0.000046   0.000084   0.242089   0.369807  -0.005042
    30  H    0.002045   0.000110   0.000766   0.091379  -0.005042   0.289829
 Mulliken charges:
               1
     1  O   -0.546149
     2  C    0.107480
     3  C    0.110815
     4  C    0.089777
     5  C    0.283771
     6  C    0.089063
     7  H    0.142521
     8  H    0.119788
     9  H    0.146574
    10  H    0.168974
    11  C   -0.061070
    12  H    0.135732
    13  H    0.182687
    14  O   -0.610276
    15  H    0.392557
    16  O   -0.630180
    17  H    0.401205
    18  O   -0.626586
    19  H    0.398709
    20  O   -0.671362
    21  H    0.418889
    22  H    0.146961
    23  O   -0.686168
    24  H    0.431303
    25  O   -0.818470
    26  H    0.406417
    27  H    0.441541
    28  O   -0.819413
    29  H    0.401970
    30  H    0.452940
 Sum of Mulliken charges =  -0.00000
 Mulliken charges with hydrogens summed into heavy atoms:
               1
     1  O   -0.546149
     2  C    0.254053
     3  C    0.279789
     4  C    0.232298
     5  C    0.430732
     6  C    0.208851
    11  C    0.257349
    14  O   -0.217719
    16  O   -0.228976
    18  O   -0.227877
    20  O   -0.252473
    23  O   -0.233229
    25  O    0.029488
    28  O    0.013861
 APT charges:
               1
     1  O   -0.410917
     2  C   -0.369787
     3  C   -0.271547
     4  C   -0.263513
     5  C   -0.300339
     6  C   -0.246101
     7  H    0.426322
     8  H    0.372706
     9  H    0.494430
    10  H    0.430862
    11  C   -0.599663
    12  H    0.424214
    13  H    0.341112
    14  O   -0.784338
    15  H    0.696610
    16  O   -0.620129
    17  H    0.510955
    18  O   -0.888413
    19  H    0.768473
    20  O   -0.550679
    21  H    0.398185
    22  H    0.490049
    23  O   -0.758648
    24  H    0.316996
    25  O   -0.650666
    26  H    0.529340
    27  H    0.177841
    28  O   -1.085652
    29  H    0.824478
    30  H    0.597820
 Sum of APT charges =  -0.00000
 APT charges with hydrogens summed into heavy atoms:
               1
     1  O   -0.410917
     2  C    0.124643
     3  C    0.159315
     4  C    0.162809
     5  C    0.189710
     6  C    0.126605
    11  C    0.165663
    14  O   -0.087729
    16  O   -0.109174
    18  O   -0.119941
    20  O   -0.152494
    23  O   -0.160828
    25  O    0.056515
    28  O    0.055822
 Electronic spatial extent (au):  <R**2>=           3124.5912
 Charge=              0.0000 electrons
 Dipole moment (field-independent basis, Debye):
    X=              1.4557    Y=             -2.1123    Z=             -0.4896  Tot=              2.6116
 Quadrupole moment (field-independent basis, Debye-Ang):
   XX=            -84.2616   YY=            -85.5066   ZZ=            -84.3892
   XY=              4.1439   XZ=             -8.8983   YZ=              1.2104
 Traceless Quadrupole moment (field-independent basis, Debye-Ang):
   XX=              0.4576   YY=             -0.7875   ZZ=              0.3299
   XY=              4.1439   XZ=             -8.8983   YZ=              1.2104
 Octapole moment (field-independent basis, Debye-Ang**2):
  XXX=             37.6309  YYY=            -45.6716  ZZZ=            -15.2247  XYY=              1.4418
  XXY=             16.2654  XXZ=             -4.1193  XZZ=             12.8089  YZZ=             -0.1351
  YYZ=             24.1865  XYZ=            -14.2148
 Hexadecapole moment (field-independent basis, Debye-Ang**3):
 XXXX=          -1897.2875 YYYY=          -1206.0237 ZZZZ=           -486.9250 XXXY=            -45.1192
 XXXZ=           -200.0238 YYYX=            120.3159 YYYZ=             23.9522 ZZZX=             -0.6840
 ZZZY=              1.9603 XXYY=           -564.8167 XXZZ=           -330.9243 YYZZ=           -275.0431
 XXYZ=            -24.9808 YYXZ=              5.5150 ZZXY=            -14.9961
 N-N= 1.115776371080D+03 E-N=-4.203598510430D+03  KE= 8.328816774958D+02
  Exact polarizability:   0.000   0.000   0.000   0.000   0.000   0.000
 Approx polarizability: 134.131   5.458 127.364  -1.466  -4.513 123.416
 Calling FoFJK, ICntrl=    100147 FMM=F ISym2X=0 I1Cent= 0 IOpClX= 0 NMat=1 NMatS=1 NMatT=0.
 -------------------------------------------------------------------
 Center     Atomic                   Forces (Hartrees/Bohr)
 Number     Number              X              Y              Z
 -------------------------------------------------------------------
      1        8          -0.000005918   -0.000003826   -0.000001570
      2        6           0.000002823   -0.000005243    0.000005180
      3        6          -0.000000460   -0.000003915   -0.000002587
      4        6           0.000002122    0.000008102    0.000006390
      5        6          -0.000000929    0.000000490   -0.000003315
      6        6           0.000000939    0.000001819    0.000000194
      7        1           0.000001637   -0.000001285   -0.000000059
      8        1           0.000000185   -0.000000569    0.000001426
      9        1           0.000002452    0.000002403    0.000002828
     10        1          -0.000002093   -0.000000459    0.000002273
     11        6          -0.000005273    0.000007210    0.000008470
     12        1          -0.000002820   -0.000002353    0.000001199
     13        1          -0.000000033   -0.000003079    0.000005998
     14        8           0.000000217   -0.000004154    0.000014267
     15        1          -0.000003220    0.000004780    0.000003576
     16        8           0.000000578    0.000000144    0.000000331
     17        1          -0.000000318    0.000000650   -0.000002846
     18        8           0.000002790    0.000002312    0.000009075
     19        1          -0.000000582    0.000000249    0.000006797
     20        8           0.000010360    0.000003162   -0.000000414
     21        1           0.000001803    0.000000338   -0.000001057
     22        1          -0.000003081   -0.000000835   -0.000000690
     23        8          -0.000003330    0.000000941   -0.000006834
     24        1           0.000000904    0.000003155   -0.000005207
     25        8          -0.000007433    0.000003586   -0.000016986
     26        1           0.000000830   -0.000000713    0.000001426
     27        1           0.000005894   -0.000004245    0.000001121
     28        8           0.000001612   -0.000004902   -0.000022636
     29        1          -0.000004062   -0.000001946   -0.000001162
     30        1           0.000004407   -0.000001814   -0.000005187
 -------------------------------------------------------------------
 Cartesian Forces:  Max     0.000022636 RMS     0.000004926
 IRC-IRC-IRC-IRC-IRC-IRC-IRC-IRC-IRC-IRC-IRC-IRC-IRC-IRC-IRC-IRC-IRC-IRC
          ******** Start new reaction path calculation ********
 Supplied step size of   0.1000 bohr.
    Integration on MW PES will use step size of   0.2348 sqrt(amu)*bohr.
 Point Number:   0          Path Number:   1
 Calculating another point on the path.
 IRC-IRC-IRC-IRC-IRC-IRC-IRC-IRC-IRC-IRC-IRC-IRC-IRC-IRC-IRC-IRC-IRC-IRC
                          Input orientation:                          
 ---------------------------------------------------------------------
 Center     Atomic      Atomic             Coordinates (Angstroms)
 Number     Number       Type             X           Y           Z
 ---------------------------------------------------------------------
      1          8           0        0.496118   -0.678829   -0.811559
      2          6           0       -1.053453   -0.249602    1.077540
      3          6           0       -0.474318    1.582059   -0.657759
      4          6           0       -1.368668    1.173925    0.539623
      5          6           0        0.788263    0.720575   -0.747325
      6          6           0       -0.629469   -1.198191   -0.046094
      7          1           0       -1.187039    1.876394    1.365016
      8          1           0       -0.254644   -2.116612    0.426270
      9          1           0       -1.966162   -0.665735    1.518176
     10          1           0       -1.063169    1.431840   -1.567252
     11          6           0       -1.756102   -1.581595   -1.018342
     12          1           0       -1.318964   -2.139147   -1.859512
     13          1           0       -2.247339   -0.690690   -1.413358
     14          8           0       -2.774612   -2.323361   -0.357419
     15          1           0       -2.411182   -3.194439   -0.133203
     16          8           0       -0.108069    2.948000   -0.641451
     17          1           0        0.607960    3.016712    0.014473
     18          8           0       -2.708947    1.282734    0.065066
     19          1           0       -3.308489    1.097343    0.805302
     20          8           0       -0.087845   -0.227391    2.118179
     21          1           0        0.691252    0.246805    1.760645
     22          1           0        1.325782    0.928053   -1.678409
     23          8           0        1.593251    1.061790    0.358800
     24          1           0        3.753298   -0.854801   -0.034287
     25          8           0        2.669704   -2.232289    0.040885
     26          1           0        2.425640   -2.301836    0.977817
     27          1           0        1.903692   -1.768907   -0.368315
     28          8           0        4.043085    0.093776   -0.073166
     29          1           0        4.453713    0.205408   -0.943441
     30          1           0        2.542666    0.804593    0.179986
 ---------------------------------------------------------------------
                    Distance matrix (angstroms):
                    1          2          3          4          5
     1  O    0.000000
     2  C    2.480746   0.000000
     3  C    2.465160   2.588753   0.000000
     4  C    2.955642   1.554074   1.549244   0.000000
     5  C    1.431016   2.768266   1.531106   2.552276   0.000000
     6  C    1.456921   1.530404   2.850963   2.552727   2.486634
     7  H    3.754951   2.149499   2.164768   1.098965   3.114437
     8  H    2.040363   2.132598   3.860510   3.475850   3.242624
     9  H    3.389787   1.095611   3.465958   2.167698   3.826383
    10  H    2.730819   3.134050   1.093842   2.144475   2.146154
    11  C    2.435209   2.580822   3.432447   3.189083   3.441980
    12  H    2.554458   3.502449   4.000626   4.090815   3.722281
    13  H    2.808711   2.797229   2.979920   2.839540   3.413231
    14  O    3.688957   3.053190   4.542451   3.874581   4.702303
    15  H    3.903953   3.461415   5.180882   4.541161   5.093224
    16  O    3.680743   3.751445   1.414284   2.476164   2.403339
    17  H    3.788385   3.815654   1.918711   2.752944   2.425921
    18  O    3.858580   2.472613   2.367623   1.425970   3.634072
    19  H    4.499340   2.640750   3.226147   1.959427   4.397270
    20  O    3.021287   1.419797   3.336061   2.469015   3.142821
    21  H    2.740640   1.938311   2.998355   2.567824   2.554170
    22  H    2.005453   3.826603   2.170209   3.498597   1.094939
    23  O    2.367107   3.039964   2.361972   2.969551   1.409946
    24  H    3.353258   4.970643   4.919323   5.538921   3.432444
    25  O    2.804349   4.343685   4.992216   5.306551   3.588942
    26  H    3.091775   4.040507   5.115613   5.164272   3.846049
    27  H    1.834666   3.625395   4.119185   4.493657   2.754152
    28  O    3.704473   5.236099   4.792041   5.552414   3.382489
    29  H    4.057317   5.883900   5.124673   6.085854   3.706667
    30  H    2.715154   3.853441   3.226215   3.945159   1.986176
                    6          7          8          9         10
     6  C    0.000000
     7  H    3.428583   0.000000
     8  H    1.098689   4.206507   0.000000
     9  H    2.125370   2.663252   2.495315   0.000000
    10  H    3.069052   2.968361   4.149620   3.838630   0.000000
    11  C    1.536740   4.238150   2.151168   2.704967   3.140421
    12  H    2.156221   5.151656   2.521524   3.741469   3.592046
    13  H    2.178181   3.928551   3.064036   2.945093   2.435380
    14  O    2.442248   4.808858   2.647103   2.630433   4.300496
    15  H    2.677144   5.427388   2.474950   3.052777   5.027533
    16  O    4.221043   2.517623   5.178011   4.601693   2.016944
    17  H    4.393211   2.519188   5.221558   4.737894   2.793984
    18  O    3.239070   2.087703   4.208280   2.541612   2.322774
    19  H    3.629256   2.328251   4.449622   2.327762   3.283651
    20  O    2.433082   2.490259   2.541562   2.019956   4.157729
    21  H    2.663948   2.517947   2.874198   2.820172   3.944261
    22  H    3.317886   4.059070   4.024600   4.857490   2.444022
    23  O    3.195611   3.066930   3.677159   4.122852   3.301996
    24  H    4.396215   5.815875   4.227041   5.929428   5.547708
    25  O    3.458535   5.788701   2.951900   5.111529   5.472320
    26  H    3.405894   5.537055   2.742705   4.717705   5.708721
    27  H    2.616572   5.083824   2.326086   4.444278   4.525980
    28  O    4.847955   5.709666   4.858572   6.262609   5.486031
    29  H    5.349211   6.319750   5.425542   6.930602   5.685883
    30  H    3.758283   4.057555   4.052041   4.927692   4.055654
                   11         12         13         14         15
    11  C    0.000000
    12  H    1.099783   0.000000
    13  H    1.091358   1.777347   0.000000
    14  O    1.422814   2.099793   2.014606   0.000000
    15  H    1.952912   2.299287   2.816806   0.970119   0.000000
    16  O    4.834799   5.369265   4.290965   5.914252   6.579681
    17  H    5.272563   5.814442   4.892470   6.332178   6.907635
    18  O    3.207190   4.164772   2.508629   3.631354   4.491443
    19  H    3.593367   4.640508   3.040650   3.652145   4.483899
    20  O    3.801936   4.581757   4.165311   4.211935   4.389760
    21  H    4.129813   4.779045   4.425890   4.806679   5.005389
    22  H    4.028899   4.054035   3.931638   5.397216   5.774730
    23  O    4.483544   4.862911   4.578412   5.572293   5.864557
    24  H    5.643588   5.541555   6.159255   6.698858   6.594278
    25  O    4.597078   4.419237   5.354312   5.459626   5.174112
    26  H    4.689389   4.700953   5.490923   5.368980   5.042415
    27  H    3.721789   3.570190   4.414264   4.711058   4.550336
    28  O    6.109893   6.076886   6.479270   7.239085   7.243861
    29  H    6.462259   6.297612   6.777013   7.680285   7.703390
    30  H    5.060562   5.266626   5.264861   6.192443   6.374242
                   16         17         18         19         20
    16  O    0.000000
    17  H    0.973476   0.000000
    18  O    3.168097   3.743141   0.000000
    19  H    3.969977   4.432602   0.970448   0.000000
    20  O    4.207027   3.928604   3.655944   3.721708   0.000000
    21  H    3.702085   3.275430   3.938209   4.199289   0.979635
    22  H    2.685404   2.782735   4.409596   5.260603   4.212775
    23  O    2.729978   2.216096   4.317870   4.922162   2.753813
    24  H    5.453449   4.988401   6.807315   7.374593   4.447599
    25  O    5.917516   5.639459   6.425407   6.885461   3.992349
    26  H    6.049999   5.702538   6.328210   6.668164   3.452732
    27  H    5.135270   4.972686   5.547682   6.062969   3.539088
    28  O    5.069676   4.511243   6.857307   7.471579   4.687187
    29  H    5.331310   4.859099   7.313099   8.006587   5.494232
    30  H    3.506472   2.943459   5.274587   5.891752   3.426540
                   21         22         23         24         25
    21  H    0.000000
    22  H    3.562838   0.000000
    23  O    1.855524   2.059040   0.000000
    24  H    3.716375   3.431406   2.914386   0.000000
    25  O    3.608013   3.840555   3.480054   1.754224   0.000000
    26  H    3.180643   4.324050   3.519948   2.209285   0.970694
    27  H    3.172629   3.053510   2.939033   2.090026   0.984348
    28  O    3.823750   3.264439   2.669331   0.992616   2.703658
    29  H    4.633563   3.293379   3.257524   1.562429   3.177098
    30  H    2.497468   2.224788   0.999757   2.065220   3.042720
                   26         27         28         29         30
    26  H    0.000000
    27  H    1.538997   0.000000
    28  O    3.075655   2.851965   0.000000
    29  H    3.753743   3.275866   0.968739   0.000000
    30  H    3.209382   2.707735   1.679465   2.296347   0.000000
 Symmetry turned off by external request.
 Stoichiometry    C6H16O8
 Framework group  C1[X(C6H16O8)]
 Deg. of freedom    84
 Full point group                 C1      NOp   1
 Rotational constants (GHZ):      0.7637768      0.5116916      0.3778599
 Standard basis: 6-31G(d) (6D, 7F)
   242 basis functions,   456 primitive gaussians,   242 cartesian basis functions
    58 alpha electrons       58 beta electrons
       nuclear repulsion energy      1116.0462079614 Hartrees.
 NAtoms=   30 NActive=   30 NUniq=   30 SFac= 1.00D+00 NAtFMM=   60 NAOKFM=F Big=F
 Integral buffers will be    131072 words long.
 Raffenetti 2 integral format.
 Two-electron integral symmetry is turned off.
 One-electron integrals computed using PRISM.
 NBasis=   242 RedAO= T EigKep=  1.09D-03  NBF=   242
 NBsUse=   242 1.00D-06 EigRej= -1.00D+00 NBFU=   242
 Initial guess from the checkpoint file:  "/scratch/10502185.yak.local/Gau-1634.chk"
 B after Tr=     0.032028   -0.033341   -0.007650
         Rot=    1.000000    0.000005   -0.000001    0.000009 Ang=   0.00 deg.
 ExpMin= 1.61D-01 ExpMax= 5.48D+03 ExpMxC= 8.25D+02 IAcc=1 IRadAn=         1 AccDes= 0.00D+00
 Harris functional with IExCor=  402 and IRadAn=       1 diagonalized for initial guess.
 HarFok:  IExCor=  402 AccDes= 0.00D+00 IRadAn=         1 IDoV= 1 UseB2=F ITyADJ=14
 ICtDFT=  3500011 ScaDFX=  1.000000  1.000000  1.000000  1.000000
 FoFCou: FMM=F IPFlag=           0 FMFlag=      100000 FMFlg1=           0
         NFxFlg=           0 DoJE=T BraDBF=F KetDBF=T FulRan=T
         wScrn=  0.000000 ICntrl=     500 IOpCl=  0 I1Cent=   200000004 NGrid=           0
         NMat0=    1 NMatS0=      1 NMatT0=    0 NMatD0=    1 NMtDS0=    0 NMtDT0=    0
 Symmetry not used in FoFCou.
 Requested convergence on RMS density matrix=1.00D-08 within 128 cycles.
 Requested convergence on MAX density matrix=1.00D-06.
 Requested convergence on             energy=1.00D-06.
 No special actions if energy rises.
 Integral accuracy reduced to 1.0D-05 until final iterations.
 Initial convergence to 1.0D-05 achieved.  Increase integral accuracy.
 SCF Done:  E(RB3LYP) =  -840.000707895     A.U. after    9 cycles
            NFock=  9  Conv=0.59D-08     -V/T= 2.0085
 DoSCS=F DFT=T ScalE2(SS,OS)=  1.000000  1.000000
 Range of M.O.s used for correlation:     1   242
 NBasis=   242 NAE=    58 NBE=    58 NFC=     0 NFV=     0
 NROrb=    242 NOA=    58 NOB=    58 NVA=   184 NVB=   184
 Symmetrizing basis deriv contribution to polar:
 IMax=3 JMax=2 DiffMx= 0.00D+00
 Calling FoFJK, ICntrl=      2147 FMM=F ISym2X=0 I1Cent= 0 IOpClX= 0 NMat=1 NMatS=1 NMatT=0.
 -------------------------------------------------------------------
 Center     Atomic                   Forces (Hartrees/Bohr)
 Number     Number              X              Y              Z
 -------------------------------------------------------------------
      1        8          -0.000003682   -0.000003158   -0.000010636
      2        6           0.000006923   -0.000012239    0.000001547
      3        6          -0.000004127   -0.000004835   -0.000002611
      4        6           0.000006107    0.000005053    0.000009374
      5        6          -0.000003557    0.000003296   -0.000010734
      6        6           0.000001561   -0.000000823   -0.000003546
      7        1           0.000002008   -0.000002774   -0.000002468
      8        1          -0.000001780    0.000003746   -0.000002025
      9        1           0.000005872    0.000002110    0.000001449
     10        1          -0.000001272   -0.000000537    0.000005206
     11        6          -0.000007806    0.000011752    0.000003450
     12        1          -0.000004738    0.000000192    0.000003715
     13        1           0.000001629   -0.000005973    0.000007369
     14        8           0.000002997   -0.000007418    0.000009618
     15        1          -0.000005352    0.000009916    0.000001714
     16        8          -0.000002184    0.000000268    0.000004615
     17        1          -0.000003421    0.000000817   -0.000005720
     18        8           0.000006624   -0.000003145    0.000027523
     19        1           0.000002610    0.000000721    0.000004621
     20        8           0.000030761   -0.000001313   -0.000018668
     21        1          -0.000004055   -0.000002322    0.000002518
     22        1          -0.000005188   -0.000000710    0.000001606
     23        8          -0.000003016    0.000003031   -0.000020254
     24        1           0.000011566    0.000038896   -0.000005383
     25        8          -0.000109672    0.000040843    0.000141870
     26        1           0.000032743    0.000017504   -0.000153419
     27        1           0.000059442   -0.000039872    0.000040686
     28        8           0.000009082   -0.000039418   -0.000064374
     29        1          -0.000024118   -0.000010883    0.000039207
     30        1           0.000004043   -0.000002726   -0.000006250
 -------------------------------------------------------------------
 Cartesian Forces:  Max     0.000153419 RMS     0.000029701
 IRC-IRC-IRC-IRC-IRC-IRC-IRC-IRC-IRC-IRC-IRC-IRC-IRC-IRC-IRC-IRC-IRC-IRC
 Pt  1 Step number   1 out of a maximum of  20
 Modified Bulirsch-Stoer Extrapolation Cycles:
    EPS =    0.000010000000000
 Maximum DWI energy   std dev =  0.000000140 at pt     2
 Maximum DWI gradient std dev =  1.628253173 at pt     3
 WARNING: Bulirsch-Stoer Method is not Converging
 CORRECTOR INTEGRATION CONVERGENCE:
   Recorrection delta-x convergence threshold:    0.010000
   Delta-x Convergence NOT Met
 IRC-IRC-IRC-IRC-IRC-IRC-IRC-IRC-IRC-IRC-IRC-IRC-IRC-IRC-IRC-IRC-IRC-IRC
                          Input orientation:                          
 ---------------------------------------------------------------------
 Center     Atomic      Atomic             Coordinates (Angstroms)
 Number     Number       Type             X           Y           Z
 ---------------------------------------------------------------------
      1          8           0        0.495764   -0.679285   -0.810400
      2          6           0       -1.053838   -0.248671    1.078466
      3          6           0       -0.474183    1.581850   -0.657868
      4          6           0       -1.368816    1.174534    0.539559
      5          6           0        0.788232    0.720080   -0.746827
      6          6           0       -0.629700   -1.198097   -0.044419
      7          1           0       -1.187271    1.877468    1.364563
      8          1           0       -0.254833   -2.116107    0.428711
      9          1           0       -1.966699   -0.664439    1.519122
     10          1           0       -1.062928    1.431280   -1.567369
     11          6           0       -1.756323   -1.582233   -1.016389
     12          1           0       -1.319188   -2.140311   -1.857207
     13          1           0       -2.247558   -0.691578   -1.411944
     14          8           0       -2.774844   -2.323590   -0.355038
     15          1           0       -2.411358   -3.194429   -0.130033
     16          8           0       -0.107643    2.947729   -0.642202
     17          1           0        0.608299    3.016623    0.013791
     18          8           0       -2.708997    1.283181    0.064689
     19          1           0       -3.308666    1.098406    0.804976
     20          8           0       -0.088602   -0.225764    2.119369
     21          1           0        0.690923    0.247486    1.761555
     22          1           0        1.325835    0.926952   -1.677992
     23          8           0        1.593235    1.061614    0.359149
     24          1           0        3.753404   -0.854834   -0.037786
     25          8           0        2.671374   -2.233285    0.035054
     26          1           0        2.429560   -2.306723    0.972063
     27          1           0        1.903897   -1.769696   -0.370935
     28          8           0        4.042862    0.093872   -0.074729
     29          1           0        4.453057    0.207492   -0.944907
     30          1           0        2.542608    0.804293    0.180236
 ---------------------------------------------------------------------
                    Distance matrix (angstroms):
                    1          2          3          4          5
     1  O    0.000000
     2  C    2.480829   0.000000
     3  C    2.465116   2.588757   0.000000
     4  C    2.955622   1.554074   1.549228   0.000000
     5  C    1.431015   2.768284   1.531095   2.552288   0.000000
     6  C    1.456902   1.530416   2.851072   2.552783   2.486627
     7  H    3.755005   2.149448   2.164743   1.098957   3.114502
     8  H    2.040404   2.132581   3.860524   3.475854   3.242504
     9  H    3.389782   1.095608   3.465934   2.167678   3.826364
    10  H    2.730752   3.134128   1.093839   2.144442   2.146133
    11  C    2.435086   2.580753   3.432759   3.189185   3.442103
    12  H    2.554300   3.502411   4.000865   4.090861   3.722365
    13  H    2.808527   2.797012   2.980262   2.839529   3.413383
    14  O    3.688898   3.053208   4.542819   3.874802   4.702439
    15  H    3.903871   3.461332   5.181128   4.541264   5.093250
    16  O    3.680710   3.751394   1.414293   2.476154   2.403322
    17  H    3.788363   3.815544   1.918715   2.752945   2.425906
    18  O    3.858439   2.472624   2.367633   1.425971   3.634041
    19  H    4.499258   2.640770   3.226132   1.959403   4.397249
    20  O    3.021707   1.419748   3.336043   2.468923   3.143013
    21  H    2.740793   1.938291   2.998600   2.568115   2.554367
    22  H    2.005425   3.826616   2.170163   3.498568   1.094935
    23  O    2.367069   3.039944   2.362030   2.969688   1.409914
    24  H    3.352605   4.972225   4.918782   5.539747   3.431521
    25  O    2.804101   4.347942   4.992987   5.309509   3.588862
    26  H    3.092781   4.047339   5.119511   5.170481   3.848386
    27  H    1.834383   3.628012   4.119521   4.495347   2.754086
    28  O    3.704171   5.236749   4.791432   5.552606   3.381784
    29  H    4.057663   5.884557   5.123372   6.085476   3.705796
    30  H    2.715130   3.853566   3.226149   3.945305   1.986044
                    6          7          8          9         10
     6  C    0.000000
     7  H    3.428588   0.000000
     8  H    1.098689   4.206412   0.000000
     9  H    2.125327   2.663210   2.495359   0.000000
    10  H    3.069314   2.968294   4.149855   3.838654   0.000000
    11  C    1.536738   4.238193   2.151234   2.704703   3.140960
    12  H    2.156238   5.151674   2.521677   3.741265   3.592483
    13  H    2.178107   3.928511   3.064024   2.944616   2.435986
    14  O    2.442306   4.808981   2.647218   2.630276   4.301098
    15  H    2.677120   5.427370   2.474989   3.052586   5.028059
    16  O    4.221109   2.517571   5.177929   4.601649   2.016958
    17  H    4.393164   2.519192   5.221309   4.737811   2.793989
    18  O    3.239155   2.087702   4.208395   2.541576   2.322733
    19  H    3.629361   2.328174   4.449783   2.327768   3.283621
    20  O    2.433145   2.490058   2.541526   2.019896   4.157780
    21  H    2.663699   2.518344   2.873586   2.820165   3.944501
    22  H    3.317908   4.059104   4.024539   4.857452   2.443926
    23  O    3.195403   3.067195   3.676697   4.122854   3.302019
    24  H    4.396529   5.817415   4.227811   5.931255   5.546439
    25  O    3.460494   5.792670   2.954891   5.116195   5.471910
    26  H    3.409011   5.544635   2.745457   4.724771   5.711291
    27  H    2.617719   5.086165   2.327993   4.446956   4.525456
    28  O    4.847983   5.710259   4.858770   6.263403   5.485045
    29  H    5.349858   6.319475   5.426801   6.931448   5.684295
    30  H    3.758134   4.057873   4.051684   4.927843   4.055505
                   11         12         13         14         15
    11  C    0.000000
    12  H    1.099779   0.000000
    13  H    1.091348   1.777345   0.000000
    14  O    1.422807   2.099771   2.014582   0.000000
    15  H    1.952914   2.299376   2.816804   0.970108   0.000000
    16  O    4.835154   5.369565   4.291421   5.914662   6.579933
    17  H    5.272777   5.814619   4.892789   6.332421   6.907689
    18  O    3.207322   4.164799   2.508594   3.631708   4.491714
    19  H    3.593461   4.640531   3.040514   3.652486   4.484176
    20  O    3.801878   4.581810   4.165122   4.211824   4.389530
    21  H    4.129631   4.778865   4.425788   4.806447   5.004900
    22  H    4.029073   4.054179   3.931865   5.397388   5.774822
    23  O    4.483477   4.862793   4.578443   5.572233   5.864295
    24  H    5.643036   5.540210   6.158449   6.698948   6.594429
    25  O    4.597162   4.417451   5.354115   5.460917   5.175443
    26  H    4.690463   4.699528   5.492505   5.370968   5.043523
    27  H    3.721420   3.568562   4.413685   4.711440   4.550750
    28  O    6.109550   6.076214   6.478769   7.239047   7.243820
    29  H    6.462556   6.297879   6.776776   7.680942   7.704367
    30  H    5.060457   5.266434   5.264822   6.192371   6.373995
                   16         17         18         19         20
    16  O    0.000000
    17  H    0.973471   0.000000
    18  O    3.168195   3.743242   0.000000
    19  H    3.969997   4.432623   0.970448   0.000000
    20  O    4.206863   3.928383   3.655831   3.721542   0.000000
    21  H    3.702306   3.275611   3.938461   4.199503   0.979619
    22  H    2.685379   2.782752   4.409502   5.260526   4.212995
    23  O    2.730041   2.216175   4.317986   4.922271   2.753958
    24  H    5.452750   4.988238   6.807660   7.375515   4.450848
    25  O    5.918152   5.640768   6.427659   6.888674   3.998996
    26  H    6.054132   5.707301   6.333681   6.674584   3.462346
    27  H    5.135560   4.973473   5.548749   6.064618   3.543359
    28  O    5.068847   4.510713   6.857222   7.471809   4.688840
    29  H    5.329213   4.857210   7.312415   8.006258   5.495831
    30  H    3.506359   2.943410   5.274660   5.891877   3.427027
                   21         22         23         24         25
    21  H    0.000000
    22  H    3.563042   0.000000
    23  O    1.855724   2.059024   0.000000
    24  H    3.719076   3.429012   2.914903   0.000000
    25  O    3.613477   3.838242   3.481922   1.753916   0.000000
    26  H    3.189066   4.324078   3.524315   2.209149   0.970490
    27  H    3.176136   3.051960   2.940382   2.090128   0.984258
    28  O    3.825053   3.262929   2.669353   0.992570   2.703460
    29  H    4.634672   3.291588   3.257095   1.562344   3.176809
    30  H    2.497867   2.224543   0.999766   2.065493   3.043770
                   26         27         28         29         30
    26  H    0.000000
    27  H    1.538949   0.000000
    28  O    3.075935   2.852331   0.000000
    29  H    3.753743   3.276726   0.968699   0.000000
    30  H    3.212194   2.708719   1.679424   2.296069   0.000000
 Symmetry turned off by external request.
 Stoichiometry    C6H16O8
 Framework group  C1[X(C6H16O8)]
 Deg. of freedom    84
 Full point group                 C1      NOp   1
 Rotational constants (GHZ):      0.7636414      0.5116029      0.3777774
 Standard basis: 6-31G(d) (6D, 7F)
   242 basis functions,   456 primitive gaussians,   242 cartesian basis functions
    58 alpha electrons       58 beta electrons
       nuclear repulsion energy      1115.9896088159 Hartrees.
 NAtoms=   30 NActive=   30 NUniq=   30 SFac= 1.00D+00 NAtFMM=   60 NAOKFM=F Big=F
 Integral buffers will be    131072 words long.
 Raffenetti 2 integral format.
 Two-electron integral symmetry is turned off.
 One-electron integrals computed using PRISM.
 NBasis=   242 RedAO= T EigKep=  1.09D-03  NBF=   242
 NBsUse=   242 1.00D-06 EigRej= -1.00D+00 NBFU=   242
 Initial guess from the checkpoint file:  "/scratch/10502185.yak.local/Gau-1634.chk"
 B after Tr=     0.000014   -0.000014   -0.000010
         Rot=    1.000000    0.000076   -0.000258    0.000019 Ang=   0.03 deg.
 ExpMin= 1.61D-01 ExpMax= 5.48D+03 ExpMxC= 8.25D+02 IAcc=1 IRadAn=         1 AccDes= 0.00D+00
 Harris functional with IExCor=  402 and IRadAn=       1 diagonalized for initial guess.
 HarFok:  IExCor=  402 AccDes= 0.00D+00 IRadAn=         1 IDoV= 1 UseB2=F ITyADJ=14
 ICtDFT=  3500011 ScaDFX=  1.000000  1.000000  1.000000  1.000000
 FoFCou: FMM=F IPFlag=           0 FMFlag=      100000 FMFlg1=           0
         NFxFlg=           0 DoJE=T BraDBF=F KetDBF=T FulRan=T
         wScrn=  0.000000 ICntrl=     500 IOpCl=  0 I1Cent=   200000004 NGrid=           0
         NMat0=    1 NMatS0=      1 NMatT0=    0 NMatD0=    1 NMtDS0=    0 NMtDT0=    0
 Symmetry not used in FoFCou.
 Requested convergence on RMS density matrix=1.00D-08 within 128 cycles.
 Requested convergence on MAX density matrix=1.00D-06.
 Requested convergence on             energy=1.00D-06.
 No special actions if energy rises.
 Integral accuracy reduced to 1.0D-05 until final iterations.
 Initial convergence to 1.0D-05 achieved.  Increase integral accuracy.
 SCF Done:  E(RB3LYP) =  -840.000707583     A.U. after    9 cycles
            NFock=  9  Conv=0.38D-08     -V/T= 2.0085
 DoSCS=F DFT=T ScalE2(SS,OS)=  1.000000  1.000000
 Range of M.O.s used for correlation:     1   242
 NBasis=   242 NAE=    58 NBE=    58 NFC=     0 NFV=     0
 NROrb=    242 NOA=    58 NOB=    58 NVA=   184 NVB=   184
 Symmetrizing basis deriv contribution to polar:
 IMax=3 JMax=2 DiffMx= 0.00D+00
 Calling FoFJK, ICntrl=      2147 FMM=F ISym2X=0 I1Cent= 0 IOpClX= 0 NMat=1 NMatS=1 NMatT=0.
 -------------------------------------------------------------------
 Center     Atomic                   Forces (Hartrees/Bohr)
 Number     Number              X              Y              Z
 -------------------------------------------------------------------
      1        8          -0.000006492   -0.000000084   -0.000010268
      2        6           0.000009323   -0.000003668    0.000003984
      3        6          -0.000004379   -0.000001073    0.000000009
      4        6           0.000004999    0.000000707    0.000008119
      5        6          -0.000004227    0.000000749   -0.000009212
      6        6          -0.000000052    0.000000435   -0.000002614
      7        1           0.000001226   -0.000000211    0.000000197
      8        1           0.000000127   -0.000000541    0.000000566
      9        1           0.000002040    0.000000797    0.000001637
     10        1          -0.000000963   -0.000000132    0.000001424
     11        6          -0.000007450    0.000004660    0.000005260
     12        1          -0.000001991   -0.000000396    0.000001232
     13        1          -0.000000701   -0.000000538    0.000002684
     14        8          -0.000002959    0.000002012    0.000013302
     15        1          -0.000000757    0.000000570    0.000002338
     16        8          -0.000005587    0.000000440   -0.000000852
     17        1          -0.000000582   -0.000000032   -0.000001976
     18        8           0.000002919   -0.000000027    0.000025333
     19        1           0.000000960    0.000000441    0.000002959
     20        8           0.000023733   -0.000006106   -0.000007368
     21        1           0.000001739    0.000000274   -0.000001152
     22        1          -0.000001799   -0.000000369   -0.000000770
     23        8           0.000002701    0.000001165   -0.000020196
     24        1          -0.000000453   -0.000002148   -0.000002911
     25        8          -0.000001789    0.000001543    0.000009468
     26        1          -0.000004445    0.000000525    0.000017658
     27        1          -0.000006890    0.000004159   -0.000006430
     28        8           0.000006535   -0.000000036   -0.000035518
     29        1          -0.000005615   -0.000002846    0.000005909
     30        1           0.000000831   -0.000000269   -0.000002813
 -------------------------------------------------------------------
 Cartesian Forces:  Max     0.000035518 RMS     0.000007089
 IRC-IRC-IRC-IRC-IRC-IRC-IRC-IRC-IRC-IRC-IRC-IRC-IRC-IRC-IRC-IRC-IRC-IRC
 Error in corrector energy =           0.0000001173
 Magnitude of corrector gradient =     0.0000683067
 Magnitude of analytic gradient =      0.0000672563
 Magnitude of difference =             0.0000351576
 Angle between gradients (degrees)=   30.0496
 Pt  1 Step number   2 out of a maximum of  20
 Modified Bulirsch-Stoer Extrapolation Cycles:
    EPS =    0.000010000000000
 Maximum DWI energy   std dev =  0.000000144 at pt     2
 Maximum DWI gradient std dev =  1.287228929 at pt     3
 WARNING: Bulirsch-Stoer Method is not Converging
 CORRECTOR INTEGRATION CONVERGENCE:
   Recorrection delta-x convergence threshold:    0.010000
   Delta-x Convergence NOT Met
 IRC-IRC-IRC-IRC-IRC-IRC-IRC-IRC-IRC-IRC-IRC-IRC-IRC-IRC-IRC-IRC-IRC-IRC
                          Input orientation:                          
 ---------------------------------------------------------------------
 Center     Atomic      Atomic             Coordinates (Angstroms)
 Number     Number       Type             X           Y           Z
 ---------------------------------------------------------------------
      1          8           0        0.495451   -0.679400   -0.810457
      2          6           0       -1.053504   -0.248512    1.078884
      3          6           0       -0.474327    1.581802   -0.657831
      4          6           0       -1.368586    1.174657    0.539930
      5          6           0        0.788011    0.719956   -0.747120
      6          6           0       -0.629774   -1.198081   -0.044038
      7          1           0       -1.186728    1.877664    1.364803
      8          1           0       -0.254787   -2.116052    0.429073
      9          1           0       -1.966243   -0.664184    1.519882
     10          1           0       -1.063386    1.431174   -1.567119
     11          6           0       -1.756737   -1.582269   -1.015594
     12          1           0       -1.319907   -2.140442   -1.856507
     13          1           0       -2.248075   -0.691631   -1.411054
     14          8           0       -2.775072   -2.323525   -0.353850
     15          1           0       -2.411505   -3.194302   -0.128733
     16          8           0       -0.107705    2.947663   -0.642422
     17          1           0        0.608478    3.016577    0.013306
     18          8           0       -2.708919    1.283324    0.065490
     19          1           0       -3.308346    1.098747    0.806025
     20          8           0       -0.087937   -0.225540    2.119476
     21          1           0        0.691514    0.247597    1.761353
     22          1           0        1.325308    0.926706   -1.678489
     23          8           0        1.593403    1.061554    0.358553
     24          1           0        3.753375   -0.854984   -0.039219
     25          8           0        2.671385   -2.233447    0.034096
     26          1           0        2.429919   -2.306700    0.971230
     27          1           0        1.903754   -1.769902   -0.371677
     28          8           0        4.042841    0.093721   -0.076219
     29          1           0        4.452641    0.207386   -0.946580
     30          1           0        2.542704    0.804181    0.179321
 ---------------------------------------------------------------------
                    Distance matrix (angstroms):
                    1          2          3          4          5
     1  O    0.000000
     2  C    2.480833   0.000000
     3  C    2.465116   2.588758   0.000000
     4  C    2.955623   1.554077   1.549224   0.000000
     5  C    1.431013   2.768284   1.531094   2.552286   0.000000
     6  C    1.456901   1.530418   2.851079   2.552791   2.486625
     7  H    3.755004   2.149447   2.164739   1.098956   3.114499
     8  H    2.040407   2.132582   3.860528   3.475860   3.242499
     9  H    3.389786   1.095607   3.465933   2.167679   3.826363
    10  H    2.730757   3.134130   1.093840   2.144436   2.146136
    11  C    2.435078   2.580752   3.432770   3.189194   3.442101
    12  H    2.554288   3.502412   4.000866   4.090863   3.722356
    13  H    2.808523   2.796988   2.980272   2.839519   3.413385
    14  O    3.688896   3.053227   4.542841   3.874832   4.702446
    15  H    3.903828   3.461240   5.181097   4.541210   5.093203
    16  O    3.680709   3.751395   1.414294   2.476152   2.403320
    17  H    3.788351   3.815553   1.918716   2.752959   2.425891
    18  O    3.858439   2.472627   2.367632   1.425972   3.634039
    19  H    4.499299   2.640809   3.226124   1.959397   4.397258
    20  O    3.021728   1.419746   3.336048   2.468922   3.143028
    21  H    2.740798   1.938293   2.998623   2.568137   2.554383
    22  H    2.005422   3.826616   2.170158   3.498562   1.094935
    23  O    2.367066   3.039945   2.362033   2.969691   1.409914
    24  H    3.352567   4.972328   4.918747   5.539796   3.431464
    25  O    2.804108   4.348142   4.993034   5.309652   3.588870
    26  H    3.092682   4.047464   5.119466   5.170542   3.848277
    27  H    1.834405   3.628240   4.119596   4.495516   2.754130
    28  O    3.704160   5.236804   4.791395   5.552621   3.381745
    29  H    4.057619   5.884554   5.123223   6.085393   3.705675
    30  H    2.715127   3.853581   3.226142   3.945311   1.986035
                    6          7          8          9         10
     6  C    0.000000
     7  H    3.428591   0.000000
     8  H    1.098691   4.206408   0.000000
     9  H    2.125333   2.663208   2.495369   0.000000
    10  H    3.069328   2.968288   4.149871   3.838652   0.000000
    11  C    1.536739   4.238199   2.151242   2.704702   3.140979
    12  H    2.156240   5.151674   2.521697   3.741269   3.592490
    13  H    2.178100   3.928500   3.064024   2.944583   2.436009
    14  O    2.442316   4.809011   2.647234   2.630302   4.301122
    15  H    2.677057   5.427297   2.474915   3.052489   5.028061
    16  O    4.221115   2.517567   5.177929   4.601647   2.016961
    17  H    4.393164   2.519212   5.221299   4.737821   2.793989
    18  O    3.239167   2.087706   4.208410   2.541576   2.322724
    19  H    3.629431   2.328134   4.449859   2.327822   3.283620
    20  O    2.433150   2.490048   2.541522   2.019889   4.157786
    21  H    2.663686   2.518366   2.873550   2.820164   3.944522
    22  H    3.317905   4.059098   4.024537   4.857450   2.443922
    23  O    3.195394   3.067198   3.676677   4.122855   3.302024
    24  H    4.396560   5.817496   4.227878   5.931376   5.546367
    25  O    3.460598   5.792844   2.955041   5.116418   5.471915
    26  H    3.409037   5.544722   2.745528   4.724946   5.711226
    27  H    2.617841   5.086372   2.328158   4.447188   4.525471
    28  O    4.848002   5.710288   4.858809   6.263469   5.484990
    29  H    5.349847   6.319399   5.426846   6.931460   5.684126
    30  H    3.758133   4.057881   4.051678   4.927859   4.055497
                   11         12         13         14         15
    11  C    0.000000
    12  H    1.099779   0.000000
    13  H    1.091347   1.777351   0.000000
    14  O    1.422804   2.099763   2.014568   0.000000
    15  H    1.952919   2.299437   2.816810   0.970108   0.000000
    16  O    4.835168   5.369567   4.291438   5.914689   6.579902
    17  H    5.272784   5.814612   4.892800   6.332448   6.907639
    18  O    3.207338   4.164805   2.508586   3.631746   4.491693
    19  H    3.593554   4.640615   3.040569   3.652620   4.484234
    20  O    3.801877   4.581816   4.165102   4.211837   4.389414
[...]
 ICtDFT=  3500011 ScaDFX=  1.000000  1.000000  1.000000  1.000000
 FoFCou: FMM=F IPFlag=           0 FMFlag=      100000 FMFlg1=           0
         NFxFlg=           0 DoJE=T BraDBF=F KetDBF=T FulRan=T
         wScrn=  0.000000 ICntrl=     500 IOpCl=  0 I1Cent=   200000004 NGrid=           0
         NMat0=    1 NMatS0=      1 NMatT0=    0 NMatD0=    1 NMtDS0=    0 NMtDT0=    0
 Symmetry not used in FoFCou.
 Requested convergence on RMS density matrix=1.00D-08 within 128 cycles.
 Requested convergence on MAX density matrix=1.00D-06.
 Requested convergence on             energy=1.00D-06.
 No special actions if energy rises.
 Integral accuracy reduced to 1.0D-05 until final iterations.
 Initial convergence to 1.0D-05 achieved.  Increase integral accuracy.
 SCF Done:  E(RB3LYP) =  -840.000707777     A.U. after    8 cycles
            NFock=  8  Conv=0.35D-08     -V/T= 2.0085
 DoSCS=F DFT=T ScalE2(SS,OS)=  1.000000  1.000000
 Range of M.O.s used for correlation:     1   242
 NBasis=   242 NAE=    58 NBE=    58 NFC=     0 NFV=     0
 NROrb=    242 NOA=    58 NOB=    58 NVA=   184 NVB=   184
 Symmetrizing basis deriv contribution to polar:
 IMax=3 JMax=2 DiffMx= 0.00D+00
 Calling FoFJK, ICntrl=      2147 FMM=F ISym2X=0 I1Cent= 0 IOpClX= 0 NMat=1 NMatS=1 NMatT=0.
 -------------------------------------------------------------------
 Center     Atomic                   Forces (Hartrees/Bohr)
 Number     Number              X              Y              Z
 -------------------------------------------------------------------
      1        8          -0.000006042   -0.000000194   -0.000009486
      2        6           0.000009336   -0.000001674    0.000003880
      3        6          -0.000004376   -0.000000343    0.000000773
      4        6           0.000005578   -0.000000896    0.000008022
      5        6          -0.000004834   -0.000000011   -0.000009399
      6        6          -0.000000319   -0.000000216   -0.000000908
      7        1           0.000001086   -0.000000141    0.000000596
      8        1           0.000000153   -0.000000143   -0.000000474
      9        1           0.000001088   -0.000000144    0.000000955
     10        1          -0.000000990   -0.000000024    0.000000465
     11        6          -0.000007682    0.000002848    0.000006409
     12        1          -0.000001187    0.000000374    0.000000168
     13        1          -0.000000871    0.000000323    0.000001010
     14        8          -0.000004193    0.000002520    0.000016436
     15        1          -0.000000140    0.000000126    0.000000710
     16        8          -0.000006169   -0.000000368   -0.000002593
     17        1           0.000000084   -0.000000023   -0.000000674
     18        8           0.000002166    0.000000247    0.000025835
     19        1           0.000000673    0.000000082    0.000002037
     20        8           0.000024914   -0.000004747   -0.000005930
     21        1           0.000001214   -0.000000051   -0.000000814
     22        1          -0.000001011    0.000000038   -0.000001123
     23        8           0.000004373    0.000000706   -0.000020391
     24        1          -0.000000350   -0.000001338   -0.000000978
     25        8          -0.000012246    0.000005019    0.000017881
     26        1          -0.000000925    0.000002115    0.000000428
     27        1          -0.000000349    0.000000102    0.000000249
     28        8           0.000006089   -0.000001206   -0.000039207
     29        1          -0.000005362   -0.000002946    0.000007969
     30        1           0.000000292   -0.000000034   -0.000001846
 -------------------------------------------------------------------
 Cartesian Forces:  Max     0.000039207 RMS     0.000007375
 IRC-IRC-IRC-IRC-IRC-IRC-IRC-IRC-IRC-IRC-IRC-IRC-IRC-IRC-IRC-IRC-IRC-IRC
 Error in corrector energy =          -0.0000000000
 Magnitude of corrector gradient =     0.0000699691
 Magnitude of analytic gradient =      0.0000699694
 Magnitude of difference =             0.0000000006
 Angle between gradients (degrees)=    0.0004
 Pt  1 Step number  19 out of a maximum of  20
 Modified Bulirsch-Stoer Extrapolation Cycles:
    EPS =    0.000010000000000
 Maximum DWI energy   std dev =  0.000000186 at pt     2
 Maximum DWI gradient std dev =  1.379962538 at pt     3
 WARNING: Bulirsch-Stoer Method is not Converging
 CORRECTOR INTEGRATION CONVERGENCE:
   Recorrection delta-x convergence threshold:    0.010000
   Delta-x Convergence NOT Met
 IRC-IRC-IRC-IRC-IRC-IRC-IRC-IRC-IRC-IRC-IRC-IRC-IRC-IRC-IRC-IRC-IRC-IRC
                          Input orientation:                          
 ---------------------------------------------------------------------
 Center     Atomic      Atomic             Coordinates (Angstroms)
 Number     Number       Type             X           Y           Z
 ---------------------------------------------------------------------
      1          8           0        0.495458   -0.679443   -0.810319
      2          6           0       -1.053579   -0.248436    1.078940
      3          6           0       -0.474286    1.581780   -0.657839
      4          6           0       -1.368626    1.174700    0.539881
      5          6           0        0.788044    0.719911   -0.747021
      6          6           0       -0.629777   -1.198082   -0.043890
      7          1           0       -1.186829    1.877754    1.364725
      8          1           0       -0.254793   -2.116004    0.429324
      9          1           0       -1.966352   -0.664077    1.519894
     10          1           0       -1.063288    1.431125   -1.567158
     11          6           0       -1.756687   -1.582364   -1.015466
     12          1           0       -1.319815   -2.140638   -1.856290
     13          1           0       -2.247977   -0.691757   -1.411055
     14          8           0       -2.775080   -2.323527   -0.353709
     15          1           0       -2.411542   -3.194281   -0.128459
     16          8           0       -0.107643    2.947638   -0.642461
     17          1           0        0.608494    3.016566    0.013313
     18          8           0       -2.708926    1.283337    0.065343
     19          1           0       -3.308405    1.098779    0.805838
     20          8           0       -0.088097   -0.225400    2.119602
     21          1           0        0.691413    0.247644    1.761487
     22          1           0        1.325393    0.926608   -1.678370
     23          8           0        1.593385    1.061533    0.358674
     24          1           0        3.753415   -0.854982   -0.039509
     25          8           0        2.671628   -2.233589    0.033472
     26          1           0        2.430414   -2.307421    0.970620
     27          1           0        1.903813   -1.769992   -0.371902
     28          8           0        4.042820    0.093752   -0.076230
     29          1           0        4.452638    0.207702   -0.946545
     30          1           0        2.542689    0.804147    0.179477
 ---------------------------------------------------------------------
                    Distance matrix (angstroms):
                    1          2          3          4          5
     1  O    0.000000
     2  C    2.480843   0.000000
     3  C    2.465113   2.588759   0.000000
     4  C    2.955621   1.554077   1.549223   0.000000
     5  C    1.431015   2.768285   1.531094   2.552288   0.000000
     6  C    1.456899   1.530419   2.851095   2.552798   2.486625
     7  H    3.755018   2.149445   2.164736   1.098955   3.114513
     8  H    2.040416   2.132574   3.860532   3.475856   3.242484
     9  H    3.389785   1.095606   3.465928   2.167672   3.826359
    10  H    2.730749   3.134144   1.093838   2.144435   2.146132
    11  C    2.435058   2.580749   3.432820   3.189215   3.442119
    12  H    2.554283   3.502412   4.000951   4.090903   3.722404
    13  H    2.808464   2.796998   2.980317   2.839555   3.413381
    14  O    3.688892   3.053204   4.542860   3.874817   4.702452
    15  H    3.903844   3.461197   5.181117   4.541184   5.093218
    16  O    3.680709   3.751387   1.414295   2.476150   2.403322
    17  H    3.788354   3.815532   1.918715   2.752953   2.425895
    18  O    3.858414   2.472626   2.367631   1.425971   3.634030
    19  H    4.499268   2.640798   3.226124   1.959398   4.397250
    20  O    3.021776   1.419740   3.336048   2.468917   3.143049
    21  H    2.740817   1.938288   2.998652   2.568173   2.554405
    22  H    2.005418   3.826617   2.170157   3.498561   1.094934
    23  O    2.367063   3.039938   2.362037   2.969706   1.409908
    24  H    3.352499   4.972527   4.918699   5.539910   3.431369
    25  O    2.804117   4.348678   4.993168   5.310041   3.588903
    26  H    3.092914   4.048377   5.120063   5.171402   3.848689
    27  H    1.834386   3.628532   4.119647   4.495711   2.754137
    28  O    3.704119   5.236869   4.791320   5.552638   3.381657
    29  H    4.057691   5.884647   5.123087   6.085364   3.705593
    30  H    2.715123   3.853584   3.226135   3.945324   1.986020
                    6          7          8          9         10
     6  C    0.000000
     7  H    3.428596   0.000000
     8  H    1.098692   4.206396   0.000000
     9  H    2.125327   2.663201   2.495370   0.000000
    10  H    3.069366   2.968279   4.149907   3.838657   0.000000
    11  C    1.536737   4.238215   2.151250   2.704674   3.141063
    12  H    2.156238   5.151709   2.521688   3.741238   3.592617
    13  H    2.178091   3.928534   3.064026   2.944579   2.436080
    14  O    2.442323   4.808983   2.647272   2.630248   4.301174
    15  H    2.677060   5.427252   2.474949   3.052408   5.028124
    16  O    4.221126   2.517556   5.177919   4.601637   2.016962
    17  H    4.393158   2.519204   5.221264   4.737800   2.793988
    18  O    3.239171   2.087703   4.208416   2.541566   2.322719
    19  H    3.629416   2.328141   4.449847   2.327798   3.283613
    20  O    2.433151   2.490042   2.541498   2.019883   4.157796
    21  H    2.663653   2.518427   2.873464   2.820162   3.944551
    22  H    3.317909   4.059109   4.024530   4.857444   2.443912
    23  O    3.195366   3.067238   3.676614   4.122850   3.302021
    24  H    4.396602   5.817709   4.227968   5.931603   5.546227
    25  O    3.460857   5.793364   2.955412   5.116998   5.471905
    26  H    3.409491   5.545760   2.745902   4.725868   5.711655
    27  H    2.617967   5.086649   2.328361   4.447484   4.525426
    28  O    4.847994   5.710363   4.858815   6.263551   5.484868
    29  H    5.349949   6.319385   5.427018   6.931576   5.683957
    30  H    3.758105   4.057924   4.051618   4.927865   4.055479
                   11         12         13         14         15
    11  C    0.000000
    12  H    1.099778   0.000000
    13  H    1.091346   1.777351   0.000000
    14  O    1.422804   2.099760   2.014570   0.000000
    15  H    1.952920   2.299441   2.816813   0.970108   0.000000
    16  O    4.835224   5.369665   4.291499   5.914709   6.579918
    17  H    5.272819   5.814684   4.892843   6.332446   6.907629
    18  O    3.207358   4.164842   2.508629   3.631728   4.491666
    19  H    3.593537   4.640608   3.040583   3.652556   4.484155
    20  O    3.801867   4.581810   4.165106   4.211802   4.389354
    21  H    4.129600   4.778833   4.425778   4.806407   5.004705
    22  H    4.029094   4.054230   3.931862   5.397405   5.774828
    23  O    4.483463   4.862788   4.578431   5.572217   5.864188
    24  H    5.642943   5.539971   6.158287   6.698999   6.594462
    25  O    4.597210   4.417178   5.354103   5.461192   5.175690
    26  H    4.690636   4.699304   5.492731   5.371338   5.043712
    27  H    3.721376   3.568272   4.413592   4.711557   4.550841
    28  O    6.109486   6.076099   6.478651   7.239060   7.243803
    29  H    6.462569   6.297901   6.776654   7.681047   7.704526
    30  H    5.060431   5.266408   5.264789   6.192358   6.373905
                   16         17         18         19         20
    16  O    0.000000
    17  H    0.973470   0.000000
    18  O    3.168210   3.743269   0.000000
    19  H    3.969978   4.432618   0.970449   0.000000
    20  O    4.206844   3.928363   3.655818   3.721533   0.000000
    21  H    3.702354   3.275655   3.938511   4.199553   0.979619
    22  H    2.685380   2.782744   4.409481   5.260515   4.213036
    23  O    2.730048   2.216176   4.317999   4.922285   2.753987
    24  H    5.452636   4.988206   6.807735   7.375710   4.451444
    25  O    5.918306   5.641015   6.428074   6.889269   4.000106
    26  H    6.054701   5.707947   6.334499   6.675582   3.463794
    27  H    5.135678   4.973668   5.548996   6.064993   3.544159
    28  O    5.068691   4.510593   6.857203   7.471856   4.689138
    29  H    5.328778   4.856797   7.312243   8.006163   5.496100
    30  H    3.506337   2.943385   5.274666   5.891896   3.427111
                   21         22         23         24         25
    21  H    0.000000
    22  H    3.563080   0.000000
    23  O    1.855763   2.059023   0.000000
    24  H    3.719574   3.428589   2.915015   0.000000
    25  O    3.614388   3.837916   3.482269   1.753895   0.000000
    26  H    3.190290   4.324021   3.524904   2.209134   0.970506
    27  H    3.176809   3.051733   2.940687   2.090157   0.984271
    28  O    3.825287   3.262654   2.669358   0.992573   2.703465
    29  H    4.634851   3.291208   3.256985   1.562346   3.176844
    30  H    2.497934   2.224501   0.999768   2.065556   3.043976
                   26         27         28         29         30
    26  H    0.000000
    27  H    1.538995   0.000000
    28  O    3.075936   2.852423   0.000000
    29  H    3.753766   3.276888   0.968702   0.000000
    30  H    3.212533   2.708943   1.679417   2.295992   0.000000
 Symmetry turned off by external request.
 Stoichiometry    C6H16O8
 Framework group  C1[X(C6H16O8)]
 Deg. of freedom    84
 Full point group                 C1      NOp   1
 Rotational constants (GHZ):      0.7636182      0.5115859      0.3777627
 Standard basis: 6-31G(d) (6D, 7F)
   242 basis functions,   456 primitive gaussians,   242 cartesian basis functions
    58 alpha electrons       58 beta electrons
       nuclear repulsion energy      1115.9786027065 Hartrees.
 NAtoms=   30 NActive=   30 NUniq=   30 SFac= 1.00D+00 NAtFMM=   60 NAOKFM=F Big=F
 Integral buffers will be    131072 words long.
 Raffenetti 2 integral format.
 Two-electron integral symmetry is turned off.
 One-electron integrals computed using PRISM.
 NBasis=   242 RedAO= T EigKep=  1.09D-03  NBF=   242
 NBsUse=   242 1.00D-06 EigRej= -1.00D+00 NBFU=   242
 Initial guess from the checkpoint file:  "/scratch/10502185.yak.local/Gau-1634.chk"
 B after Tr=     0.000000   -0.000000   -0.000000
         Rot=    1.000000   -0.000000    0.000000   -0.000000 Ang=   0.00 deg.
 ExpMin= 1.61D-01 ExpMax= 5.48D+03 ExpMxC= 8.25D+02 IAcc=1 IRadAn=         1 AccDes= 0.00D+00
 Harris functional with IExCor=  402 and IRadAn=       1 diagonalized for initial guess.
 HarFok:  IExCor=  402 AccDes= 0.00D+00 IRadAn=         1 IDoV= 1 UseB2=F ITyADJ=14
 ICtDFT=  3500011 ScaDFX=  1.000000  1.000000  1.000000  1.000000
 FoFCou: FMM=F IPFlag=           0 FMFlag=      100000 FMFlg1=           0
         NFxFlg=           0 DoJE=T BraDBF=F KetDBF=T FulRan=T
         wScrn=  0.000000 ICntrl=     500 IOpCl=  0 I1Cent=   200000004 NGrid=           0
         NMat0=    1 NMatS0=      1 NMatT0=    0 NMatD0=    1 NMtDS0=    0 NMtDT0=    0
 Symmetry not used in FoFCou.
 Requested convergence on RMS density matrix=1.00D-08 within 128 cycles.
 Requested convergence on MAX density matrix=1.00D-06.
 Requested convergence on             energy=1.00D-06.
 No special actions if energy rises.
 Integral accuracy reduced to 1.0D-05 until final iterations.
 Initial convergence to 1.0D-05 achieved.  Increase integral accuracy.
 SCF Done:  E(RB3LYP) =  -840.000707777     A.U. after    8 cycles
            NFock=  8  Conv=0.35D-08     -V/T= 2.0085
 DoSCS=F DFT=T ScalE2(SS,OS)=  1.000000  1.000000
 Range of M.O.s used for correlation:     1   242
 NBasis=   242 NAE=    58 NBE=    58 NFC=     0 NFV=     0
 NROrb=    242 NOA=    58 NOB=    58 NVA=   184 NVB=   184
 Symmetrizing basis deriv contribution to polar:
 IMax=3 JMax=2 DiffMx= 0.00D+00
 Calling FoFJK, ICntrl=      2147 FMM=F ISym2X=0 I1Cent= 0 IOpClX= 0 NMat=1 NMatS=1 NMatT=0.
 -------------------------------------------------------------------
 Center     Atomic                   Forces (Hartrees/Bohr)
 Number     Number              X              Y              Z
 -------------------------------------------------------------------
      1        8          -0.000006042   -0.000000194   -0.000009486
      2        6           0.000009336   -0.000001674    0.000003880
      3        6          -0.000004376   -0.000000343    0.000000773
      4        6           0.000005578   -0.000000896    0.000008022
      5        6          -0.000004834   -0.000000011   -0.000009399
      6        6          -0.000000319   -0.000000216   -0.000000908
      7        1           0.000001086   -0.000000141    0.000000596
      8        1           0.000000153   -0.000000143   -0.000000474
      9        1           0.000001088   -0.000000144    0.000000955
     10        1          -0.000000990   -0.000000024    0.000000465
     11        6          -0.000007682    0.000002848    0.000006409
     12        1          -0.000001187    0.000000374    0.000000168
     13        1          -0.000000871    0.000000323    0.000001010
     14        8          -0.000004193    0.000002520    0.000016436
     15        1          -0.000000140    0.000000126    0.000000710
     16        8          -0.000006169   -0.000000368   -0.000002593
     17        1           0.000000084   -0.000000023   -0.000000674
     18        8           0.000002166    0.000000247    0.000025834
     19        1           0.000000673    0.000000082    0.000002038
     20        8           0.000024914   -0.000004747   -0.000005930
     21        1           0.000001214   -0.000000051   -0.000000814
     22        1          -0.000001011    0.000000038   -0.000001123
     23        8           0.000004373    0.000000706   -0.000020390
     24        1          -0.000000350   -0.000001338   -0.000000979
     25        8          -0.000012246    0.000005019    0.000017881
     26        1          -0.000000925    0.000002115    0.000000429
     27        1          -0.000000349    0.000000102    0.000000249
     28        8           0.000006089   -0.000001206   -0.000039206
     29        1          -0.000005362   -0.000002946    0.000007968
     30        1           0.000000292   -0.000000034   -0.000001846
 -------------------------------------------------------------------
 Cartesian Forces:  Max     0.000039206 RMS     0.000007375
 IRC-IRC-IRC-IRC-IRC-IRC-IRC-IRC-IRC-IRC-IRC-IRC-IRC-IRC-IRC-IRC-IRC-IRC
 Error in corrector energy =           0.0000000000
 Magnitude of corrector gradient =     0.0000699689
 Magnitude of analytic gradient =      0.0000699688
 Magnitude of difference =             0.0000000003
 Angle between gradients (degrees)=    0.0002
 Pt  1 Step number  20 out of a maximum of  20
 Modified Bulirsch-Stoer Extrapolation Cycles:
    EPS =    0.000010000000000
 Maximum DWI energy   std dev =  0.000000186 at pt     2
 Maximum DWI gradient std dev =  1.379948811 at pt     3
 WARNING: Bulirsch-Stoer Method is not Converging
 CORRECTOR INTEGRATION CONVERGENCE:
   Recorrection delta-x convergence threshold:    0.010000
   Delta-x Convergence NOT Met
 Maximum number of corrector steps exceded.
 Error termination via Lnk1e in /global/software/gaussian/g09.e01/l123.exe at Tue Jan 31 15:36:13 2017.
 Job cpu time:       0 days  4 hours 15 minutes 17.9 seconds.
 File lengths (MBytes):  RWF=    220 Int=      0 D2E=      0 Chk=      8 Scr=      1
