 Entering Gaussian System, Link 0=g09
 Initial command:
 /global/software/gaussian/g09.d01/l1.exe "/home/iawad/Gau-1762.inp" -scrdir="/home/iawad/"
 Entering Link 1 = /global/software/gaussian/g09.d01/l1.exe PID=      1763.
  
 Copyright (c) 1988,1990,1992,1993,1995,1998,2003,2009,2013,
            Gaussian, Inc.  All Rights Reserved.
  
 This is part of the Gaussian(R) 09 program.  It is based on
 the Gaussian(R) 03 system (copyright 2003, Gaussian, Inc.),
 the Gaussian(R) 98 system (copyright 1998, Gaussian, Inc.),
 the Gaussian(R) 94 system (copyright 1995, Gaussian, Inc.),
 the Gaussian 92(TM) system (copyright 1992, Gaussian, Inc.),
 the Gaussian 90(TM) system (copyright 1990, Gaussian, Inc.),
 the Gaussian 88(TM) system (copyright 1988, Gaussian, Inc.),
 the Gaussian 86(TM) system (copyright 1986, Carnegie Mellon
 University), and the Gaussian 82(TM) system (copyright 1983,
 Carnegie Mellon University). Gaussian is a federally registered
 trademark of Gaussian, Inc.
  
 This software contains proprietary and confidential information,
 including trade secrets, belonging to Gaussian, Inc.
  
 This software is provided under written license and may be
 used, copied, transmitted, or stored only in accord with that
 written license.
  
 The following legend is applicable only to US Government
 contracts under FAR:
  
                    RESTRICTED RIGHTS LEGEND
  
 Use, reproduction and disclosure by the US Government is
 subject to restrictions as set forth in subparagraphs (a)
 and (c) of the Commercial Computer Software - Restricted
 Rights clause in FAR 52.227-19.
  
 Gaussian, Inc.
 340 Quinnipiac St., Bldg. 40, Wallingford CT 06492
  
  
 ---------------------------------------------------------------
 Warning -- This program may not be used in any manner that
 competes with the business of Gaussian, Inc. or will provide
 assistance to any competitor of Gaussian, Inc.  The licensee
 of this program is prohibited from giving any competitor of
 Gaussian, Inc. access to this program.  By using this program,
 the user acknowledges that Gaussian, Inc. is engaged in the
 business of creating and licensing software in the field of
 computational chemistry and represents and warrants to the
 licensee that it is not a competitor of Gaussian, Inc. and that
 it will not use this program in any manner prohibited above.
 ---------------------------------------------------------------
  

 Cite this work as:
 Gaussian 09, Revision D.01,
 M. J. Frisch, G. W. Trucks, H. B. Schlegel, G. E. Scuseria, 
 M. A. Robb, J. R. Cheeseman, G. Scalmani, V. Barone, B. Mennucci, 
 G. A. Petersson, H. Nakatsuji, M. Caricato, X. Li, H. P. Hratchian, 
 A. F. Izmaylov, J. Bloino, G. Zheng, J. L. Sonnenberg, M. Hada, 
 M. Ehara, K. Toyota, R. Fukuda, J. Hasegawa, M. Ishida, T. Nakajima, 
 Y. Honda, O. Kitao, H. Nakai, T. Vreven, J. A. Montgomery, Jr., 
 J. E. Peralta, F. Ogliaro, M. Bearpark, J. J. Heyd, E. Brothers, 
 K. N. Kudin, V. N. Staroverov, T. Keith, R. Kobayashi, J. Normand, 
 K. Raghavachari, A. Rendell, J. C. Burant, S. S. Iyengar, J. Tomasi, 
 M. Cossi, N. Rega, J. M. Millam, M. Klene, J. E. Knox, J. B. Cross, 
 V. Bakken, C. Adamo, J. Jaramillo, R. Gomperts, R. E. Stratmann, 
 O. Yazyev, A. J. Austin, R. Cammi, C. Pomelli, J. W. Ochterski, 
 R. L. Martin, K. Morokuma, V. G. Zakrzewski, G. A. Voth, 
 P. Salvador, J. J. Dannenberg, S. Dapprich, A. D. Daniels, 
 O. Farkas, J. B. Foresman, J. V. Ortiz, J. Cioslowski, 
 and D. J. Fox, Gaussian, Inc., Wallingford CT, 2013.
 
 ******************************************
 Gaussian 09:  ES64L-G09RevD.01 24-Apr-2013
                 7-Jan-2017 
 ******************************************
 %nprocshared=12
 Will use up to   12 processors via shared memory.
 ----------------------------------------------------------------------
 # opt=(calcfc,ts,noeigentest,maxcycle=1000,cartesian) freq B3LYP/6-31G
 (d)
 ----------------------------------------------------------------------
 1/5=1,6=1000,10=4,11=1,14=-1,18=10,26=3,38=1/1,3;
 2/12=2,17=6,18=5,29=2,40=1/2;
 3/5=1,6=6,7=1,11=2,16=1,25=1,30=1,71=2,74=-5,140=1/1,2,3;
 4//1;
 5/5=2,38=5/2;
 8/6=4,10=90,11=11/1;
 11/6=1,8=1,9=11,15=111,16=1/1,2,10;
 10/6=1,13=1/2;
 6/7=2,8=2,9=2,10=2,28=1/1;
 7/7=1,10=1,18=20,25=1/1,2,3,16;
 1/5=1,6=1000,10=4,11=1,14=-1,18=10,26=3/3(2);
 2/29=1/2;
 99/12=1/99;
 2/29=1/2;
 3/5=1,6=6,7=1,11=2,16=1,25=1,30=1,71=1,74=-5/1,2,3;
 4/5=5,16=3,69=1/1;
 5/5=2,38=5/2;
 7/7=1/1,2,3,16;
 1/5=1,6=1000,11=1,14=-1,18=10,26=3/3(-5);
 2/29=1/2;
 6/7=2,8=2,9=2,10=2,19=2,28=1/1;
 99/9=1,12=1/99;
 ------------------------
 Glo_A_ch2_GS_b3lyp_631Gd
 ------------------------
 Symbolic Z-matrix:
 Charge =  0 Multiplicity = 1
 C                    -1.7202    0.46672  -0.50309 
 O                    -1.06169   0.82441   0.90172 
 C                    -1.59873  -1.04265  -0.71013 
 C                    -0.12349  -1.46713  -0.61846 
 C                     0.46858  -1.13462   0.77163 
 C                     0.31525   0.3397    1.1812 
 H                    -1.96431  -1.24839  -1.72601 
 H                     1.54267  -1.3351    0.75051 
 H                     0.38015   0.36102   2.27209 
 H                    -0.05511  -2.55148  -0.74745 
 O                    -2.33865  -1.78906   0.25451 
 O                     0.59225  -0.85607  -1.69659 
 O                    -0.0638   -2.00995   1.75485 
 H                     0.16621   0.02228  -1.85612 
 H                    -3.24986  -1.45597   0.27592 
 H                    -1.03182  -2.00222   1.64506 
 C                     1.3891    1.3071    0.62716 
 O                     2.66651   0.9009    1.05692 
 H                     1.19324   2.3076    1.02938 
 H                     1.32541   1.38055  -0.464 
 H                     3.04592   0.34007   0.34193 
 O                    -1.16243   1.19215  -1.4658 
 H                    -0.85609   2.15956  -2.10632 
 H                    -2.75693   0.74877  -0.23231 
 H                    -1.07086   2.00764   0.73223 
 O                    -1.55821   3.09284  -2.38205 
 H                    -2.41441   2.76997  -2.70827 
 O                    -1.09546   2.88559  -0.08544 
 H                    -0.27438   3.22888   0.27453 
 H                    -1.45219   3.44222  -1.23894 
 

 GradGradGradGradGradGradGradGradGradGradGradGradGradGradGradGradGradGrad
 Berny optimization.
 Initialization pass.
 No Z-matrix variables, so optimization will use Cartesian coordinates.
 Trust Radius=3.00D-01 FncErr=1.00D-07 GrdErr=1.00D-06
 Number of steps in this run=    180 maximum allowed number of steps=    180.
 Search for a saddle point of order  1.
 GradGradGradGradGradGradGradGradGradGradGradGradGradGradGradGradGradGrad

 ---------------------------------------------------------------------------------------------------
                            Z-MATRIX (ANGSTROMS AND DEGREES)
   CD    Cent   Atom    N1       Length/X        N2       Alpha/Y        N3        Beta/Z          J
 ---------------------------------------------------------------------------------------------------
      1      1  C        0  -1.720195          0.466715         -0.503090
      2      2  O        0  -1.061688          0.824414          0.901724
      3      3  C        0  -1.598733         -1.042649         -0.710127
      4      4  C        0  -0.123494         -1.467131         -0.618462
      5      5  C        0   0.468584         -1.134625          0.771629
      6      6  C        0   0.315252          0.339699          1.181204
      7      7  H        0  -1.964311         -1.248387         -1.726006
      8      8  H        0   1.542669         -1.335104          0.750509
      9      9  H        0   0.380154          0.361022          2.272088
     10     10  H        0  -0.055109         -2.551478         -0.747448
     11     11  O        0  -2.338654         -1.789056          0.254508
     12     12  O        0   0.592245         -0.856074         -1.696593
     13     13  O        0  -0.063801         -2.009948          1.754848
     14     14  H        0   0.166210          0.022284         -1.856119
     15     15  H        0  -3.249857         -1.455966          0.275923
     16     16  H        0  -1.031822         -2.002222          1.645059
     17     17  C        0   1.389101          1.307097          0.627157
     18     18  O        0   2.666508          0.900895          1.056923
     19     19  H        0   1.193244          2.307603          1.029381
     20     20  H        0   1.325411          1.380554         -0.464000
     21     21  H        0   3.045921          0.340070          0.341931
     22     22  O        0  -1.162427          1.192150         -1.465800
     23     23  H        0  -0.856088          2.159565         -2.106320
     24     24  H        0  -2.756930          0.748773         -0.232306
     25     25  H        0  -1.070864          2.007637          0.732234
     26     26  O        0  -1.558205          3.092841         -2.382052
     27     27  H        0  -2.414411          2.769970         -2.708273
     28     28  O        0  -1.095462          2.885588         -0.085444
     29     29  H        0  -0.274382          3.228875          0.274530
     30     30  H        0  -1.452192          3.442219         -1.238944
 ---------------------------------------------------------------------------------------------------
                         Z-Matrix orientation:                         
 ---------------------------------------------------------------------
 Center     Atomic      Atomic             Coordinates (Angstroms)
 Number     Number       Type             X           Y           Z
 ---------------------------------------------------------------------
      1          6           0       -1.720195    0.466715   -0.503090
      2          8           0       -1.061688    0.824414    0.901724
      3          6           0       -1.598733   -1.042649   -0.710127
      4          6           0       -0.123494   -1.467131   -0.618462
      5          6           0        0.468584   -1.134625    0.771629
      6          6           0        0.315252    0.339699    1.181204
      7          1           0       -1.964311   -1.248387   -1.726006
      8          1           0        1.542669   -1.335104    0.750509
      9          1           0        0.380154    0.361022    2.272088
     10          1           0       -0.055109   -2.551478   -0.747448
     11          8           0       -2.338654   -1.789056    0.254508
     12          8           0        0.592245   -0.856074   -1.696593
     13          8           0       -0.063801   -2.009948    1.754848
     14          1           0        0.166210    0.022284   -1.856119
     15          1           0       -3.249857   -1.455966    0.275923
     16          1           0       -1.031822   -2.002222    1.645059
     17          6           0        1.389101    1.307097    0.627157
     18          8           0        2.666508    0.900895    1.056923
     19          1           0        1.193244    2.307603    1.029381
     20          1           0        1.325411    1.380554   -0.464000
     21          1           0        3.045921    0.340070    0.341931
     22          8           0       -1.162427    1.192150   -1.465800
     23          1           0       -0.856088    2.159565   -2.106320
     24          1           0       -2.756930    0.748773   -0.232306
     25          1           0       -1.070864    2.007637    0.732234
     26          8           0       -1.558205    3.092841   -2.382052
     27          1           0       -2.414411    2.769970   -2.708273
     28          8           0       -1.095462    2.885588   -0.085444
     29          1           0       -0.274382    3.228875    0.274530
     30          1           0       -1.452192    3.442219   -1.238944
 ---------------------------------------------------------------------
                    Distance matrix (angstroms):
                    1          2          3          4          5
     1  C    0.000000
     2  O    1.592194   0.000000
     3  C    1.528331   2.524362   0.000000
     4  C    2.510483   2.905573   1.537829   0.000000
     5  C    2.996657   2.489275   2.545164   1.547084   0.000000
     6  C    2.645000   1.486278   3.025121   2.587650   1.537821
     7  H    2.120540   3.466439   1.099084   2.159424   3.488567
     8  H    3.932473   3.386600   3.476693   2.160466   1.092839
     9  H    3.481989   2.042434   3.844463   3.457034   2.120414
    10  H    3.455678   3.889681   2.158873   1.094131   2.142270
    11  O    2.458648   2.979892   1.426579   2.402633   2.928529
    12  O    2.919178   3.508673   2.410044   1.431097   2.486967
    13  O    3.738420   3.123653   3.060684   2.435326   1.419980
    14  H    2.363626   3.123595   2.358475   1.958081   2.887028
    15  H    2.577485   3.221776   1.967063   3.251799   3.765075
    16  H    3.344256   2.922894   2.605584   2.496980   1.940830
    17  C    3.413418   2.512914   4.029490   3.396447   2.613471
    18  O    4.676036   3.732209   5.009203   4.024745   3.009253
    19  H    3.771666   2.702011   4.695233   4.324096   3.527110
    20  H    3.179991   2.805840   3.805668   3.198827   2.930368
    21  H    4.842103   4.173776   4.958987   3.772734   3.000339
    22  O    1.328221   2.398030   2.399110   2.978110   3.616651
    23  H    2.486517   3.297457   3.571421   3.987899   4.570452
    24  H    1.108016   2.040978   2.186075   3.463283   3.867688
    25  H    2.078965   1.195336   3.415157   3.846544   3.499323
    26  O    3.233152   4.021874   4.460857   5.095291   5.650225
    27  H    3.263396   4.318232   4.381094   5.250584   5.972206
    28  O    2.532916   2.285624   4.009308   4.491658   4.398059
    29  H    3.213191   2.606656   4.579233   4.782538   4.454126
    30  H    3.076838   3.404094   4.518314   5.123686   5.355305
                    6          7          8          9         10
     6  C    0.000000
     7  H    4.021230   0.000000
     8  H    2.120617   4.294130   0.000000
     9  H    1.093021   4.906268   2.558024   0.000000
    10  H    3.495107   2.510114   2.505262   4.217785   0.000000
    11  O    3.526128   2.086838   3.939132   4.010658   2.607639
    12  O    3.128628   2.586649   2.668536   4.156529   2.048008
    13  O    2.448181   4.038348   2.011183   2.467009   2.560237
    14  H    3.057498   2.484080   3.245251   4.147603   2.811118
    15  H    4.093159   2.388187   4.817483   4.523616   3.529001
    16  H    2.741234   3.577972   2.805935   2.823431   2.641920
    17  C    1.547895   4.828379   2.649533   2.149146   4.343257
    18  O    2.420494   5.814516   2.521229   2.644901   4.752035
    19  H    2.160224   5.496124   3.670038   2.448390   5.322234
    20  H    2.193284   4.396164   2.982789   3.069061   4.176967
    21  H    2.856735   5.648184   2.287556   3.291240   4.377692
    22  O    3.149101   2.582043   4.314694   4.128212   3.969500
    23  H    3.935958   3.603738   5.111577   4.892188   4.968101
    24  H    3.406414   2.616875   4.878014   4.032820   4.296145
    25  H    2.214703   4.176468   4.243207   2.681034   4.899668
    26  O    4.877133   4.409260   6.247804   5.734203   6.065440
    27  H    5.337163   4.161085   6.668830   6.198114   6.142390
    28  O    3.174281   4.531676   5.047058   3.756173   5.575147
    29  H    3.084974   5.186895   4.935396   3.555733   5.874096
    30  H    4.313538   4.743552   5.979125   5.017830   6.173963
                   11         12         13         14         15
    11  O    0.000000
    12  O    3.642447   0.000000
    13  O    2.734002   3.697873   0.000000
    14  H    3.742999   0.989175   4.149934   0.000000
    15  H    0.970411   4.360325   3.555990   4.289562   0.000000
    16  H    1.920125   3.888173   0.974258   4.218075   2.663195
    17  C    4.860163   3.273240   3.792809   3.051699   5.410898
    18  O    5.738585   3.869284   4.051505   3.938180   6.416240
    19  H    5.464188   4.219121   4.554966   3.821465   5.871397
    20  H    4.897760   2.656939   4.283538   2.264208   5.433821
    21  H    5.790895   3.406885   4.145997   3.636640   6.547284
    22  O    3.637384   2.706910   4.672578   1.812791   3.795192
    23  H    4.833540   3.370404   5.737697   2.382365   4.947451
    24  H    2.617732   3.992073   4.337311   3.421886   2.315631
    25  H    4.031177   4.106820   4.266252   3.488775   4.117375
    26  O    5.602987   4.548430   6.736886   3.560693   5.533368
    27  H    5.437695   4.817849   6.949276   3.864654   5.240413
    28  O    4.849060   4.409557   5.330785   3.595221   4.860153
    29  H    5.425979   4.617703   5.448023   3.875050   5.549882
    30  H    5.512028   4.781683   6.373111   3.833548   5.433106
                   16         17         18         19         20
    16  H    0.000000
    17  C    4.224759   0.000000
    18  O    4.738316   1.407646   0.000000
    19  H    4.889230   1.095973   2.037178   0.000000
    20  H    4.631182   1.095480   2.083704   1.762690   0.000000
    21  H    4.879801   1.939471   0.984730   2.788581   2.166169
    22  O    4.460775   3.302117   4.594530   3.608234   2.688575
    23  H    5.605729   3.638608   4.898881   3.748906   2.839544
    24  H    3.750796   4.270828   5.576642   4.430088   4.137431
    25  H    4.112632   2.559927   3.911298   2.303142   2.750699
    26  O    6.515701   4.575023   5.871914   4.452521   3.863430
    27  H    6.605821   5.266099   6.594382   5.215267   4.577500
    28  O    5.185497   3.028612   4.404138   2.610570   2.875597
    29  H    5.460443   2.566077   3.831510   1.890098   2.553636
    30  H    6.175445   4.014228   5.356587   3.664831   3.544867
                   21         22         23         24         25
    21  H    0.000000
    22  O    4.658769   0.000000
    23  H    4.952794   1.200000   0.000000
    24  H    5.845500   2.064105   3.019182   0.000000
    25  H    4.458815   2.346222   2.850719   2.314713   0.000000
    26  O    6.016295   2.146808   1.200000   3.398971   3.333758
    27  H    6.709947   2.366584   1.778570   3.214493   3.771387
    28  O    4.879894   2.185772   2.160636   2.710723   1.200000
    29  H    4.401608   2.822343   2.673995   3.545537   1.528168
    30  H    5.688191   2.279965   1.659181   3.157580   2.467586
                   26         27         28         29         30
    26  O    0.000000
    27  H    0.971470   0.000000
    28  O    2.351912   2.938064   0.000000
    29  H    2.953664   3.699652   0.960000   0.000000
    30  H    1.200000   1.880615   1.329532   1.929600   0.000000
 Stoichiometry    C6H16O8
 Framework group  C1[X(C6H16O8)]
 Deg. of freedom    84
 Full point group                 C1      NOp   1
 Largest Abelian subgroup         C1      NOp   1
 Largest concise Abelian subgroup C1      NOp   1
                         Standard orientation:                         
 ---------------------------------------------------------------------
 Center     Atomic      Atomic             Coordinates (Angstroms)
 Number     Number       Type             X           Y           Z
 ---------------------------------------------------------------------
      1          6           0        0.718852   -1.121084   -0.364842
      2          8           0        0.165560    0.041784   -1.301159
      3          6           0       -0.478496   -1.809409    0.289652
      4          6           0       -1.321424   -0.777104    1.056944
      5          6           0       -1.868731    0.314701    0.107268
      6          6           0       -0.784832    1.025719   -0.720084
      7          1           0       -0.067843   -2.534677    1.006127
      8          1           0       -2.351307    1.089740    0.707877
      9          1           0       -1.292689    1.441512   -1.594094
     10          1           0       -2.185056   -1.280643    1.501591
     11          8           0       -1.323066   -2.458558   -0.659259
     12          8           0       -0.529568   -0.249019    2.125649
     13          8           0       -2.892132   -0.220425   -0.718949
     14          1           0        0.404760   -0.229298    1.801443
     15          1           0       -0.779583   -3.037103   -1.217481
     16          1           0       -2.541451   -1.043145   -1.105384
     17          6           0       -0.047898    2.185923   -0.008163
     18          8           0       -0.972469    3.174594    0.378059
     19          1           0        0.657836    2.633595   -0.717166
     20          1           0        0.538623    1.816286    0.840033
     21          1           0       -1.222726    2.985735    1.311545
     22          8           0        1.600266   -0.630154    0.499026
     23          1           0        2.609891   -0.124986    0.905798
     24          1           0        1.142234   -1.745961   -1.175999
     25          1           0        1.231996    0.544439   -1.498338
     26          8           0        3.727492   -0.342177    0.526595
     27          1           0        3.869445   -1.301335    0.466436
     28          8           0        2.349586    0.679240   -1.082620
     29          1           0        2.219621    1.630356   -1.073271
     30          1           0        3.456068    0.280716   -0.462512
 ---------------------------------------------------------------------
 Rotational constants (GHZ):      0.7837434      0.5851996      0.4460966
 Standard basis: 6-31G(d) (6D, 7F)
 There are   242 symmetry adapted cartesian basis functions of A   symmetry.
 There are   242 symmetry adapted basis functions of A   symmetry.
   242 basis functions,   456 primitive gaussians,   242 cartesian basis functions
    58 alpha electrons       58 beta electrons
       nuclear repulsion energy      1157.3902967981 Hartrees.
 NAtoms=   30 NActive=   30 NUniq=   30 SFac= 1.00D+00 NAtFMM=   60 NAOKFM=F Big=F
 Integral buffers will be    131072 words long.
 Raffenetti 2 integral format.
 Two-electron integral symmetry is turned on.
 One-electron integrals computed using PRISM.
 NBasis=   242 RedAO= T EigKep=  1.76D-03  NBF=   242
 NBsUse=   242 1.00D-06 EigRej= -1.00D+00 NBFU=   242
 ExpMin= 1.61D-01 ExpMax= 5.48D+03 ExpMxC= 8.25D+02 IAcc=1 IRadAn=         1 AccDes= 0.00D+00
 Harris functional with IExCor=  402 and IRadAn=       1 diagonalized for initial guess.
 HarFok:  IExCor=  402 AccDes= 0.00D+00 IRadAn=         1 IDoV= 1 UseB2=F ITyADJ=14
 ICtDFT=  3500011 ScaDFX=  1.000000  1.000000  1.000000  1.000000
 FoFCou: FMM=F IPFlag=           0 FMFlag=      100000 FMFlg1=           0
         NFxFlg=           0 DoJE=T BraDBF=F KetDBF=T FulRan=T
         wScrn=  0.000000 ICntrl=     500 IOpCl=  0 I1Cent=   200000004 NGrid=           0
         NMat0=    1 NMatS0=      1 NMatT0=    0 NMatD0=    1 NMtDS0=    0 NMtDT0=    0
 Petite list used in FoFCou.
 Requested convergence on RMS density matrix=1.00D-08 within 128 cycles.
 Requested convergence on MAX density matrix=1.00D-06.
 Requested convergence on             energy=1.00D-06.
 No special actions if energy rises.
 Integral accuracy reduced to 1.0D-05 until final iterations.
 Initial convergence to 1.0D-05 achieved.  Increase integral accuracy.
 SCF Done:  E(RB3LYP) =  -839.844870766     A.U. after   14 cycles
            NFock= 14  Conv=0.77D-08     -V/T= 2.0083
 DoSCS=F DFT=T ScalE2(SS,OS)=  1.000000  1.000000
 Range of M.O.s used for correlation:     1   242
 NBasis=   242 NAE=    58 NBE=    58 NFC=     0 NFV=     0
 NROrb=    242 NOA=    58 NOB=    58 NVA=   184 NVB=   184
 Symmetrizing basis deriv contribution to polar:
 IMax=3 JMax=2 DiffMx= 0.00D+00
 G2DrvN: will do    31 centers at a time, making    1 passes.
 Calling FoFCou, ICntrl=  3107 FMM=F I1Cent=   0 AccDes= 0.00D+00.
 End of G2Drv F.D. properties file   721 does not exist.
 End of G2Drv F.D. properties file   722 does not exist.
 End of G2Drv F.D. properties file   788 does not exist.
          IDoAtm=111111111111111111111111111111
          Differentiating once with respect to nuclear coordinates.
          There are    93 degrees of freedom in the 1st order CPHF.  IDoFFX=6 NUNeed=     0.
     87 vectors produced by pass  0 Test12= 1.15D-14 1.08D-09 XBig12= 1.37D-01 7.29D-02.
 AX will form    87 AO Fock derivatives at one time.
     87 vectors produced by pass  1 Test12= 1.15D-14 1.08D-09 XBig12= 2.43D-02 2.77D-02.
     87 vectors produced by pass  2 Test12= 1.15D-14 1.08D-09 XBig12= 1.51D-04 1.27D-03.
     87 vectors produced by pass  3 Test12= 1.15D-14 1.08D-09 XBig12= 3.82D-07 7.53D-05.
     87 vectors produced by pass  4 Test12= 1.15D-14 1.08D-09 XBig12= 4.65D-10 1.87D-06.
     72 vectors produced by pass  5 Test12= 1.15D-14 1.08D-09 XBig12= 3.68D-13 5.36D-08.
      4 vectors produced by pass  6 Test12= 1.15D-14 1.08D-09 XBig12= 2.96D-16 1.27D-09.
 InvSVY:  IOpt=1 It=  1 EMax= 5.00D-16
 Solved reduced A of dimension   511 with    93 vectors.
 End of Minotr F.D. properties file   721 does not exist.
 End of Minotr F.D. properties file   722 does not exist.
 End of Minotr F.D. properties file   788 does not exist.

 **********************************************************************

            Population analysis using the SCF density.

 **********************************************************************

 Orbital symmetries:
       Occupied  (A) (A) (A) (A) (A) (A) (A) (A) (A) (A) (A) (A)
                 (A) (A) (A) (A) (A) (A) (A) (A) (A) (A) (A) (A)
                 (A) (A) (A) (A) (A) (A) (A) (A) (A) (A) (A) (A)
                 (A) (A) (A) (A) (A) (A) (A) (A) (A) (A) (A) (A)
                 (A) (A) (A) (A) (A) (A) (A) (A) (A) (A)
       Virtual   (A) (A) (A) (A) (A) (A) (A) (A) (A) (A) (A) (A)
                 (A) (A) (A) (A) (A) (A) (A) (A) (A) (A) (A) (A)
                 (A) (A) (A) (A) (A) (A) (A) (A) (A) (A) (A) (A)
                 (A) (A) (A) (A) (A) (A) (A) (A) (A) (A) (A) (A)
                 (A) (A) (A) (A) (A) (A) (A) (A) (A) (A) (A) (A)
                 (A) (A) (A) (A) (A) (A) (A) (A) (A) (A) (A) (A)
                 (A) (A) (A) (A) (A) (A) (A) (A) (A) (A) (A) (A)
                 (A) (A) (A) (A) (A) (A) (A) (A) (A) (A) (A) (A)
                 (A) (A) (A) (A) (A) (A) (A) (A) (A) (A) (A) (A)
                 (A) (A) (A) (A) (A) (A) (A) (A) (A) (A) (A) (A)
                 (A) (A) (A) (A) (A) (A) (A) (A) (A) (A) (A) (A)
                 (A) (A) (A) (A) (A) (A) (A) (A) (A) (A) (A) (A)
                 (A) (A) (A) (A) (A) (A) (A) (A) (A) (A) (A) (A)
                 (A) (A) (A) (A) (A) (A) (A) (A) (A) (A) (A) (A)
                 (A) (A) (A) (A) (A) (A) (A) (A) (A) (A) (A) (A)
                 (A) (A) (A) (A)
 The electronic state is 1-A.
 Alpha  occ. eigenvalues --  -19.19288 -19.17847 -19.16184 -19.15911 -19.13166
 Alpha  occ. eigenvalues --  -19.12927 -19.12522 -19.10689 -10.30583 -10.25232
 Alpha  occ. eigenvalues --  -10.24964 -10.24757 -10.23878 -10.23571  -1.07598
 Alpha  occ. eigenvalues --   -1.04892  -1.03473  -1.02466  -1.01061  -1.00289
 Alpha  occ. eigenvalues --   -0.97640  -0.96728  -0.77541  -0.76684  -0.69621
 Alpha  occ. eigenvalues --   -0.65748  -0.63960  -0.58388  -0.57164  -0.55497
 Alpha  occ. eigenvalues --   -0.54108  -0.52874  -0.52542  -0.50614  -0.47946
 Alpha  occ. eigenvalues --   -0.46958  -0.46651  -0.45043  -0.44800  -0.43651
 Alpha  occ. eigenvalues --   -0.42932  -0.41183  -0.39854  -0.38457  -0.37562
 Alpha  occ. eigenvalues --   -0.35706  -0.35317  -0.34364  -0.33559  -0.32543
 Alpha  occ. eigenvalues --   -0.30633  -0.30285  -0.29835  -0.28733  -0.26595
 Alpha  occ. eigenvalues --   -0.25742  -0.24656  -0.22759
 Alpha virt. eigenvalues --    0.04079   0.04516   0.05268   0.06578   0.07867
 Alpha virt. eigenvalues --    0.10393   0.11492   0.11957   0.13190   0.13560
 Alpha virt. eigenvalues --    0.16150   0.16678   0.17223   0.17763   0.18600
 Alpha virt. eigenvalues --    0.20132   0.20528   0.22150   0.23151   0.23942
 Alpha virt. eigenvalues --    0.24674   0.25886   0.26947   0.28305   0.29329
 Alpha virt. eigenvalues --    0.30070   0.32285   0.33686   0.51095   0.52013
 Alpha virt. eigenvalues --    0.54457   0.55078   0.55839   0.58098   0.58848
 Alpha virt. eigenvalues --    0.59404   0.59820   0.62070   0.63251   0.63784
 Alpha virt. eigenvalues --    0.65484   0.67032   0.69442   0.70394   0.72686
 Alpha virt. eigenvalues --    0.73277   0.76624   0.77424   0.79022   0.79742
 Alpha virt. eigenvalues --    0.81686   0.82046   0.82614   0.84864   0.86000
 Alpha virt. eigenvalues --    0.86793   0.87291   0.88812   0.89780   0.91357
 Alpha virt. eigenvalues --    0.91964   0.93070   0.93775   0.94164   0.96452
 Alpha virt. eigenvalues --    0.98336   0.98436   1.00582   1.01856   1.02961
 Alpha virt. eigenvalues --    1.04137   1.06055   1.06781   1.09058   1.09988
 Alpha virt. eigenvalues --    1.12710   1.12857   1.14397   1.15489   1.17278
 Alpha virt. eigenvalues --    1.19427   1.21486   1.24263   1.24667   1.26286
 Alpha virt. eigenvalues --    1.30140   1.32127   1.34670   1.35200   1.37352
 Alpha virt. eigenvalues --    1.37740   1.40928   1.45178   1.48556   1.50301
 Alpha virt. eigenvalues --    1.51303   1.54486   1.57708   1.59693   1.61145
 Alpha virt. eigenvalues --    1.62675   1.64495   1.64776   1.66905   1.68122
 Alpha virt. eigenvalues --    1.69923   1.71568   1.73013   1.73801   1.74598
 Alpha virt. eigenvalues --    1.75992   1.77659   1.80266   1.81357   1.84027
 Alpha virt. eigenvalues --    1.85680   1.86135   1.86757   1.87692   1.90282
 Alpha virt. eigenvalues --    1.90579   1.94964   1.95088   1.96659   1.98835
 Alpha virt. eigenvalues --    1.99818   2.02876   2.04856   2.06749   2.08015
 Alpha virt. eigenvalues --    2.10284   2.11595   2.11978   2.16130   2.16552
 Alpha virt. eigenvalues --    2.18669   2.19989   2.22185   2.23688   2.27117
 Alpha virt. eigenvalues --    2.30110   2.32001   2.33348   2.36069   2.38664
 Alpha virt. eigenvalues --    2.41948   2.43323   2.45558   2.46135   2.47806
 Alpha virt. eigenvalues --    2.49593   2.51383   2.55640   2.56768   2.59673
 Alpha virt. eigenvalues --    2.59906   2.60787   2.64918   2.68457   2.73140
 Alpha virt. eigenvalues --    2.75161   2.77897   2.82403   2.88071   2.90106
 Alpha virt. eigenvalues --    2.92576   2.95593   2.98189   3.03586   3.12401
 Alpha virt. eigenvalues --    3.70751   3.73599   3.77699   3.86895   3.89987
 Alpha virt. eigenvalues --    3.99253   4.10176   4.15700   4.29169   4.31864
 Alpha virt. eigenvalues --    4.49891   4.58390   4.73128   4.82712
          Condensed to atoms (all electrons):
               1          2          3          4          5          6
     1  C    4.765766   0.102164   0.313626  -0.007073  -0.030208  -0.002102
     2  O    0.102164   8.580422  -0.014264  -0.012814  -0.021010   0.125958
     3  C    0.313626  -0.014264   5.039396   0.320819  -0.019160  -0.027249
     4  C   -0.007073  -0.012814   0.320819   4.888842   0.292526  -0.019782
     5  C   -0.030208  -0.021010  -0.019160   0.292526   4.950146   0.297903
     6  C   -0.002102   0.125958  -0.027249  -0.019782   0.297903   5.112042
     7  H   -0.062757   0.003044   0.370285  -0.044480   0.006356  -0.000100
     8  H    0.000228   0.003312   0.005476  -0.041082   0.368543  -0.067407
     9  H    0.001850  -0.032735   0.000142   0.004979  -0.040547   0.367868
    10  H    0.005891  -0.000080  -0.045986   0.377011  -0.062004   0.006910
    11  O   -0.034106   0.002323   0.171672  -0.040201   0.006455  -0.000570
    12  O    0.003576  -0.000499  -0.028987   0.236974  -0.043831   0.002506
    13  O   -0.000070   0.000773   0.000615  -0.031775   0.246423  -0.044157
    14  H   -0.008260   0.000363  -0.016246  -0.027378  -0.001061   0.002051
    15  H   -0.004084  -0.000080  -0.024576   0.005724  -0.000146  -0.000051
    16  H   -0.000081   0.002374  -0.001366  -0.011022  -0.030053  -0.004129
    17  C   -0.003137  -0.022540   0.000595  -0.002225  -0.024088   0.279001
    18  O   -0.000008   0.001284  -0.000022   0.000087  -0.006297  -0.049350
    19  H   -0.000068   0.001026  -0.000064  -0.000089   0.004257  -0.047999
    20  H    0.002434   0.000575  -0.000575   0.002427  -0.009831  -0.037137
    21  H    0.000008  -0.000049   0.000011  -0.000245   0.002829  -0.002968
    22  O    0.283673  -0.061697  -0.042251   0.000145  -0.000373   0.006658
    23  H   -0.014283   0.000406  -0.000188   0.000121  -0.000009  -0.000067
    24  H    0.359914  -0.049287  -0.077527   0.004812   0.000104   0.003724
    25  H   -0.019251   0.097189   0.002219  -0.000044   0.001868  -0.004616
    26  O    0.007559  -0.000367  -0.000198   0.000000   0.000000   0.000022
    27  H    0.000850   0.000094   0.000055  -0.000002   0.000000  -0.000006
    28  O   -0.002698  -0.115318   0.000452  -0.000190  -0.000099  -0.000049
    29  H    0.000764   0.008078  -0.000077   0.000038   0.000113  -0.001794
    30  H   -0.000960   0.002012   0.000047   0.000005   0.000002   0.000001
               7          8          9         10         11         12
     1  C   -0.062757   0.000228   0.001850   0.005891  -0.034106   0.003576
     2  O    0.003044   0.003312  -0.032735  -0.000080   0.002323  -0.000499
     3  C    0.370285   0.005476   0.000142  -0.045986   0.171672  -0.028987
     4  C   -0.044480  -0.041082   0.004979   0.377011  -0.040201   0.236974
     5  C    0.006356   0.368543  -0.040547  -0.062004   0.006455  -0.043831
     6  C   -0.000100  -0.067407   0.367868   0.006910  -0.000570   0.002506
     7  H    0.609253  -0.000126   0.000023  -0.008291  -0.032310   0.002791
     8  H   -0.000126   0.612338   0.000448  -0.006911  -0.000100   0.001995
     9  H    0.000023   0.000448   0.566502  -0.000191   0.000049  -0.000108
    10  H   -0.008291  -0.006911  -0.000191   0.599172   0.002057  -0.034853
    11  O   -0.032310  -0.000100   0.000049   0.002057   8.301934   0.001288
    12  O    0.002791   0.001995  -0.000108  -0.034853   0.001288   8.357931
    13  O   -0.000286  -0.038271   0.003551   0.007916  -0.017237   0.001491
    14  H    0.001434  -0.000098   0.000023   0.003605   0.000313   0.201643
    15  H   -0.002960   0.000022  -0.000016  -0.000361   0.230460  -0.000106
    16  H    0.000583   0.005973  -0.000146  -0.000713   0.042576   0.000007
    17  C    0.000015  -0.003332  -0.046206  -0.000123   0.000008  -0.001453
    18  O    0.000000   0.015338   0.004795  -0.000004   0.000000  -0.000262
    19  H   -0.000002   0.000408  -0.008314   0.000007   0.000000   0.000220
    20  H   -0.000022   0.001105   0.005336   0.000033  -0.000005   0.009361
    21  H    0.000000   0.002919  -0.000624   0.000010   0.000000   0.001303
    22  O    0.005922  -0.000007  -0.000119  -0.000250   0.001806  -0.029832
    23  H   -0.000060   0.000000   0.000003  -0.000001  -0.000002  -0.000779
    24  H   -0.000969   0.000020  -0.000187  -0.000208   0.001216  -0.000337
    25  H   -0.000136  -0.000076  -0.002201   0.000011  -0.000076  -0.000029
    26  O    0.000002   0.000000   0.000000   0.000000   0.000000  -0.000001
    27  H    0.000010   0.000000   0.000000   0.000000   0.000000   0.000003
    28  O    0.000033   0.000007  -0.000076   0.000000   0.000002  -0.000009
    29  H   -0.000001  -0.000003   0.000118   0.000000   0.000000   0.000008
    30  H   -0.000005   0.000000   0.000003   0.000000   0.000000  -0.000002
              13         14         15         16         17         18
     1  C   -0.000070  -0.008260  -0.004084  -0.000081  -0.003137  -0.000008
     2  O    0.000773   0.000363  -0.000080   0.002374  -0.022540   0.001284
     3  C    0.000615  -0.016246  -0.024576  -0.001366   0.000595  -0.000022
     4  C   -0.031775  -0.027378   0.005724  -0.011022  -0.002225   0.000087
     5  C    0.246423  -0.001061  -0.000146  -0.030053  -0.024088  -0.006297
     6  C   -0.044157   0.002051  -0.000051  -0.004129   0.279001  -0.049350
     7  H   -0.000286   0.001434  -0.002960   0.000583   0.000015   0.000000
     8  H   -0.038271  -0.000098   0.000022   0.005973  -0.003332   0.015338
     9  H    0.003551   0.000023  -0.000016  -0.000146  -0.046206   0.004795
    10  H    0.007916   0.003605  -0.000361  -0.000713  -0.000123  -0.000004
    11  O   -0.017237   0.000313   0.230460   0.042576   0.000008   0.000000
    12  O    0.001491   0.201643  -0.000106   0.000007  -0.001453  -0.000262
    13  O    8.287804  -0.000075   0.000751   0.231832   0.003523   0.000005
    14  H   -0.000075   0.346432   0.000028   0.000015  -0.000699   0.000050
    15  H    0.000751   0.000028   0.383348  -0.001105   0.000001   0.000000
    16  H    0.231832   0.000015  -0.001105   0.344452   0.000048  -0.000005
    17  C    0.003523  -0.000699   0.000001   0.000048   4.991988   0.222508
    18  O    0.000005   0.000050   0.000000  -0.000005   0.222508   8.240380
    19  H   -0.000060  -0.000032   0.000000   0.000002   0.353664  -0.035333
    20  H    0.000002   0.002442   0.000001   0.000000   0.351653  -0.024596
    21  H    0.000005  -0.000028   0.000000   0.000002  -0.024570   0.236036
    22  O    0.000002   0.070575   0.000071   0.000005  -0.002681   0.000019
    23  H    0.000000   0.003916   0.000003   0.000000   0.000207   0.000003
    24  H    0.000020   0.001730   0.009500  -0.000040   0.000028   0.000001
    25  H   -0.000027   0.000006  -0.000021  -0.000009  -0.004450  -0.000194
    26  O    0.000000   0.000016   0.000000   0.000000  -0.000048   0.000000
    27  H    0.000000  -0.000010  -0.000001   0.000000   0.000006   0.000000
    28  O    0.000000   0.000362   0.000003   0.000002   0.010896   0.000091
    29  H   -0.000001  -0.000162   0.000000   0.000000  -0.001412  -0.000147
    30  H    0.000000   0.000024   0.000000   0.000000  -0.000243  -0.000001
              19         20         21         22         23         24
     1  C   -0.000068   0.002434   0.000008   0.283673  -0.014283   0.359914
     2  O    0.001026   0.000575  -0.000049  -0.061697   0.000406  -0.049287
     3  C   -0.000064  -0.000575   0.000011  -0.042251  -0.000188  -0.077527
     4  C   -0.000089   0.002427  -0.000245   0.000145   0.000121   0.004812
     5  C    0.004257  -0.009831   0.002829  -0.000373  -0.000009   0.000104
     6  C   -0.047999  -0.037137  -0.002968   0.006658  -0.000067   0.003724
     7  H   -0.000002  -0.000022   0.000000   0.005922  -0.000060  -0.000969
     8  H    0.000408   0.001105   0.002919  -0.000007   0.000000   0.000020
     9  H   -0.008314   0.005336  -0.000624  -0.000119   0.000003  -0.000187
    10  H    0.000007   0.000033   0.000010  -0.000250  -0.000001  -0.000208
    11  O    0.000000  -0.000005   0.000000   0.001806  -0.000002   0.001216
    12  O    0.000220   0.009361   0.001303  -0.029832  -0.000779  -0.000337
    13  O   -0.000060   0.000002   0.000005   0.000002   0.000000   0.000020
    14  H   -0.000032   0.002442  -0.000028   0.070575   0.003916   0.001730
    15  H    0.000000   0.000001   0.000000   0.000071   0.000003   0.009500
    16  H    0.000002   0.000000   0.000002   0.000005   0.000000  -0.000040
    17  C    0.353664   0.351653  -0.024570  -0.002681   0.000207   0.000028
    18  O   -0.035333  -0.024596   0.236036   0.000019   0.000003   0.000001
    19  H    0.631187  -0.043460   0.006671   0.000126  -0.000068   0.000015
    20  H   -0.043460   0.595266  -0.011450   0.005156   0.001393   0.000073
    21  H    0.006671  -0.011450   0.380674  -0.000002  -0.000001   0.000000
    22  O    0.000126   0.005156  -0.000002   8.600625   0.081455  -0.045870
    23  H   -0.000068   0.001393  -0.000001   0.081455   0.297087   0.002592
    24  H    0.000015   0.000073   0.000000  -0.045870   0.002592   0.680727
    25  H    0.005337  -0.001304   0.000002   0.004830  -0.001139  -0.000190
    26  O    0.000016  -0.000111   0.000000  -0.157551   0.174273   0.001183
    27  H    0.000000   0.000000   0.000000   0.014233  -0.018400  -0.000207
    28  O   -0.002316  -0.000044   0.000001  -0.082795   0.016889   0.001654
    29  H    0.014253   0.000526   0.000007   0.007373  -0.000636  -0.000261
    30  H    0.000010   0.000104   0.000000   0.009706  -0.023175   0.000010
              25         26         27         28         29         30
     1  C   -0.019251   0.007559   0.000850  -0.002698   0.000764  -0.000960
     2  O    0.097189  -0.000367   0.000094  -0.115318   0.008078   0.002012
     3  C    0.002219  -0.000198   0.000055   0.000452  -0.000077   0.000047
     4  C   -0.000044   0.000000  -0.000002  -0.000190   0.000038   0.000005
     5  C    0.001868   0.000000   0.000000  -0.000099   0.000113   0.000002
     6  C   -0.004616   0.000022  -0.000006  -0.000049  -0.001794   0.000001
     7  H   -0.000136   0.000002   0.000010   0.000033  -0.000001  -0.000005
     8  H   -0.000076   0.000000   0.000000   0.000007  -0.000003   0.000000
     9  H   -0.002201   0.000000   0.000000  -0.000076   0.000118   0.000003
    10  H    0.000011   0.000000   0.000000   0.000000   0.000000   0.000000
    11  O   -0.000076   0.000000   0.000000   0.000002   0.000000   0.000000
    12  O   -0.000029  -0.000001   0.000003  -0.000009   0.000008  -0.000002
    13  O   -0.000027   0.000000   0.000000   0.000000  -0.000001   0.000000
    14  H    0.000006   0.000016  -0.000010   0.000362  -0.000162   0.000024
    15  H   -0.000021   0.000000  -0.000001   0.000003   0.000000   0.000000
    16  H   -0.000009   0.000000   0.000000   0.000002   0.000000   0.000000
    17  C   -0.004450  -0.000048   0.000006   0.010896  -0.001412  -0.000243
    18  O   -0.000194   0.000000   0.000000   0.000091  -0.000147  -0.000001
    19  H    0.005337   0.000016   0.000000  -0.002316   0.014253   0.000010
    20  H   -0.001304  -0.000111   0.000000  -0.000044   0.000526   0.000104
    21  H    0.000002   0.000000   0.000000   0.000001   0.000007   0.000000
    22  O    0.004830  -0.157551   0.014233  -0.082795   0.007373   0.009706
    23  H   -0.001139   0.174273  -0.018400   0.016889  -0.000636  -0.023175
    24  H   -0.000190   0.001183  -0.000207   0.001654  -0.000261   0.000010
    25  H    0.340171   0.002558  -0.000267   0.138539  -0.012780  -0.000421
    26  O    0.002558   8.469722   0.241910  -0.090401   0.002504   0.148411
    27  H   -0.000267   0.241910   0.349364   0.005013  -0.000079  -0.005359
    28  O    0.138539  -0.090401   0.005013   8.697399   0.185406   0.100602
    29  H   -0.012780   0.002504  -0.000079   0.185406   0.421121  -0.000017
    30  H   -0.000421   0.148411  -0.005359   0.100602  -0.000017   0.301154
 Mulliken charges:
               1
     1  C    0.340843
     2  O   -0.600658
     3  C    0.073325
     4  C    0.103892
     5  C    0.111193
     6  C    0.104887
     7  H    0.152754
     8  H    0.139279
     9  H    0.175780
    10  H    0.157350
    11  O   -0.637553
    12  O   -0.680008
    13  O   -0.652756
    14  H    0.419020
    15  H    0.403593
    16  H    0.420798
    17  C   -0.076934
    18  O   -0.604377
    19  H    0.120607
    20  H    0.150650
    21  H    0.409457
    22  O   -0.668953
    23  H    0.480459
    24  H    0.107758
    25  H    0.454498
    26  O   -0.799495
    27  H    0.412795
    28  O   -0.863356
    29  H    0.377062
    30  H    0.468092
 Sum of Mulliken charges =   0.00000
 Mulliken charges with hydrogens summed into heavy atoms:
               1
     1  C    0.448600
     2  O   -0.146160
     3  C    0.226079
     4  C    0.261241
     5  C    0.250472
     6  C    0.280666
    11  O   -0.233959
    12  O   -0.260988
    13  O   -0.231958
    17  C    0.194323
    18  O   -0.194920
    22  O   -0.668953
    26  O    0.561851
    28  O   -0.486294
 APT charges:
               1
     1  C   -0.242265
     2  O   -0.340575
     3  C   -0.310421
     4  C   -0.455119
     5  C   -0.336786
     6  C   -0.358306
     7  H    0.489048
     8  H    0.461402
     9  H    0.528061
    10  H    0.584619
    11  O   -0.852149
    12  O   -0.538675
    13  O   -0.590387
    14  H    0.368652
    15  H    0.722077
    16  H    0.468979
    17  C   -0.464777
    18  O   -0.688900
    19  H    0.410534
    20  H    0.228047
    21  H    0.573728
    22  O   -0.261916
    23  H    0.365593
    24  H    0.425864
    25  H    0.365946
    26  O   -1.168893
    27  H    0.739690
    28  O   -0.983069
    29  H    0.446650
    30  H    0.413350
 Sum of APT charges =   0.00000
 APT charges with hydrogens summed into heavy atoms:
               1
     1  C    0.183598
     2  O    0.025371
     3  C    0.178626
     4  C    0.129500
     5  C    0.124616
     6  C    0.169755
    11  O   -0.130072
    12  O   -0.170022
    13  O   -0.121409
    17  C    0.173804
    18  O   -0.115172
    22  O   -0.261916
    26  O    0.349739
    28  O   -0.536419
 Electronic spatial extent (au):  <R**2>=           2783.4406
 Charge=              0.0000 electrons
 Dipole moment (field-independent basis, Debye):
    X=              2.9973    Y=             -2.0544    Z=             -1.0014  Tot=              3.7693
 Quadrupole moment (field-independent basis, Debye-Ang):
   XX=            -92.9793   YY=            -75.4863   ZZ=            -86.1931
   XY=             -2.5978   XZ=             -2.9799   YZ=              5.0871
 Traceless Quadrupole moment (field-independent basis, Debye-Ang):
   XX=             -8.0930   YY=              9.3999   ZZ=             -1.3069
   XY=             -2.5978   XZ=             -2.9799   YZ=              5.0871
 Octapole moment (field-independent basis, Debye-Ang**2):
  XXX=             39.8873  YYY=            -48.4559  ZZZ=            -14.2341  XYY=             28.2741
  XXY=            -12.8036  XXZ=              6.6636  XZZ=              0.2875  YZZ=              4.2726
  YYZ=             -5.2270  XYZ=             -9.3423
 Hexadecapole moment (field-independent basis, Debye-Ang**3):
 XXXX=          -1741.5409 YYYY=          -1176.6693 ZZZZ=           -544.1593 XXXY=            -76.7605
 XXXZ=            -57.6213 YYYX=              9.7311 YYYZ=             61.1377 ZZZX=             27.4401
 ZZZY=             31.5126 XXYY=           -408.4122 XXZZ=           -354.7640 YYZZ=           -218.9182
 XXYZ=              5.4511 YYXZ=            -12.5846 ZZXY=             -4.1663
 N-N= 1.157390296798D+03 E-N=-4.287332985786D+03  KE= 8.329461105868D+02
  Exact polarizability:   0.000   0.000   0.000   0.000   0.000   0.000
 Approx polarizability: 148.162  -5.861 134.152   8.023   4.551 131.591
 Calling FoFJK, ICntrl=    100147 FMM=F ISym2X=0 I1Cent= 0 IOpClX= 0 NMat=1 NMatS=1 NMatT=0.
 ***** Axes restored to original set *****
 -------------------------------------------------------------------
 Center     Atomic                   Forces (Hartrees/Bohr)
 Number     Number              X              Y              Z
 -------------------------------------------------------------------
      1        6           0.012195721    0.019386665   -0.005882745
      2        8           0.007898214   -0.023212309    0.012768052
      3        6           0.002265974   -0.002233035    0.001699899
      4        6           0.002313303    0.005862506   -0.008376514
      5        6          -0.000949045   -0.001578226   -0.001574767
      6        6          -0.010110737    0.001028046   -0.000667876
      7        1           0.000286896   -0.000147908    0.000199036
      8        1           0.000612450   -0.001170770   -0.001049694
      9        1           0.000513802    0.000035726    0.000442988
     10        1           0.000076825   -0.000455592    0.000561803
     11        8          -0.001580568   -0.000568920    0.000998687
     12        8           0.002737252   -0.000537303    0.005762490
     13        8           0.001572925    0.001417493    0.001602956
     14        1          -0.001417857   -0.006115896    0.001903012
     15        1          -0.000077695    0.000187019    0.000423930
     16        1          -0.000429915    0.000246193   -0.000824873
     17        6          -0.010037360   -0.003607292   -0.007225294
     18        8           0.011486077   -0.007463230   -0.009657862
     19        1           0.004416398    0.000269582    0.003512381
     20        1           0.000223419   -0.000621791    0.001506834
     21        1          -0.004898746    0.007608600    0.011600868
     22        8           0.014766092   -0.107098222   -0.008019252
     23        1          -0.057382286    0.014821792    0.005561856
     24        1           0.000768517    0.001899361   -0.001494423
     25        1          -0.019747315   -0.004003888   -0.030239305
     26        8           0.034313928    0.059929603   -0.013360840
     27        1           0.004212066   -0.002992463    0.011273422
     28        8           0.010352710    0.059103357    0.051989255
     29        1           0.007943558    0.025022144   -0.005955360
     30        1          -0.012324602   -0.035011241   -0.017478663
 -------------------------------------------------------------------
 Cartesian Forces:  Max     0.107098222 RMS     0.019087189

 GradGradGradGradGradGradGradGradGradGradGradGradGradGradGradGradGradGrad
 Berny optimization.
 Search for a saddle point.
 Step number   1 out of a maximum of  180
 All quantities printed in internal units (Hartrees-Bohrs-Radians)
 Swapping is turned off.
 Second derivative matrix not updated -- analytic derivatives used.
 ITU=  0
     Eigenvalues ---   -0.16183  -0.03795  -0.01753  -0.00512  -0.00125
     Eigenvalues ---    0.00071   0.00183   0.00320   0.00511   0.00573
     Eigenvalues ---    0.00731   0.00887   0.01092   0.01261   0.01536
     Eigenvalues ---    0.01645   0.01731   0.01808   0.01966   0.02450
     Eigenvalues ---    0.02972   0.03313   0.03747   0.04233   0.04426
     Eigenvalues ---    0.04445   0.04730   0.04956   0.05102   0.05353
     Eigenvalues ---    0.05814   0.05930   0.06131   0.06396   0.06512
     Eigenvalues ---    0.06738   0.07306   0.08141   0.08347   0.09733
     Eigenvalues ---    0.09959   0.10428   0.11880   0.12548   0.13352
     Eigenvalues ---    0.14743   0.15162   0.15397   0.15782   0.16351
     Eigenvalues ---    0.18002   0.18058   0.20282   0.21291   0.22970
     Eigenvalues ---    0.24766   0.25798   0.26321   0.30146   0.32723
     Eigenvalues ---    0.35903   0.41012   0.43427   0.47710   0.53307
     Eigenvalues ---    0.57990   0.59658   0.63288   0.63954   0.65299
     Eigenvalues ---    0.76519   0.80239   0.81908   0.82980   0.83779
     Eigenvalues ---    0.85482   0.91256   0.92649   0.96276   0.98216
     Eigenvalues ---    0.99382   1.02146   1.05923   1.09744
 Eigenvectors required to have negative eigenvalues:
                          Z30       Y25       Y23       Z23       X30
   1                    0.55970  -0.37594   0.33719  -0.29503   0.22725
                          Z28       Y28       Z25       Y2        Z22
   1                   -0.20197   0.17665   0.17396   0.17213   0.15229
 RFO step:  Lambda0=1.655641653D-03 Lambda=-1.03359398D-01.
 Linear search not attempted -- option 19 set.
 Maximum step size (   0.300) exceeded in Quadratic search.
    -- Step size scaled by   0.264
 TrRot=  0.003153  0.000908  0.003058  0.659055 -0.000951 -0.658909
 Variable       Old X    -DE/DX   Delta X   Delta X   Delta X     New X
                                 (Linear)    (Quad)   (Total)
    X1       -3.25070   0.01220   0.00000   0.03048   0.03422  -3.21648
    Y1        0.88196   0.01939   0.00000   0.00896   0.00995   0.89192
    Z1       -0.95070  -0.00588   0.00000   0.00202   0.00318  -0.94752
    X2       -2.00630   0.00790   0.00000  -0.00501  -0.00337  -2.00966
    Y2        1.55792  -0.02321   0.00000  -0.00311  -0.00349   1.55443
    Z2        1.70401   0.01277   0.00000  -0.00175   0.00070   1.70471
    X3       -3.02117   0.00227   0.00000  -0.00387   0.00058  -3.02059
    Y3       -1.97032  -0.00223   0.00000   0.00359   0.00484  -1.96548
    Z3       -1.34195   0.00170   0.00000   0.00340   0.00304  -1.33890
    X4       -0.23337   0.00231   0.00000  -0.00302   0.00142  -0.23195
    Y4       -2.77248   0.00586   0.00000  -0.00420  -0.00264  -2.77512
    Z4       -1.16872  -0.00838   0.00000  -0.00847  -0.00721  -1.17593
    X5        0.88550  -0.00095   0.00000  -0.00492  -0.00254   0.88295
    Y5       -2.14413  -0.00158   0.00000  -0.00286  -0.00267  -2.14680
    Z5        1.45817  -0.00157   0.00000  -0.00651  -0.00404   1.45413
    X6        0.59574  -0.01011   0.00000  -0.00738  -0.00599   0.58975
    Y6        0.64194   0.00103   0.00000  -0.00044  -0.00074   0.64119
    Z6        2.23215  -0.00067   0.00000  -0.00693  -0.00305   2.22910
    X7       -3.71201   0.00029   0.00000  -0.00795  -0.00200  -3.71401
    Y7       -2.35911  -0.00015   0.00000   0.00836   0.01063  -2.34848
    Z7       -3.26168   0.00020   0.00000   0.00359   0.00248  -3.25920
    X8        2.91522   0.00061   0.00000  -0.00402  -0.00156   2.91366
    Y8       -2.52298  -0.00117   0.00000  -0.00210  -0.00159  -2.52458
    Z8        1.41826  -0.00105   0.00000  -0.00693  -0.00316   1.41510
    X9        0.71839   0.00051   0.00000   0.00010  -0.00008   0.71831
    Y9        0.68223   0.00004   0.00000   0.00127  -0.00021   0.68202
    Z9        4.29362   0.00044   0.00000  -0.00668  -0.00268   4.29094
   X10       -0.10414   0.00008   0.00000  -0.01094  -0.00603  -0.11017
   Y10       -4.82159  -0.00046   0.00000  -0.00634  -0.00462  -4.82622
   Z10       -1.41247   0.00056   0.00000   0.00229   0.00245  -1.41002
   X11       -4.41942  -0.00158   0.00000  -0.00628  -0.00300  -4.42242
   Y11       -3.38083  -0.00057   0.00000   0.00830   0.00828  -3.37255
   Z11        0.48095   0.00100   0.00000   0.00562   0.00339   0.48434
   X12        1.11918   0.00274   0.00000   0.00209   0.00790   1.12708
   Y12       -1.61775  -0.00054   0.00000  -0.01874  -0.01579  -1.63354
   Z12       -3.20610   0.00576   0.00000  -0.00215   0.00080  -3.20530
   X13       -0.12057   0.00157   0.00000  -0.00190  -0.00069  -0.12126
   Y13       -3.79825   0.00142   0.00000   0.00282   0.00178  -3.79647
   Z13        3.31618   0.00160   0.00000  -0.00029   0.00046   3.31664
   X14        0.31409  -0.00142   0.00000  -0.00208   0.00371   0.31780
   Y14        0.04211  -0.00612   0.00000  -0.01469  -0.01169   0.03042
   Z14       -3.50756   0.00190   0.00000   0.00562   0.00893  -3.49862
   X15       -6.14134  -0.00008   0.00000  -0.00535  -0.00219  -6.14353
   Y15       -2.75138   0.00019   0.00000   0.00925   0.00896  -2.74242
   Z15        0.52142   0.00042   0.00000   0.00490   0.00174   0.52316
   X16       -1.94986  -0.00043   0.00000  -0.00196  -0.00060  -1.95046
   Y16       -3.78365   0.00025   0.00000  -0.00002  -0.00120  -3.78485
   Z16        3.10871  -0.00082   0.00000  -0.00187  -0.00248   3.10623
   X17        2.62502  -0.01004   0.00000  -0.00753  -0.00562   2.61940
   Y17        2.47006  -0.00361   0.00000  -0.00537  -0.00477   2.46529
   Z17        1.18515  -0.00723   0.00000  -0.01439  -0.00793   1.17723
   X18        5.03897   0.01149   0.00000   0.00017   0.00158   5.04055
   Y18        1.70244  -0.00746   0.00000  -0.00176  -0.00127   1.70117
   Z18        1.99730  -0.00966   0.00000  -0.01935  -0.01151   1.98578
   X19        2.25490   0.00442   0.00000   0.00518   0.00624   2.26115
   Y19        4.36074   0.00027   0.00000  -0.00418  -0.00408   4.35666
   Z19        1.94525   0.00351   0.00000  -0.00362   0.00368   1.94892
   X20        2.50466   0.00022   0.00000  -0.00846  -0.00502   2.49964
   Y20        2.60887  -0.00062   0.00000  -0.00741  -0.00562   2.60325
   Z20       -0.87683   0.00151   0.00000  -0.01180  -0.00535  -0.88218
   X21        5.75596  -0.00490   0.00000  -0.00426  -0.00168   5.75427
   Y21        0.64264   0.00761   0.00000  -0.00337  -0.00199   0.64065
   Z21        0.64616   0.01160   0.00000  -0.00971  -0.00195   0.64420
   X22       -2.19667   0.01477   0.00000   0.14955   0.15446  -2.04221
   Y22        2.25284  -0.10710   0.00000  -0.07027  -0.06805   2.18479
   Z22       -2.76996  -0.00802   0.00000   0.01249   0.01529  -2.75468
   X23       -1.61777  -0.05738   0.00000  -0.10066  -0.09511  -1.71288
   Y23        4.08099   0.01482   0.00000   0.02539   0.02837   4.10936
   Z23       -3.98037   0.00556   0.00000  -0.01225  -0.00809  -3.98846
   X24       -5.20984   0.00077   0.00000   0.02368   0.02698  -5.18286
   Y24        1.41498   0.00190   0.00000   0.03319   0.03362   1.44860
   Z24       -0.43899  -0.00149   0.00000  -0.03257  -0.03257  -0.47157
   X25       -2.02364  -0.01975   0.00000  -0.05751  -0.05594  -2.07958
   Y25        3.79388  -0.00400   0.00000   0.01508   0.01489   3.80877
   Z25        1.38372  -0.03024   0.00000  -0.02341  -0.01970   1.36403
   X26       -2.94458   0.03431   0.00000   0.00889   0.01458  -2.93000
   Y26        5.84462   0.05993   0.00000   0.00609   0.00920   5.85382
   Z26       -4.50143  -0.01336   0.00000   0.00125   0.00551  -4.49592
   X27       -4.56258   0.00421   0.00000   0.00798   0.01422  -4.54836
   Y27        5.23449  -0.00299   0.00000  -0.00441  -0.00119   5.23330
   Z27       -5.11789   0.01127   0.00000   0.00676   0.00944  -5.10845
   X28       -2.07012   0.01035   0.00000  -0.09702  -0.09461  -2.16474
   Y28        5.45297   0.05910   0.00000   0.09273   0.09337   5.54634
   Z28       -0.16147   0.05199   0.00000   0.07661   0.08127  -0.08019
   X29       -0.51851   0.00794   0.00000   0.02955   0.03149  -0.48701
   Y29        6.10169   0.02502   0.00000  -0.03153  -0.03094   6.07075
   Z29        0.51879  -0.00596   0.00000  -0.09186  -0.08564   0.43315
   X30       -2.74425  -0.01232   0.00000  -0.01529  -0.01135  -2.75560
   Y30        6.50485  -0.03501   0.00000  -0.06315  -0.06131   6.44354
   Z30       -2.34126  -0.01748   0.00000   0.04828   0.05301  -2.28825
         Item               Value     Threshold  Converged?
 Maximum Force            0.107098     0.000450     NO 
 RMS     Force            0.019087     0.000300     NO 
 Maximum Displacement     0.154461     0.001800     NO 
 RMS     Displacement     0.031448     0.001200     NO 
 Predicted change in Energy=-2.849089D-02
 GradGradGradGradGradGradGradGradGradGradGradGradGradGradGradGradGradGrad

                          Input orientation:                          
 ---------------------------------------------------------------------
 Center     Atomic      Atomic             Coordinates (Angstroms)
 Number     Number       Type             X           Y           Z
 ---------------------------------------------------------------------
      1          6           0       -1.702088    0.471982   -0.501408
      2          8           0       -1.063469    0.822568    0.902094
      3          6           0       -1.598427   -1.040086   -0.708518
      4          6           0       -0.122740   -1.468530   -0.622275
      5          6           0        0.467238   -1.136036    0.769491
      6          6           0        0.312082    0.339305    1.179588
      7          1           0       -1.965369   -1.242763   -1.724692
      8          1           0        1.541842   -1.335948    0.748838
      9          1           0        0.380114    0.360910    2.270668
     10          1           0       -0.058298   -2.553925   -0.746149
     11          8           0       -2.340243   -1.784675    0.256300
     12          8           0        0.596424   -0.864432   -1.696172
     13          8           0       -0.064167   -2.009005    1.755092
     14          1           0        0.168171    0.016096   -1.851391
     15          1           0       -3.251017   -1.451227    0.276842
     16          1           0       -1.032137   -2.002857    1.643746
     17          6           0        1.386129    1.304574    0.622961
     18          8           0        2.667345    0.900223    1.050830
     19          1           0        1.196547    2.305444    1.031327
     20          1           0        1.322753    1.377580   -0.466830
     21          1           0        3.045030    0.339015    0.340897
     22          8           0       -1.080690    1.156140   -1.457711
     23          1           0       -0.906417    2.174579   -2.110601
     24          1           0       -2.742651    0.766564   -0.249542
     25          1           0       -1.100466    2.015515    0.721811
     26          8           0       -1.550492    3.097706   -2.379137
     27          1           0       -2.406887    2.769341   -2.703277
     28          8           0       -1.145530    2.934998   -0.042437
     29          1           0       -0.257717    3.212500    0.229211
     30          1           0       -1.458198    3.409775   -1.210890
 ---------------------------------------------------------------------
                    Distance matrix (angstroms):
                    1          2          3          4          5
     1  C    0.000000
     2  O    1.581318   0.000000
     3  C    1.529702   2.519868   0.000000
     4  C    2.504901   2.908230   1.539043   0.000000
     5  C    2.984440   2.489333   2.541789   1.547786   0.000000
     6  C    2.626829   1.484145   3.019555   2.589218   1.539118
     7  H    2.122755   3.461073   1.099243   2.159068   3.485673
     8  H    3.918520   3.386787   3.474580   2.160639   1.093235
     9  H    3.468762   2.042071   3.840959   3.459600   2.121785
    10  H    3.452253   3.889445   2.159889   1.094340   2.140972
    11  O    2.464521   2.974042   1.426736   2.406068   2.926782
    12  O    2.914896   3.514570   2.413232   1.426669   2.483939
    13  O    3.732274   3.121541   3.059760   2.438733   1.419815
    14  H    2.351202   3.122341   2.354262   1.949222   2.878519
    15  H    2.589128   3.216590   1.967491   3.254969   3.763970
    16  H    3.342955   2.921311   2.603989   2.499473   1.940059
    17  C    3.390354   2.512125   4.022169   3.393730   2.611974
    18  O    4.656692   3.734585   5.005689   4.024282   3.010975
    19  H    3.756720   2.706158   4.693774   4.326407   3.527639
    20  H    3.157683   2.806429   3.799581   3.195927   2.928935
    21  H    4.823099   4.174749   4.956297   3.772225   3.000746
    22  O    1.329933   2.383327   2.377552   2.916249   3.551138
    23  H    2.474152   3.305893   3.574743   4.012667   4.598046
    24  H    1.110400   2.036923   2.187211   3.463886   3.868036
    25  H    2.059299   1.207060   3.410353   3.860192   3.520262
    26  O    3.231606   4.022428   4.462578   5.096622   5.648865
    27  H    3.259269   4.312007   4.375433   5.244754   5.964284
    28  O    2.566488   2.315433   4.055869   4.557781   4.453489
    29  H    3.182838   2.610322   4.556461   4.759757   4.441535
    30  H    3.032075   3.363652   4.480325   5.091932   5.319174
                    6          7          8          9         10
     6  C    0.000000
     7  H    4.015541   0.000000
     8  H    2.122340   4.292733   0.000000
     9  H    1.093413   4.902649   2.558301   0.000000
    10  H    3.495200   2.512690   2.505774   4.217778   0.000000
    11  O    3.521163   2.087709   3.938849   4.007688   2.608433
    12  O    3.130468   2.589735   2.663497   4.157412   2.045871
    13  O    2.446902   4.038637   2.011173   2.465705   2.559918
    14  H    3.051558   2.480478   3.236694   4.141882   2.806752
    15  H    4.088598   2.387988   4.817423   4.521537   3.529292
    16  H    2.740090   3.577016   2.805530   2.823983   2.638871
    17  C    1.547628   4.820056   2.648103   2.148838   4.341526
    18  O    2.424556   5.810159   2.521590   2.647695   4.752831
    19  H    2.161009   5.493917   3.668619   2.446169   5.324239
    20  H    2.193208   4.388639   2.981456   3.068564   4.176368
    21  H    2.858742   5.645598   2.287245   3.290330   4.379659
    22  O    3.092310   2.570733   4.237574   4.082543   3.913590
    23  H    3.959585   3.598406   5.147247   4.913255   4.993974
    24  H    3.399465   2.611059   4.875879   4.033321   4.298606
    25  H    2.239315   4.165311   4.267883   2.707174   4.911294
    26  O    4.872626   4.409092   6.245322   5.730444   6.069121
    27  H    5.326773   4.153258   6.660552   6.189350   6.138679
    28  O    3.218012   4.577751   5.107745   3.782059   5.639641
    29  H    3.079470   5.155888   4.919025   3.564540   5.851731
    30  H    4.275051   4.708219   5.946651   4.979580   6.143405
                   11         12         13         14         15
    11  O    0.000000
    12  O    3.644586   0.000000
    13  O    2.734452   3.695625   0.000000
    14  H    3.738620   0.991375   4.142672   0.000000
    15  H    0.970112   4.363475   3.557014   4.286403   0.000000
    16  H    1.919311   3.886294   0.974373   4.211045   2.663860
    17  C    4.854251   3.272094   3.790103   3.044013   5.405308
    18  O    5.737238   3.866360   4.052252   3.930705   6.415246
    19  H    5.462475   4.224632   4.552769   3.822137   5.870489
    20  H    4.892884   2.658092   4.281289   2.259138   5.429048
    21  H    5.789506   3.404939   4.144906   3.631353   6.545935
    22  O    3.629421   2.636719   4.623155   1.736184   3.810164
    23  H    4.830504   3.415534   5.758067   2.425072   4.933913
    24  H    2.631849   3.987770   4.347024   3.406172   2.335403
    25  H    4.024326   4.125552   4.282330   3.496925   4.103799
    26  O    5.604185   4.557876   6.736432   3.567722   5.535233
    27  H    5.431630   4.820627   6.942477   3.864841   5.235156
    28  O    4.877694   4.494987   5.370625   3.676698   4.875857
    29  H    5.413817   4.588904   5.443334   3.837615   5.541882
    30  H    5.469274   4.767161   6.332736   3.817378   5.390443
                   16         17         18         19         20
    16  H    0.000000
    17  C    4.222454   0.000000
    18  O    4.739788   1.409996   0.000000
    19  H    4.889126   1.097472   2.034275   0.000000
    20  H    4.628973   1.094071   2.083048   1.766730   0.000000
    21  H    4.879044   1.940056   0.980614   2.785754   2.167321
    22  O    4.427263   3.230546   4.517305   3.563989   2.609103
    23  H    5.617997   3.672197   4.938664   3.783026   2.882080
    24  H    3.765646   4.254121   5.565689   4.418830   4.116803
    25  H    4.123342   2.588119   3.943162   2.335835   2.773413
    26  O    6.516750   4.566362   5.863767   4.450299   3.856331
    27  H    6.600033   5.253225   6.582914   5.210298   4.566060
    28  O    5.219050   3.083882   4.457977   2.652288   2.949251
    29  H    5.458992   2.549010   3.818072   1.892359   2.519780
    30  H    6.134090   3.985609   5.332292   3.646197   3.523795
                   21         22         23         24         25
    21  H    0.000000
    22  O    4.574303   0.000000
    23  H    4.999307   1.222233   0.000000
    24  H    5.833410   2.091306   2.969479   0.000000
    25  H    4.487859   2.342912   2.843504   2.280391   0.000000
    26  O    6.010640   2.199869   1.157199   3.375004   3.315048
    27  H    6.700514   2.431595   1.719424   3.185071   3.742489
    28  O    4.944377   2.274102   2.216464   2.701073   1.196476
    29  H    4.379216   2.784172   2.640608   3.519476   1.544556
    30  H    5.667158   2.298327   1.624701   3.092018   2.409827
                   26         27         28         29         30
    26  O    0.000000
    27  H    0.972781   0.000000
    28  O    2.377107   2.949328   0.000000
    29  H    2.913405   3.662623   0.969027   0.000000
    30  H    1.212727   1.880794   1.299407   1.885196   0.000000
 Stoichiometry    C6H16O8
 Framework group  C1[X(C6H16O8)]
 Deg. of freedom    84
 Full point group                 C1      NOp   1
 Largest Abelian subgroup         C1      NOp   1
 Largest concise Abelian subgroup C1      NOp   1
                         Standard orientation:                         
 ---------------------------------------------------------------------
 Center     Atomic      Atomic             Coordinates (Angstroms)
 Number     Number       Type             X           Y           Z
 ---------------------------------------------------------------------
      1          6           0        0.708187   -1.114747   -0.353881
      2          8           0        0.174265    0.034535   -1.299737
      3          6           0       -0.497760   -1.805796    0.284972
      4          6           0       -1.334822   -0.767709    1.053318
      5          6           0       -1.864153    0.329349    0.098376
      6          6           0       -0.766116    1.027688   -0.723526
      7          1           0       -0.096572   -2.535678    1.002367
      8          1           0       -2.341635    1.110338    0.696063
      9          1           0       -1.264655    1.452245   -1.599175
     10          1           0       -2.208800   -1.263785    1.486507
     11          8           0       -1.341636   -2.445727   -0.671029
     12          8           0       -0.552532   -0.247994    2.127237
     13          8           0       -2.887735   -0.191284   -0.736547
     14          1           0        0.384468   -0.237977    1.803579
     15          1           0       -0.800637   -3.029854   -1.225316
     16          1           0       -2.544516   -1.018928   -1.119444
     17          6           0       -0.021354    2.177613   -0.003697
     18          8           0       -0.935904    3.179771    0.380185
     19          1           0        0.689364    2.624987   -0.710225
     20          1           0        0.554644    1.801598    0.847086
     21          1           0       -1.196141    2.993415    1.307090
     22          8           0        1.533208   -0.599080    0.552844
     23          1           0        2.633553   -0.193887    0.897682
     24          1           0        1.149831   -1.747489   -1.152365
     25          1           0        1.268787    0.503502   -1.497432
     26          8           0        3.721958   -0.378187    0.550523
     27          1           0        3.848047   -1.340892    0.490494
     28          8           0        2.401849    0.645857   -1.140419
     29          1           0        2.247617    1.593261   -1.007565
     30          1           0        3.424952    0.227637   -0.457182
 ---------------------------------------------------------------------
 Rotational constants (GHZ):      0.7822820      0.5829828      0.4472706
 Standard basis: 6-31G(d) (6D, 7F)
 There are   242 symmetry adapted cartesian basis functions of A   symmetry.
 There are   242 symmetry adapted basis functions of A   symmetry.
   242 basis functions,   456 primitive gaussians,   242 cartesian basis functions
    58 alpha electrons       58 beta electrons
       nuclear repulsion energy      1156.9752952785 Hartrees.
 NAtoms=   30 NActive=   30 NUniq=   30 SFac= 1.00D+00 NAtFMM=   60 NAOKFM=F Big=F
 Integral buffers will be    131072 words long.
 Raffenetti 2 integral format.
 Two-electron integral symmetry is turned on.
 One-electron integrals computed using PRISM.
 NBasis=   242 RedAO= T EigKep=  1.71D-03  NBF=   242
 NBsUse=   242 1.00D-06 EigRej= -1.00D+00 NBFU=   242
 Initial guess from the checkpoint file:  "/home/iawad/Gau-1763.chk"
 B after Tr=     0.000000    0.000000    0.000000
         Rot=    0.999982    0.000602    0.002937    0.005243 Ang=   0.69 deg.
 ExpMin= 1.61D-01 ExpMax= 5.48D+03 ExpMxC= 8.25D+02 IAcc=1 IRadAn=         1 AccDes= 0.00D+00
 Harris functional with IExCor=  402 and IRadAn=       1 diagonalized for initial guess.
 HarFok:  IExCor=  402 AccDes= 0.00D+00 IRadAn=         1 IDoV= 1 UseB2=F ITyADJ=14
 ICtDFT=  3500011 ScaDFX=  1.000000  1.000000  1.000000  1.000000
 FoFCou: FMM=F IPFlag=           0 FMFlag=      100000 FMFlg1=           0
         NFxFlg=           0 DoJE=T BraDBF=F KetDBF=T FulRan=T
         wScrn=  0.000000 ICntrl=     500 IOpCl=  0 I1Cent=   200000004 NGrid=           0
         NMat0=    1 NMatS0=      1 NMatT0=    0 NMatD0=    1 NMtDS0=    0 NMtDT0=    0
 Petite list used in FoFCou.
 Requested convergence on RMS density matrix=1.00D-08 within 128 cycles.
 Requested convergence on MAX density matrix=1.00D-06.
 Requested convergence on             energy=1.00D-06.
 No special actions if energy rises.
 Integral accuracy reduced to 1.0D-05 until final iterations.
 Initial convergence to 1.0D-05 achieved.  Increase integral accuracy.
 SCF Done:  E(RB3LYP) =  -839.872858146     A.U. after   12 cycles
            NFock= 12  Conv=0.67D-08     -V/T= 2.0084
 Calling FoFJK, ICntrl=      2127 FMM=F ISym2X=0 I1Cent= 0 IOpClX= 0 NMat=1 NMatS=1 NMatT=0.
 ***** Axes restored to original set *****
 -------------------------------------------------------------------
 Center     Atomic                   Forces (Hartrees/Bohr)
 Number     Number              X              Y              Z
 -------------------------------------------------------------------
      1        6           0.012025890    0.013291384   -0.004816784
      2        8           0.005302307   -0.018013403    0.009169285
      3        6           0.001797208   -0.001715103    0.001547382
      4        6           0.002281508    0.004211551   -0.006586245
      5        6          -0.000764595   -0.001340733   -0.001249231
      6        6          -0.007925662    0.000522599   -0.000532300
      7        1           0.000045061   -0.000070772    0.000325952
      8        1           0.000344096   -0.000916749   -0.000995851
      9        1           0.000193639    0.000098305    0.000112591
     10        1          -0.000212185   -0.000576451    0.000672833
     11        8          -0.001108574   -0.000545641    0.000859264
     12        8           0.003656556   -0.001653092    0.004916907
     13        8           0.001217929    0.001268771    0.001518807
     14        1          -0.000885226   -0.005771038    0.001802167
     15        1          -0.000269517    0.000267328    0.000401692
     16        1          -0.000321186    0.000134669   -0.000756566
     17        6          -0.007891828   -0.002849297   -0.005528536
     18        8           0.008624090   -0.005289743   -0.007104743
     19        1           0.003755668   -0.000074353    0.002938892
     20        1          -0.000160900   -0.000664198    0.000806942
     21        1          -0.003793222    0.005585568    0.008741139
     22        8           0.016208888   -0.083387161   -0.006626400
     23        1          -0.049673328    0.010563820    0.004693450
     24        1           0.002335222    0.003447874   -0.003458136
     25        1          -0.017497464   -0.002291851   -0.026480521
     26        8           0.026734411    0.046791656   -0.009821356
     27        1           0.003861147   -0.001121180    0.009981499
     28        8           0.012577776    0.052427451    0.045664013
     29        1           0.000121636    0.018394716   -0.009617636
     30        1          -0.010579343   -0.030724924   -0.010578509
 -------------------------------------------------------------------
 Cartesian Forces:  Max     0.083387161 RMS     0.015642716

 GradGradGradGradGradGradGradGradGradGradGradGradGradGradGradGradGradGrad
 Berny optimization.
 Search for a saddle point.
 Step number   2 out of a maximum of  180
 All quantities printed in internal units (Hartrees-Bohrs-Radians)
 Swapping is turned off.
 Update second derivatives using D2CorN and points    1    2
 ITU=  0  0
     Eigenvalues ---   -0.16135  -0.03229  -0.01435  -0.00443  -0.00114
     Eigenvalues ---    0.00071   0.00183   0.00319   0.00514   0.00572
     Eigenvalues ---    0.00735   0.00886   0.01093   0.01256   0.01549
     Eigenvalues ---    0.01646   0.01729   0.01809   0.01969   0.02463
     Eigenvalues ---    0.02972   0.03315   0.03740   0.04224   0.04427
     Eigenvalues ---    0.04442   0.04741   0.04961   0.05107   0.05349
     Eigenvalues ---    0.05828   0.05933   0.06137   0.06400   0.06513
     Eigenvalues ---    0.06739   0.07310   0.08197   0.08383   0.09826
     Eigenvalues ---    0.10094   0.10452   0.11905   0.12567   0.13355
     Eigenvalues ---    0.14756   0.15175   0.15399   0.15844   0.16363
     Eigenvalues ---    0.18007   0.18189   0.20292   0.21294   0.22973
     Eigenvalues ---    0.24807   0.25793   0.26361   0.30154   0.32742
     Eigenvalues ---    0.35927   0.41007   0.43430   0.47710   0.53304
     Eigenvalues ---    0.58003   0.59670   0.63288   0.63961   0.65299
     Eigenvalues ---    0.76519   0.80264   0.81938   0.82960   0.83774
     Eigenvalues ---    0.85486   0.91245   0.92620   0.96144   0.98195
     Eigenvalues ---    0.99448   1.02144   1.05913   1.09607
 Eigenvectors required to have negative eigenvalues:
                          Z30       Y25       Y23       Z23       X30
   1                    0.55965  -0.37717   0.33677  -0.29447   0.22723
                          Z28       Z25       Y28       Y2        Z22
   1                   -0.20221   0.17471   0.17388   0.17130   0.15162
 RFO step:  Lambda0=1.139754210D-03 Lambda=-7.89793941D-02.
 Linear search not attempted -- option 19 set.
 Maximum step size (   0.300) exceeded in Quadratic search.
    -- Step size scaled by   0.268
 TrRot=  0.003503  0.001368  0.002661  0.462908 -0.000850 -0.462801
 Variable       Old X    -DE/DX   Delta X   Delta X   Delta X     New X
                                 (Linear)    (Quad)   (Total)
    X1       -3.21648   0.01203   0.00000   0.03538   0.03951  -3.17697
    Y1        0.89192   0.01329   0.00000   0.01282   0.01421   0.90613
    Z1       -0.94752  -0.00482   0.00000  -0.00640  -0.00581  -0.95334
    X2       -2.00966   0.00530   0.00000  -0.00413  -0.00208  -2.01175
    Y2        1.55443  -0.01801   0.00000   0.00229   0.00280   1.55723
    Z2        1.70471   0.00917   0.00000  -0.00362  -0.00190   1.70281
    X3       -3.02059   0.00180   0.00000  -0.00274   0.00199  -3.01860
    Y3       -1.96548  -0.00172   0.00000   0.00680   0.00835  -1.95713
    Z3       -1.33890   0.00155   0.00000   0.00082   0.00044  -1.33847
    X4       -0.23195   0.00228   0.00000  -0.00301   0.00169  -0.23025
    Y4       -2.77512   0.00421   0.00000  -0.00554  -0.00375  -2.77887
    Z4       -1.17593  -0.00659   0.00000  -0.00705  -0.00562  -1.18155
    X5        0.88295  -0.00076   0.00000  -0.00626  -0.00363   0.87932
    Y5       -2.14680  -0.00134   0.00000  -0.00313  -0.00222  -2.14902
    Z5        1.45413  -0.00125   0.00000  -0.00495  -0.00244   1.45169
    X6        0.58975  -0.00793   0.00000  -0.00405  -0.00230   0.58745
    Y6        0.64119   0.00052   0.00000  -0.00039   0.00020   0.64139
    Z6        2.22910  -0.00053   0.00000  -0.00506  -0.00171   2.22739
    X7       -3.71401   0.00005   0.00000  -0.00805  -0.00182  -3.71583
    Y7       -2.34848  -0.00007   0.00000   0.00838   0.01059  -2.33789
    Z7       -3.25920   0.00033   0.00000   0.00234   0.00129  -3.25791
    X8        2.91366   0.00034   0.00000  -0.00559  -0.00289   2.91077
    Y8       -2.52458  -0.00092   0.00000  -0.00276  -0.00162  -2.52619
    Z8        1.41510  -0.00100   0.00000  -0.00586  -0.00194   1.41315
    X9        0.71831   0.00019   0.00000   0.00014   0.00032   0.71863
    Y9        0.68202   0.00010   0.00000   0.00133   0.00115   0.68317
    Z9        4.29094   0.00011   0.00000  -0.00502  -0.00155   4.28939
   X10       -0.11017  -0.00021   0.00000  -0.01456  -0.00948  -0.11964
   Y10       -4.82622  -0.00058   0.00000  -0.00766  -0.00577  -4.83199
   Z10       -1.41002   0.00067   0.00000   0.00540   0.00614  -1.40388
   X11       -4.42242  -0.00111   0.00000  -0.00626  -0.00277  -4.42519
   Y11       -3.37255  -0.00055   0.00000   0.01614   0.01686  -3.35569
   Z11        0.48434   0.00086   0.00000   0.00568   0.00370   0.48804
   X12        1.12708   0.00366   0.00000   0.00670   0.01281   1.13989
   Y12       -1.63354  -0.00165   0.00000  -0.02534  -0.02264  -1.65618
   Z12       -3.20530   0.00492   0.00000  -0.00122   0.00168  -3.20362
   X13       -0.12126   0.00122   0.00000  -0.00411  -0.00273  -0.12398
[...]
 89598,-0.00089690,-0.00009091,0.00035509,0.00030590,0.00064343,-0.0014
 2221,0.00058755,-0.00157540,-0.00096028,0.00059268,0.00012601,-0.00015
 845,-0.00015389,0.00021004,0.00001589,-0.00011337,-0.00025901,0.000217
 87,0.00016481,0.00000663,-0.00002801,0.00001011,-0.00011358,-0.0000134
 6,-0.00000729,-0.00014734,-0.00020748,-0.00013104,-0.01765566,0.014553
 04,0.00246030,-0.00102057,0.00020279,-0.00038663,-0.06815279,0.0802669
 3,0.00954443,-0.00315208,-0.04062746,-0.03409199,0.00315824,-0.0160916
 2,0.00232021,0.00070360,0.00380847,-0.00040279,0.00001183,-0.00047488,
 -0.00009479,-0.00071744,0.00006873,0.00160090,-0.00407373,-0.00290296,
 -0.00010815,0.00073355,0.00018427,0.00000470,0.00017248,0.00006812,-0.
 00146522,0.00035107,-0.00047715,0.00015277,-0.00019363,0.00025965,-0.0
 0111792,-0.00057667,0.00058850,0.00065180,-0.00125139,0.00070520,0.000
 11006,0.00038465,0.00017839,-0.00141419,0.00259496,-0.00040352,0.00015
 285,0.00033889,0.00017361,-0.00010775,-0.00013674,-0.00011661,0.000114
 16,0.00093491,-0.00096173,-0.00042878,-0.00002669,0.00054281,0.0000185
 6,-0.00012791,0.00021779,-0.00018622,-0.00047208,0.00009252,-0.0001945
 7,-0.00010250,-0.00036360,0.03799609,0.00173988,-0.00989838,0.00076208
 ,-0.00425412,-0.00024524,-0.01261476,0.00139845,0.06552473,0.00628381,
 -0.00395316,0.00974309,-0.03369597,-0.01864681,-0.01517560,-0.00097769
 ,0.00013586,-0.00263559,-0.00027526,0.00035640,0.00006732,-0.00215666,
 0.00025908,-0.00099791,-0.00581185,0.01667728,-0.00099794,0.00004032,-
 0.00093415,-0.00004938,0.00005788,0.00049428,0.00007557,0.00058051,-0.
 00008969,-0.00014935,-0.00001524,-0.00011139,-0.00009372,-0.00033067,-
 0.00026139,0.00014890,-0.00000092,-0.00028121,-0.00019518,0.00004344,-
 0.00044826,0.00026688,-0.00002858,0.00011552,0.00025453,0.00019296,-0.
 00002173,-0.00011913,0.00016423,0.00031658,-0.00027648,-0.00126245,0.0
 0087642,0.00020135,0.00128198,-0.00093381,-0.00022213,-0.00009849,-0.0
 0002085,-0.00005240,-0.00045459,-0.00029474,0.00090425,0.00004008,0.00
 027055,0.00023563,-0.00095771,0.00198458,-0.00264987,0.00173588,-0.003
 59860,0.00053438,-0.00200536,-0.00067285,-0.00083468,0.07880168,-0.011
 80667,-0.00280790,-0.04461834,-0.01091934,0.00411725,0.00982699,0.0013
 3927,-0.00088048,0.00562542,0.00182206,-0.00137190,-0.00265987,-0.0082
 5105,-0.00168096,-0.00087394,0.02436981,0.00518578,0.01552063,0.000066
 06,0.00248533,0.00061728,-0.00051345,0.00313333,-0.00009238,-0.0011755
 1,0.00003887,-0.00149174,-0.00017449,0.00040370,0.00035600,0.00088700,
 0.00180731,0.00030782,-0.00134141,-0.00026545,0.00155763,0.00075481,0.
 00156979,-0.00092237,0.00060486,-0.00004527,-0.00080251,-0.00093972,-0
 .00093265,-0.00003163,-0.00039461,-0.00167333,0.00060761,0.00103244,0.
 00553973,-0.00233017,-0.00372681,-0.00254868,0.00129704,-0.00149126,-0
 .00168106,-0.00124454,0.00026470,0.00065159,0.00107910,0.00132074,0.00
 039432,-0.00066812,-0.00347290,-0.01416248,0.01692142,-0.00496490,0.02
 254091,-0.00105110,0.00249723,0.00142731,0.00149648,0.01196225,0.02789
 419,0.00256430,-0.01746651,0.00485835,-0.01221633,0.00093319,-0.038034
 40,-0.00167436,-0.00041536,-0.00329955,-0.00038523,0.00006794,0.000103
 79,-0.00152715,-0.00026713,-0.00046556,0.00083711,0.00546699,0.0007638
 5,0.00014565,-0.00087764,-0.00006744,0.00001380,0.00041974,0.00006643,
 -0.00056778,0.00062965,-0.00067547,-0.00002620,0.00003558,-0.00003220,
 0.00011224,0.00023338,0.00015861,0.00005750,0.00046510,-0.00019575,0.0
 0030831,-0.00010117,-0.00019443,0.00030845,-0.00047928,0.00007206,0.00
 003096,-0.00004823,0.00013230,-0.00009154,-0.00004416,0.00011970,0.000
 73749,-0.00061666,0.00117262,-0.00041129,0.00045730,-0.00041549,-0.000
 12433,-0.00024466,-0.00002787,0.00037400,0.00008353,-0.00055249,0.0000
 2903,-0.00017225,-0.00001555,0.00120297,0.00393258,-0.00078920,0.00034
 140,-0.00073528,-0.00284975,-0.00044779,0.00010502,0.00004268,0.024100
 81,-0.00094167,0.08887992,-0.00451220,0.00273946,0.00574302,0.00090171
 ,-0.00267413,-0.00196917,0.00063653,-0.00000905,-0.00119103,-0.0001396
 5,-0.00032089,0.00033483,0.00013988,-0.00012498,0.00011397,-0.00070579
 ,-0.00005295,-0.00017570,0.00005465,-0.00015431,-0.00005655,-0.0000001
 9,-0.00008809,0.00000766,0.00006146,0.00007784,-0.00009421,0.00002731,
 0.00007184,-0.00003853,0.00037086,0.00089628,-0.00058399,-0.00007748,0
 .00043286,-0.00028519,0.00012198,0.00012610,-0.00021490,0.00035268,-0.
 00048115,0.00016521,-0.00013978,0.00000655,0.00003354,-0.00003544,0.00
 002441,0.00008099,0.00050258,-0.00031300,0.00090928,-0.00025004,0.0004
 4673,-0.00032532,-0.00004125,-0.00002711,-0.00009205,-0.00008810,-0.00
 004080,-0.00016271,0.00000908,-0.00020910,0.00010733,0.01040655,0.0185
 7988,-0.00458058,-0.04426406,0.02142429,-0.00927686,0.00154462,0.00067
 723,-0.00084128,-0.00154368,0.00426652,0.00039077,0.41520811,0.0144603
 1,-0.00181334,-0.02871016,0.00131234,0.00829062,0.00991905,-0.00148490
 ,0.00152455,0.00286921,-0.00012591,0.00122436,-0.00178227,0.00000595,-
 0.00006337,-0.00087735,-0.00176149,0.00090199,-0.00042603,-0.00001605,
 0.00051832,0.00025419,0.00006037,-0.00001833,0.00016372,0.00058030,-0.
 00011321,0.00038717,0.00019582,-0.00036141,0.00033499,-0.00135577,-0.0
 0393461,0.00249974,0.00382611,-0.00388670,0.00233526,0.00010345,0.0000
 2680,0.00105356,-0.00627510,0.00435758,-0.00027845,0.00070385,0.000699
 48,-0.00028237,-0.00025514,0.00004719,-0.00083225,-0.00022425,-0.00047
 488,-0.00034110,0.00093238,0.00084361,0.00029048,0.00035980,0.00032395
 ,0.00062357,-0.00040652,-0.00094368,-0.00017472,-0.00105365,-0.0005626
 0,-0.00039409,0.01125119,-0.07977044,0.02375764,-0.00849684,-0.1448211
 6,-0.02877837,-0.00341389,0.00112743,0.00165335,0.00237087,-0.01470948
 ,-0.00235222,-0.11736745,0.29629935,0.00263244,-0.00260222,-0.01030096
 ,-0.00166074,0.01217130,0.00451863,-0.00060392,0.00007088,0.00078484,0
 .00019889,0.00024213,-0.00081797,-0.00055605,-0.00059273,-0.00011502,0
 .00196013,-0.00003019,0.00120073,0.00006581,0.00039881,0.00014628,-0.0
 0004607,0.00030298,0.00004682,0.00008473,-0.00020275,0.00024341,0.0000
 0332,0.00005097,0.00015408,-0.00019312,-0.00034623,0.00073370,0.000285
 17,-0.00044767,0.00095665,0.00011889,0.00059086,0.00018564,-0.00051148
 ,0.00060991,-0.00046747,-0.00003782,-0.00014847,-0.00021272,-0.0001370
 6,-0.00034738,-0.00022681,0.00054804,-0.00055169,-0.00065166,-0.000808
 46,0.00066602,0.00068821,0.00030848,0.00019660,0.00036858,-0.00000692,
 -0.00025798,-0.00040859,-0.00012922,-0.00011296,-0.00047572,-0.0009649
 9,-0.00413496,0.01810835,-0.02076081,0.00457597,-0.05411454,-0.0009942
 7,0.00030048,0.00051706,0.00374454,-0.02345234,-0.00105471,0.21603215,
 -0.03011644,0.26331333,0.00091329,0.00036030,-0.00010953,-0.00013133,-
 0.00035770,0.00000207,-0.00003685,0.00004059,-0.00009515,0.00006790,0.
 00006201,-0.00004264,0.00002484,0.00002141,-0.00001633,-0.00006640,-0.
 00001087,-0.00006815,0.00000583,-0.00002144,0.00000491,-0.00000289,-0.
 00000680,-0.00000406,-0.00000310,0.00000924,-0.00000736,-0.00001624,-0
 .00000325,-0.00000306,-0.00006850,-0.00003473,0.00002912,-0.00001508,-
 0.00008471,0.00008215,-0.00003110,-0.00001808,0.00001915,-0.00002190,0
 .00005128,-0.00005223,0.00001817,-0.00001716,0.00000859,0.00002442,0.0
 0000683,0.00000916,0.00009725,-0.00000424,0.00006431,-0.00005644,0.000
 01290,0.00001269,-0.00001097,-0.00000644,-0.00001629,-0.00002108,-0.00
 003670,-0.00001518,0.00000949,0.00000296,-0.00001672,0.00055333,-0.001
 58940,0.00049379,-0.00639914,-0.00147020,-0.00279359,-0.00022613,0.000
 00442,0.00010591,0.00004345,0.00081348,-0.00011796,-0.35655884,0.09686
 796,-0.21218647,0.35898273,0.00109517,-0.00074153,-0.00019370,-0.00035
 778,0.00032100,-0.00017009,-0.00032536,-0.00010684,0.00032585,0.000066
 68,0.00004774,-0.00000583,-0.00005403,-0.00005413,0.00006803,0.0002307
 7,-0.00009671,0.00006531,-0.00000616,0.00001180,-0.00000824,-0.0000112
 4,0.00001879,-0.00001149,-0.00003607,0.00000359,-0.00002311,-0.0000373
 3,0.00001947,-0.00000968,0.00003628,-0.00001368,-0.00002021,-0.0000947
 8,0.00012166,-0.00003955,0.00000501,0.00005564,-0.00008800,0.00012256,
 -0.00016377,-0.00001583,-0.00002746,-0.00009019,0.00004791,0.00001187,
 -0.00003218,0.00005916,0.00010312,0.00001696,0.00007252,-0.00015869,0.
 00003681,0.00001385,0.00000596,-0.00001952,0.00000209,0.00003592,-0.00
 010667,-0.00006412,0.00005682,0.00000424,-0.00000221,-0.00254911,-0.00
 521333,-0.00120976,0.03030112,0.00487055,0.02019307,-0.00044372,-0.000
 24589,0.00029287,0.00021425,-0.00031577,0.00017956,0.06710513,-0.05351
 720,0.02424985,-0.09179367,0.05466697,-0.00057464,0.00013190,-0.000575
 87,0.00030447,-0.00003590,0.00019161,0.00021269,0.00015426,0.00018408,
 -0.00009270,-0.00005682,-0.00000158,0.00002361,0.00004774,-0.00004249,
 -0.00021975,0.00009040,-0.00006690,-0.00001255,-0.00003167,-0.00001168
 ,0.00001007,-0.00001909,0.00000841,0.00004010,-0.00000503,0.00002239,0
 .00004501,-0.00003018,0.00001552,-0.00004654,-0.00022191,0.00004136,0.
 00019108,-0.00018044,-0.00001957,0.00001392,-0.00005217,0.00003903,-0.
 00026359,0.00023468,0.00009190,0.00004617,0.00011253,0.00001446,-0.000
 01897,0.00003676,-0.00003682,-0.00012171,0.00000999,-0.00005450,0.0001
 4135,-0.00002212,-0.00004408,0.00001516,0.00000575,0.00003004,-0.00012
 690,0.00012173,-0.00004553,-0.00005778,-0.00000107,0.00002058,0.000227
 44,-0.00290599,0.00035896,0.00325717,0.00394687,0.00206641,0.00032246,
 0.00011494,-0.00011110,-0.00029698,-0.00013542,0.00006900,-0.20362292,
 0.04003087,-0.14834513,0.21433107,-0.04546501,0.15121108,-0.00327193,0
 .00067472,-0.00421416,0.01211926,0.01596926,0.00429383,0.00036213,-0.0
 0011150,0.00103495,-0.00000902,-0.00035087,-0.00011477,0.00011388,-0.0
 0055012,0.00016429,0.00157969,-0.00302868,0.00087692,0.00000474,0.0003
 5494,0.00004247,0.00000552,-0.00003980,0.00002703,-0.00010142,0.000010
 35,-0.00001218,0.00004693,0.00008700,0.00006557,0.00029783,0.00022744,
 -0.00011576,0.00021834,0.00032675,0.00021527,0.00025326,0.00051016,-0.
 00027536,-0.00009141,-0.00011421,-0.00022433,-0.00013313,-0.00001371,0
 .00007357,-0.00017801,-0.00018804,0.00007867,0.00027038,-0.00141731,0.
 00047393,-0.00072204,0.00137408,0.00011131,0.00032789,0.00031537,0.000
 68603,-0.00032767,-0.00008124,-0.00102732,-0.00019680,-0.00028118,-0.0
 0027299,0.00092184,-0.00048699,0.00153878,-0.00119506,0.00179956,-0.00
 078501,0.00110398,0.00022268,0.00027423,-0.04633784,-0.00010535,-0.014
 47036,0.01568603,-0.00270307,-0.00288353,-0.00123093,0.00112750,0.0040
 6116,0.33962819,0.00561552,-0.00062235,0.02509177,0.01949915,-0.092661
 22,-0.00571279,-0.00095481,0.00068093,-0.00330029,-0.00105942,0.000977
 66,0.00159273,0.00489463,0.00114455,0.00066393,-0.01426456,-0.00342259
 ,-0.00801941,-0.00000747,-0.00141983,-0.00033438,0.00020758,-0.0018027
 4,0.00001829,0.00064177,0.00001548,0.00073561,0.00008286,-0.00023852,-
 0.00018605,-0.00052197,-0.00109781,-0.00022113,0.00073687,0.00002111,-
 0.00099852,-0.00045360,-0.00098119,0.00050235,-0.00035360,0.00008342,0
 .00052629,0.00056903,0.00057364,0.00002980,0.00023143,0.00104299,-0.00
 037083,-0.00089460,-0.00173781,0.00092110,0.00220443,0.00066131,-0.000
 77275,0.00064004,0.00062020,0.00030130,0.00004430,-0.00026555,-0.00022
 907,-0.00061945,-0.00015970,0.00049464,0.00212602,0.00861886,-0.010387
 87,0.00292096,-0.01402521,0.00431061,-0.00126395,-0.00073552,-0.000962
 90,0.01958338,-0.03181656,0.00206716,-0.00129814,0.02319891,0.01080073
 ,-0.00042242,0.00025960,-0.00014585,0.17572755,0.33974702,0.00018818,0
 .00317139,-0.01562365,0.00183222,0.01576495,0.02097430,0.00058743,0.00
 055444,0.00191592,0.00034894,0.00017770,-0.00103154,-0.00022913,-0.000
 45030,-0.00013321,0.00225961,-0.00101816,0.00088204,-0.00002901,0.0007
 2633,0.00025991,-0.00003124,0.00024437,0.00002990,0.00024510,-0.000593
 41,0.00058424,0.00006793,-0.00001163,0.00020393,-0.00031922,-0.0006530
 5,0.00093552,0.00052311,-0.00103160,0.00120403,-0.00006237,0.00051186,
 0.00045273,-0.00123292,0.00120455,-0.00051020,0.00001229,-0.00002645,-
 0.00028899,-0.00011851,-0.00036645,-0.00034627,-0.00019141,-0.00005500
 ,-0.00212600,-0.00026997,0.00001028,0.00109291,0.00036643,0.00038043,0
 .00030916,-0.00000173,-0.00009383,0.00034152,-0.00016342,0.00007416,-0
 .00045887,-0.00043499,-0.01431910,0.00837308,-0.00548561,0.02438172,-0
 .00374461,-0.00004898,0.00046494,0.00038960,-0.01568667,-0.02046504,-0
 .05146503,0.00109176,-0.01306556,-0.08571774,0.00592612,-0.00339384,-0
 .00657524,0.14657939,0.08401666,0.33324029,-0.00005273,-0.00012094,-0.
 00050747,-0.00212407,0.00461244,-0.00074602,0.00009336,-0.00005324,0.0
 0002545,0.00014499,0.00003971,-0.00003582,-0.00028026,0.00027239,-0.00
 004834,0.00116739,0.00037978,0.00008500,-0.00001557,0.00002754,0.00000
 190,-0.00002216,0.00013046,-0.00003307,-0.00003396,0.00004090,-0.00002
 755,-0.00002778,-0.00002320,-0.00001678,-0.00008506,0.00002445,0.00002
 626,-0.00026467,-0.00014549,-0.00008893,-0.00018176,-0.00024109,0.0001
 4674,0.00016709,-0.00000917,0.00009220,-0.00000006,-0.00001223,-0.0000
 2659,0.00008103,-0.00002182,0.00001864,0.00005314,0.00130968,0.0005950
 5,0.00013395,-0.00091172,-0.00028498,-0.00048095,-0.00039950,-0.000624
 40,0.00009154,0.00017367,0.00032935,0.00022909,0.00014358,0.00015336,-
 0.00040443,0.00018434,0.00006380,0.00042097,-0.00060441,-0.00001403,-0
 .00005571,-0.00000382,0.00001595,0.00568044,-0.00304604,0.00511842,-0.
 00081366,0.00039302,0.00322278,-0.00001146,-0.00014119,0.00001935,-0.2
 7607973,-0.19679424,-0.16298818,0.27155103,-0.00050404,0.00019531,-0.0
 0034105,0.00446870,-0.00323832,0.00219494,-0.00011414,-0.00006111,0.00
 019322,-0.00003584,0.00005451,-0.00003306,0.00046698,-0.00034502,0.000
 36118,-0.00045866,-0.00172303,-0.00030508,0.00001336,0.00006514,0.0000
 1259,-0.00001450,-0.00012747,0.00001668,0.00007410,-0.00017397,0.00033
 648,0.00001392,0.00005818,0.00004306,0.00012391,0.00012928,-0.00004236
 ,0.00006540,0.00018951,0.00011180,0.00009027,0.00031768,-0.00013807,0.
 00002325,-0.00010509,-0.00011101,-0.00004851,-0.00006592,0.00000115,-0
 .00006634,-0.00006730,-0.00000904,0.00017925,-0.00088399,-0.00029504,-
 0.00043228,0.00079700,0.00029832,0.00053874,0.00036997,0.00034414,-0.0
 0000546,-0.00012546,-0.00045682,-0.00013209,-0.00010101,-0.00016876,0.
 00027845,0.00027222,0.00024053,-0.00011675,-0.00016238,-0.00036048,0.0
 0010600,-0.00000514,0.00000289,-0.02371643,-0.00403959,-0.01330641,-0.
 00103079,-0.00058010,0.00392812,0.00001854,0.00038053,-0.00005617,-0.1
 7777616,-0.16740682,-0.09337282,0.19240508,0.17209095,-0.00030390,-0.0
 0026619,-0.00024539,-0.00154668,0.00382024,-0.00051808,-0.00005889,-0.
 00013661,0.00008791,0.00001323,-0.00012389,0.00007111,-0.00027856,-0.0
 0013079,-0.00009009,0.00047324,0.00021751,0.00096475,0.00000158,0.0000
 4855,-0.00000417,-0.00002830,0.00007313,0.00001245,-0.00000374,0.00018
 581,-0.00030088,-0.00002059,0.00002342,-0.00002315,0.00009246,0.000155
 71,-0.00011423,-0.00000991,0.00017791,-0.00005904,0.00009381,0.0000776
 3,-0.00019427,0.00009495,-0.00015727,-0.00000873,-0.00004522,-0.000060
 30,0.00003113,-0.00000456,-0.00001743,0.00009647,0.00030474,-0.0000183
 9,0.00064461,-0.00028819,0.00033113,-0.00026129,-0.00001317,-0.0001891
 3,0.00022881,-0.00007385,-0.00020462,-0.00055681,0.00000263,-0.0001060
 6,-0.00000057,0.00010739,0.00047205,0.00006950,-0.00027178,-0.00035431
 ,0.00010472,0.00001155,-0.00007596,-0.00006226,0.00630537,-0.00486220,
 0.00290753,0.00376678,0.00183291,-0.00517497,0.00003082,0.00025886,0.0
 0039899,-0.13871585,-0.08669840,-0.11710611,0.15686795,0.10537272,0.12
 264858,0.00203237,0.00054755,-0.00063760,-0.00070539,0.00036549,0.0008
 1054,-0.00017746,-0.00003598,0.00002115,0.00018809,0.00018638,-0.00005
 329,-0.00005118,0.00020572,-0.00000052,0.00058222,0.00009975,-0.000135
 72,-0.00000877,0.00001365,0.00000612,0.00000132,0.00004627,-0.00003262
 ,-0.00011256,-0.00006681,0.00007006,-0.00005283,-0.00002277,-0.0000191
 1,-0.00012502,-0.00005960,0.00005481,-0.00019013,-0.00021000,-0.000015
 81,-0.00015150,-0.00020452,0.00009967,0.00007568,0.00010920,0.00006729
 ,0.00001848,-0.00005137,-0.00001608,0.00008142,0.00001585,0.00003076,-
 0.00052414,0.00045307,-0.00084271,0.00042588,-0.00068702,0.00018680,-0
 .00005726,-0.00000753,-0.00011575,-0.00020584,0.00027802,0.00054838,0.
 00009297,0.00022985,0.00005253,-0.00120709,-0.00094092,-0.00008858,0.0
 0067957,0.00008376,0.00388111,-0.00066168,-0.00010745,0.00007838,0.001
 00630,0.00032229,-0.00461289,-0.03685388,0.01151628,0.01327557,0.00416
 767,-0.00448156,-0.01780722,-0.04306488,-0.01681728,0.02726485,0.00112
 001,0.00558606,-0.02650329,0.07367764,0.00038124,-0.00321069,0.0005408
 5,0.00005795,-0.00205883,-0.00296175,-0.00058533,-0.00027579,-0.000091
 92,0.00005587,0.00005773,0.00001305,-0.00011941,-0.00015610,0.00013784
 ,0.00068614,-0.00037986,0.00042433,0.00002123,0.00000511,-0.00001868,-
 0.00001757,0.00005008,-0.00000958,-0.00011213,0.00005300,-0.00009064,-
 0.00006465,0.00005847,-0.00001218,0.00013515,0.00026457,-0.00011841,-0
 .00019840,0.00029239,-0.00005594,0.00005572,0.00014378,-0.00016048,0.0
 0038870,-0.00036405,-0.00001369,-0.00009102,-0.00015077,0.00002882,-0.
 00000969,-0.00006927,0.00008160,0.00039104,-0.00014144,0.00035716,-0.0
 0049542,0.00021655,-0.00004380,-0.00002851,-0.00004238,-0.00010982,0.0
 0023334,0.00016628,-0.00021955,0.00009269,-0.00004238,-0.00003594,-0.0
 0000178,0.00016043,0.00208938,0.00187662,0.00131926,-0.01875914,-0.000
 48784,-0.00003868,0.00007977,-0.00163220,0.00174213,0.02299192,0.00731
 681,-0.03381363,0.00418841,-0.00239412,-0.00011794,0.00432642,-0.01147
 912,-0.05925226,0.01723242,0.00239110,0.00429145,-0.01964603,0.0036335
 9,0.09129284,-0.00253705,-0.00019222,0.02410900,0.00267166,-0.02544440
 ,-0.00991776,-0.00007552,-0.00060790,-0.00164291,-0.00032640,-0.000316
 76,0.00167159,0.00110324,0.00095542,0.00031327,-0.00372177,-0.00021615
 ,-0.00229669,-0.00001589,-0.00079633,-0.00041698,0.00007154,-0.0005760
 7,-0.00009309,-0.00021504,0.00047529,-0.00054617,-0.00009030,-0.000010
 08,-0.00031408,0.00041462,0.00095645,-0.00158314,-0.00108956,0.0014768
 7,-0.00197534,-0.00018290,-0.00091603,-0.00048172,0.00209656,-0.001839
 50,0.00086395,-0.00002054,0.00009994,0.00040257,0.00025896,0.00059130,
 0.00048046,-0.00030419,0.00074815,0.00195168,0.00085500,-0.00081801,-0
 .00132832,-0.00066258,-0.00038220,-0.00080945,0.00023963,0.00023670,0.
 00058799,0.00035375,0.00011511,0.00081551,-0.00007787,0.02392946,-0.01
 442054,0.01188302,-0.04510872,0.00408594,0.00075532,-0.00074890,-0.000
 62562,-0.00614963,0.05142995,0.00078803,-0.00526630,0.02040567,0.01611
 770,-0.00557513,0.00489171,0.00116666,0.00251424,-0.01373269,-0.086061
 61,-0.00134005,-0.00446162,-0.00354651,0.00443318,-0.01014442,0.072705
 58\\-0.00000449,0.00000680,-0.00000558,0.00001137,0.00000592,0.0000084
 0,-0.00000562,0.00000384,-0.00000254,-0.00000497,-0.00000122,-0.000007
 99,-0.00000739,-0.00000251,-0.00001065,0.00000012,0.00000137,0.0000041
 6,-0.00000548,0.00001082,0.00000658,0.00000562,-0.00000601,0.00000064,
 0.00000534,-0.00000644,-0.00000758,-0.00000321,0.00000224,-0.00000665,
 -0.00002711,0.00001491,0.00000067,-0.00001802,0.00001129,-0.00001671,-
 0.00000527,-0.00000783,-0.00000475,-0.00000051,-0.00000085,0.00000292,
 0.00002226,-0.00000865,0.00000565,0.00000229,-0.00000422,-0.00000474,0
 .00000268,-0.00000245,0.00000089,-0.00000624,-0.00001506,-0.00001243,-
 0.00000261,-0.00000735,-0.00000234,0.00000233,-0.00000101,-0.00000244,
 0.00000015,0.00000378,-0.00000128,-0.00001118,0.00001192,0.00000505,0.
 00001484,0.00000141,-0.00000469,0.00000235,0.00000122,0.00000811,0.000
 00261,0.00000676,-0.00000028,-0.00004882,-0.00002668,-0.00000486,0.000
 04518,-0.00000435,0.00003427,0.00001731,-0.00000438,0.00001392,0.00000
 073,0.00000440,0.00001076,0.00001576,0.00001233,-0.00000652\\\@


 THE HURRIEDER I GO, THE BEHINDER I GET.
 Job cpu time:       0 days  0 hours 45 minutes 28.2 seconds.
 File lengths (MBytes):  RWF=    334 Int=      0 D2E=      0 Chk=      7 Scr=      2
 Normal termination of Gaussian 09 at Sat Jan  7 20:37:56 2017.
