 Entering Gaussian System, Link 0=g09
 Initial command:
 /global/software/gaussian/g09.d01/l1.exe "/home/iawad/Gau-2571.inp" -scrdir="/home/iawad/"
 Entering Link 1 = /global/software/gaussian/g09.d01/l1.exe PID=      2572.
  
 Copyright (c) 1988,1990,1992,1993,1995,1998,2003,2009,2013,
            Gaussian, Inc.  All Rights Reserved.
  
 This is part of the Gaussian(R) 09 program.  It is based on
 the Gaussian(R) 03 system (copyright 2003, Gaussian, Inc.),
 the Gaussian(R) 98 system (copyright 1998, Gaussian, Inc.),
 the Gaussian(R) 94 system (copyright 1995, Gaussian, Inc.),
 the Gaussian 92(TM) system (copyright 1992, Gaussian, Inc.),
 the Gaussian 90(TM) system (copyright 1990, Gaussian, Inc.),
 the Gaussian 88(TM) system (copyright 1988, Gaussian, Inc.),
 the Gaussian 86(TM) system (copyright 1986, Carnegie Mellon
 University), and the Gaussian 82(TM) system (copyright 1983,
 Carnegie Mellon University). Gaussian is a federally registered
 trademark of Gaussian, Inc.
  
 This software contains proprietary and confidential information,
 including trade secrets, belonging to Gaussian, Inc.
  
 This software is provided under written license and may be
 used, copied, transmitted, or stored only in accord with that
 written license.
  
 The following legend is applicable only to US Government
 contracts under FAR:
  
                    RESTRICTED RIGHTS LEGEND
  
 Use, reproduction and disclosure by the US Government is
 subject to restrictions as set forth in subparagraphs (a)
 and (c) of the Commercial Computer Software - Restricted
 Rights clause in FAR 52.227-19.
  
 Gaussian, Inc.
 340 Quinnipiac St., Bldg. 40, Wallingford CT 06492
  
  
 ---------------------------------------------------------------
 Warning -- This program may not be used in any manner that
 competes with the business of Gaussian, Inc. or will provide
 assistance to any competitor of Gaussian, Inc.  The licensee
 of this program is prohibited from giving any competitor of
 Gaussian, Inc. access to this program.  By using this program,
 the user acknowledges that Gaussian, Inc. is engaged in the
 business of creating and licensing software in the field of
 computational chemistry and represents and warrants to the
 licensee that it is not a competitor of Gaussian, Inc. and that
 it will not use this program in any manner prohibited above.
 ---------------------------------------------------------------
  

 Cite this work as:
 Gaussian 09, Revision D.01,
 M. J. Frisch, G. W. Trucks, H. B. Schlegel, G. E. Scuseria, 
 M. A. Robb, J. R. Cheeseman, G. Scalmani, V. Barone, B. Mennucci, 
 G. A. Petersson, H. Nakatsuji, M. Caricato, X. Li, H. P. Hratchian, 
 A. F. Izmaylov, J. Bloino, G. Zheng, J. L. Sonnenberg, M. Hada, 
 M. Ehara, K. Toyota, R. Fukuda, J. Hasegawa, M. Ishida, T. Nakajima, 
 Y. Honda, O. Kitao, H. Nakai, T. Vreven, J. A. Montgomery, Jr., 
 J. E. Peralta, F. Ogliaro, M. Bearpark, J. J. Heyd, E. Brothers, 
 K. N. Kudin, V. N. Staroverov, T. Keith, R. Kobayashi, J. Normand, 
 K. Raghavachari, A. Rendell, J. C. Burant, S. S. Iyengar, J. Tomasi, 
 M. Cossi, N. Rega, J. M. Millam, M. Klene, J. E. Knox, J. B. Cross, 
 V. Bakken, C. Adamo, J. Jaramillo, R. Gomperts, R. E. Stratmann, 
 O. Yazyev, A. J. Austin, R. Cammi, C. Pomelli, J. W. Ochterski, 
 R. L. Martin, K. Morokuma, V. G. Zakrzewski, G. A. Voth, 
 P. Salvador, J. J. Dannenberg, S. Dapprich, A. D. Daniels, 
 O. Farkas, J. B. Foresman, J. V. Ortiz, J. Cioslowski, 
 and D. J. Fox, Gaussian, Inc., Wallingford CT, 2013.
 
 ******************************************
 Gaussian 09:  ES64L-G09RevD.01 24-Apr-2013
                 7-Jan-2017 
 ******************************************
 %nprocshared=12
 Will use up to   12 processors via shared memory.
 %chk=glo_1w_Alpha_ts_chair2_B3LYP_6-31Gd.chk
 ----------------------------------------------------------------------
 # opt=(calcfc,ts,noeigentest,maxcycle=1000,cartesian) freq B3LYP/6-31G
 (d)
 ----------------------------------------------------------------------
 1/5=1,6=1000,10=4,11=1,14=-1,18=10,26=3,38=1/1,3;
 2/12=2,17=6,18=5,29=2,40=1/2;
 3/5=1,6=6,7=1,11=2,16=1,25=1,30=1,71=2,74=-5,140=1/1,2,3;
 4//1;
 5/5=2,38=5/2;
 8/6=4,10=90,11=11/1;
 11/6=1,8=1,9=11,15=111,16=1/1,2,10;
 10/6=1,13=1/2;
 6/7=2,8=2,9=2,10=2,28=1/1;
 7/7=1,10=1,18=20,25=1/1,2,3,16;
 1/5=1,6=1000,10=4,11=1,14=-1,18=10,26=3/3(2);
 2/29=1/2;
 99/12=1/99;
 2/29=1/2;
 3/5=1,6=6,7=1,11=2,16=1,25=1,30=1,71=1,74=-5/1,2,3;
 4/5=5,16=3,69=1/1;
 5/5=2,38=5/2;
 7/7=1/1,2,3,16;
 1/5=1,6=1000,11=1,14=-1,18=10,26=3/3(-5);
 2/29=1/2;
 6/7=2,8=2,9=2,10=2,19=2,28=1/1;
 99/9=1,12=1/99;
 ------------------------
 Glo_A_ch2_GS_b3lyp_631Gd
 ------------------------
 Symbolic Z-matrix:
 Charge =  0 Multiplicity = 1
 6                    0    -1.3362    0.12695  -0.94026 
 8                    0    -1.0762    0.78128   0.55798 
 6                    0    -1.00335  -1.35095  -0.77109 
 6                    0     0.3903   -1.58586  -0.16797 
 6                    0     0.59443  -0.85112   1.16915 
 6                    0     0.24125   0.64712   1.1508 
 1                    0    -1.01782  -1.7855   -1.78705 
 1                    0     1.6407   -0.93604   1.47473 
 1                    0     0.11252   0.91874   2.20381 
 1                    0     0.51366  -2.65434   0.04662 
 8                    0    -2.0017   -1.95354   0.03613 
 8                    0     1.37312  -1.17081  -1.14062 
 8                    0    -0.18045  -1.52333   2.15392 
 1                    0     1.3912   -1.84944  -1.83119 
 1                    0    -2.79964  -1.4151   -0.15625 
 1                    0    -1.07316  -1.6401    1.77192 
 6                    0     1.25562   1.62173   0.50754 
 8                    0     2.58565   1.37213   0.93639 
 1                    0     0.97839   2.64278   0.83218 
 1                    0     1.16353   1.59512  -0.59252 
 1                    0     3.05547   0.89153   0.2172 
 1                    0    -0.5901    0.66501  -1.54151 
 8                    0    -2.5976    0.35448  -1.19136 
 1                    0    -2.69104   1.66923  -0.86306 
 1                    0    -1.62256   1.82091   0.38211 
 8                    0    -2.35624   2.57589  -0.30711 
 1                    0    -3.13395   2.95586   0.1757 
 8                    0     3.77818   0.19425  -1.3364 
 1                    0     4.10567   0.64101  -2.12246 
 1                    0     2.91694  -0.20982  -1.57077 
 

 GradGradGradGradGradGradGradGradGradGradGradGradGradGradGradGradGradGrad
 Berny optimization.
 Initialization pass.
 No Z-matrix variables, so optimization will use Cartesian coordinates.
 Trust Radius=3.00D-01 FncErr=1.00D-07 GrdErr=1.00D-06
 Number of steps in this run=    180 maximum allowed number of steps=    180.
 Search for a saddle point of order  1.
 GradGradGradGradGradGradGradGradGradGradGradGradGradGradGradGradGradGrad

 ---------------------------------------------------------------------------------------------------
                            Z-MATRIX (ANGSTROMS AND DEGREES)
   CD    Cent   Atom    N1       Length/X        N2       Alpha/Y        N3        Beta/Z          J
 ---------------------------------------------------------------------------------------------------
      1      1  C        0  -1.336203          0.126954         -0.940255
      2      2  O        0  -1.076203          0.781283          0.557983
      3      3  C        0  -1.003352         -1.350947         -0.771085
      4      4  C        0   0.390300         -1.585856         -0.167965
      5      5  C        0   0.594431         -0.851115          1.169152
      6      6  C        0   0.241247          0.647121          1.150797
      7      7  H        0  -1.017822         -1.785498         -1.787045
      8      8  H        0   1.640699         -0.936044          1.474733
      9      9  H        0   0.112521          0.918744          2.203811
     10     10  H        0   0.513655         -2.654340          0.046624
     11     11  O        0  -2.001704         -1.953535          0.036130
     12     12  O        0   1.373117         -1.170814         -1.140623
     13     13  O        0  -0.180448         -1.523327          2.153919
     14     14  H        0   1.391198         -1.849444         -1.831193
     15     15  H        0  -2.799636         -1.415104         -0.156248
     16     16  H        0  -1.073160         -1.640101          1.771917
     17     17  C        0   1.255618          1.621730          0.507539
     18     18  O        0   2.585647          1.372125          0.936391
     19     19  H        0   0.978387          2.642780          0.832183
     20     20  H        0   1.163532          1.595120         -0.592524
     21     21  H        0   3.055474          0.891533          0.217199
     22     22  H        0  -0.590104          0.665012         -1.541506
     23     23  O        0  -2.597603          0.354482         -1.191361
     24     24  H        0  -2.691038          1.669226         -0.863059
     25     25  H        0  -1.622561          1.820908          0.382112
     26     26  O        0  -2.356242          2.575890         -0.307112
     27     27  H        0  -3.133949          2.955860          0.175698
     28     28  O        0   3.778180          0.194250         -1.336399
     29     29  H        0   4.105666          0.641011         -2.122463
     30     30  H        0   2.916943         -0.209821         -1.570768
 ---------------------------------------------------------------------------------------------------
                         Z-Matrix orientation:                         
 ---------------------------------------------------------------------
 Center     Atomic      Atomic             Coordinates (Angstroms)
 Number     Number       Type             X           Y           Z
 ---------------------------------------------------------------------
      1          6           0       -1.336203    0.126954   -0.940255
      2          8           0       -1.076203    0.781283    0.557983
      3          6           0       -1.003352   -1.350947   -0.771085
      4          6           0        0.390300   -1.585856   -0.167965
      5          6           0        0.594431   -0.851115    1.169152
      6          6           0        0.241247    0.647121    1.150797
      7          1           0       -1.017822   -1.785498   -1.787045
      8          1           0        1.640699   -0.936044    1.474733
      9          1           0        0.112521    0.918744    2.203811
     10          1           0        0.513655   -2.654340    0.046624
     11          8           0       -2.001704   -1.953535    0.036130
     12          8           0        1.373117   -1.170814   -1.140623
     13          8           0       -0.180448   -1.523327    2.153919
     14          1           0        1.391198   -1.849444   -1.831193
     15          1           0       -2.799636   -1.415104   -0.156248
     16          1           0       -1.073160   -1.640101    1.771917
     17          6           0        1.255618    1.621730    0.507539
     18          8           0        2.585647    1.372125    0.936391
     19          1           0        0.978387    2.642780    0.832183
     20          1           0        1.163532    1.595120   -0.592524
     21          1           0        3.055474    0.891533    0.217199
     22          1           0       -0.590104    0.665012   -1.541506
     23          8           0       -2.597603    0.354482   -1.191361
     24          1           0       -2.691038    1.669226   -0.863059
     25          1           0       -1.622561    1.820908    0.382112
     26          8           0       -2.356242    2.575890   -0.307112
     27          1           0       -3.133949    2.955860    0.175698
     28          8           0        3.778180    0.194250   -1.336399
     29          1           0        4.105666    0.641011   -2.122463
     30          1           0        2.916943   -0.209821   -1.570768
 ---------------------------------------------------------------------
                    Distance matrix (angstroms):
                    1          2          3          4          5
     1  C    0.000000
     2  O    1.655435   0.000000
     3  C    1.524336   2.513590   0.000000
     4  C    2.551659   2.877669   1.536620   0.000000
     5  C    3.022179   2.414388   2.562667   1.539284   0.000000
     6  C    2.670472   1.450897   3.038903   2.597602   1.539411
     7  H    2.115631   3.477201   1.105088   2.155014   3.494500
     8  H    3.977949   3.342334   3.493830   2.164304   1.093284
     9  H    3.551181   2.034873   3.904699   3.460564   2.105981
    10  H    3.483030   3.820032   2.160739   1.096778   2.125609
    11  O    2.392625   2.933958   1.418244   2.428688   3.039570
    12  O    3.010775   3.563020   2.411765   1.443694   2.458377
    13  O    3.692304   2.942892   3.043441   2.391821   1.421996
    14  H    3.484055   4.326310   2.665745   1.958980   3.260915
    15  H    2.265887   2.881747   1.899678   3.194524   3.687067
    16  H    3.247699   2.708643   2.560340   2.430597   1.940795
    17  C    3.323853   2.479170   3.946471   3.390234   2.643835
    18  O    4.522517   3.728462   4.817832   3.845621   2.993646
    19  H    3.850746   2.785982   4.737891   4.384918   3.531044
    20  H    2.919778   2.646207   3.661500   3.301022   3.067808
    21  H    4.605552   4.147173   4.741254   3.659093   3.162241
    22  H    1.098942   2.158162   2.197365   2.813221   3.324068
    23  O    1.306121   2.357334   2.372078   3.706726   4.149044
    24  H    2.054298   2.327122   3.460952   4.535786   4.612625
    25  H    2.167980   1.187543   3.431319   3.995026   3.560083
    26  O    2.727387   2.368017   4.179190   4.988285   4.757120
    27  H    3.532697   3.018153   4.897390   5.758960   5.420408
    28  O    5.130143   5.243885   5.056705   4.001468   4.184117
    29  H    5.592478   5.835772   5.647671   4.752151   5.038843
    30  H    4.312797   4.632395   4.160574   3.200821   3.648627
                    6          7          8          9         10
     6  C    0.000000
     7  H    4.016691   0.000000
     8  H    2.137712   4.292843   0.000000
     9  H    1.095074   4.951518   2.511398   0.000000
    10  H    3.491855   2.542174   2.502452   4.193005   0.000000
    11  O    3.610640   2.078516   4.046229   4.173581   2.611181
    12  O    3.136339   2.551918   2.639470   4.140120   2.085445
    13  O    2.427947   4.037465   2.030461   2.460088   2.490314
    14  H    4.055550   2.410273   3.438851   5.057582   2.223541
    15  H    3.899757   2.443676   4.754595   4.415584   3.543270
    16  H    2.710137   3.562361   2.819405   2.853079   2.554075
    17  C    1.546801   4.694981   2.761514   2.162914   4.364370
    18  O    2.463293   5.511141   2.551545   2.815717   4.614895
    19  H    2.151173   5.518591   3.695877   2.367148   5.375180
    20  H    2.188260   4.196875   3.302731   3.062939   4.346120
    21  H    2.975099   5.270221   2.631163   3.550822   4.366137
    22  H    2.817793   2.499646   4.078917   3.819092   3.841684
    23  O    3.691939   2.725814   5.170756   4.380680   4.501727
    24  H    3.701163   3.948230   5.569259   4.222423   5.458095
    25  H    2.332902   4.251719   4.409475   2.672639   4.970293
    26  O    3.548605   4.796173   5.611077   3.891742   5.976349
    27  H    4.203932   5.550750   6.295369   4.336202   6.692983
    28  O    4.347543   5.208082   3.707945   5.147333   4.548004
    29  H    5.064386   5.678959   4.637131   5.893979   5.335431
    30  H    3.911600   4.244044   3.381017   4.835896   3.790438
                   11         12         13         14         15
    11  O    0.000000
    12  O    3.658800   0.000000
    13  O    2.826143   3.659486   0.000000
    14  H    3.874211   0.968376   4.296224   0.000000
    15  H    0.981638   4.294245   3.494099   4.534003   0.000000
    16  H    1.993337   3.832413   0.978006   4.370273   2.597915
    17  C    4.859516   3.244772   3.829391   4.187732   5.109605
    18  O    5.737096   3.500108   4.185367   4.411886   6.161475
    19  H    5.535409   4.311760   4.521762   5.238708   5.631774
    20  H    4.796548   2.827495   4.367373   3.667581   4.995847
    21  H    5.805364   2.987856   4.478127   3.805086   6.304153
    22  H    3.367245   2.717573   4.314257   3.214337   3.335844
    23  O    2.681189   4.253906   4.534281   4.601870   2.060027
    24  H    3.795803   4.965906   5.059408   5.475671   3.166144
    25  H    3.809183   4.499245   4.050049   5.239556   3.485271
    26  O    4.556227   5.351696   5.253031   5.995808   4.018382
    27  H    5.040200   6.251063   5.718360   6.898950   4.396280
    28  O    6.316951   2.772374   5.550056   3.181067   6.873896
    29  H    6.977905   3.422505   6.429819   3.695340   7.468387
    30  H    5.460380   1.868671   5.019205   2.254791   6.011061
                   16         17         18         19         20
    16  H    0.000000
    17  C    4.202547   0.000000
    18  O    4.812326   1.419575   0.000000
    19  H    4.840972   1.106704   2.051514   0.000000
    20  H    4.589121   1.104231   2.099933   1.778106   0.000000
    21  H    5.086446   1.963916   0.984349   2.785563   2.174886
    22  H    4.065177   2.919004   4.089667   3.464986   2.200206
    23  O    3.883723   4.397669   5.694647   4.703057   4.005487
    24  H    4.529048   4.178144   5.582983   4.157684   3.864763
    25  H    3.769878   2.887788   4.268213   2.764592   2.960272
    26  O    4.872704   3.823560   5.236183   3.524517   3.664994
    27  H    5.283713   4.599817   5.983364   4.176158   4.572759
    28  O    6.046650   3.435277   2.824022   4.305449   3.058132
    29  H    6.869491   4.000187   3.493075   4.745196   3.450680
    30  H    5.398163   3.230161   2.982978   4.203511   2.699856
                   21         22         23         24         25
    21  H    0.000000
    22  H    4.053960   0.000000
    23  O    5.850619   2.061330   0.000000
    24  H    5.898658   2.425420   1.358331   0.000000
    25  H    4.772310   2.470297   2.361552   1.647756   0.000000
    26  O    5.691979   2.880005   2.403082   1.114991   1.258299
    27  H    6.524732   3.829872   2.987254   1.711903   1.901320
    28  O    1.849912   4.398362   6.379445   6.652096   5.896380
    29  H    2.576758   4.731632   6.773689   6.988455   6.362204
    30  H    2.104518   3.614632   5.556312   5.956603   5.342724
                   26         27         28         29         30
    26  O    0.000000
    27  H    0.991116   0.000000
    28  O    6.660539   7.595423   0.000000
    29  H    6.985378   7.940535   0.961634   0.000000
    30  H    6.096187   7.048757   0.979761   1.562480   0.000000
 Stoichiometry    C6H16O8
 Framework group  C1[X(C6H16O8)]
 Deg. of freedom    84
 Full point group                 C1      NOp   1
 Largest Abelian subgroup         C1      NOp   1
 Largest concise Abelian subgroup C1      NOp   1
                         Standard orientation:                         
 ---------------------------------------------------------------------
 Center     Atomic      Atomic             Coordinates (Angstroms)
 Number     Number       Type             X           Y           Z
 ---------------------------------------------------------------------
      1          6           0       -1.336203    0.126954   -0.940255
      2          8           0       -1.076203    0.781283    0.557983
      3          6           0       -1.003352   -1.350947   -0.771085
      4          6           0        0.390300   -1.585856   -0.167965
      5          6           0        0.594431   -0.851115    1.169152
      6          6           0        0.241247    0.647121    1.150797
      7          1           0       -1.017822   -1.785498   -1.787045
      8          1           0        1.640699   -0.936044    1.474733
      9          1           0        0.112521    0.918744    2.203811
     10          1           0        0.513655   -2.654340    0.046624
     11          8           0       -2.001704   -1.953535    0.036130
     12          8           0        1.373117   -1.170814   -1.140623
     13          8           0       -0.180448   -1.523327    2.153919
     14          1           0        1.391198   -1.849444   -1.831193
     15          1           0       -2.799636   -1.415104   -0.156248
     16          1           0       -1.073160   -1.640101    1.771917
     17          6           0        1.255618    1.621730    0.507539
     18          8           0        2.585647    1.372125    0.936391
     19          1           0        0.978387    2.642780    0.832183
     20          1           0        1.163532    1.595120   -0.592524
     21          1           0        3.055474    0.891533    0.217199
     22          1           0       -0.590104    0.665012   -1.541506
     23          8           0       -2.597603    0.354482   -1.191361
     24          1           0       -2.691038    1.669226   -0.863059
     25          1           0       -1.622561    1.820908    0.382112
     26          8           0       -2.356242    2.575890   -0.307112
     27          1           0       -3.133949    2.955860    0.175698
     28          8           0        3.778180    0.194250   -1.336399
     29          1           0        4.105666    0.641011   -2.122463
     30          1           0        2.916943   -0.209821   -1.570768
 ---------------------------------------------------------------------
 Rotational constants (GHZ):      0.7645877      0.4927897      0.4247109
 Standard basis: 6-31G(d) (6D, 7F)
 There are   242 symmetry adapted cartesian basis functions of A   symmetry.
 There are   242 symmetry adapted basis functions of A   symmetry.
   242 basis functions,   456 primitive gaussians,   242 cartesian basis functions
    58 alpha electrons       58 beta electrons
       nuclear repulsion energy      1125.8069267673 Hartrees.
 NAtoms=   30 NActive=   30 NUniq=   30 SFac= 1.00D+00 NAtFMM=   60 NAOKFM=F Big=F
 Integral buffers will be    131072 words long.
 Raffenetti 2 integral format.
 Two-electron integral symmetry is turned on.
 One-electron integrals computed using PRISM.
 NBasis=   242 RedAO= T EigKep=  1.95D-03  NBF=   242
 NBsUse=   242 1.00D-06 EigRej= -1.00D+00 NBFU=   242
 ExpMin= 1.61D-01 ExpMax= 5.48D+03 ExpMxC= 8.25D+02 IAcc=1 IRadAn=         1 AccDes= 0.00D+00
 Harris functional with IExCor=  402 and IRadAn=       1 diagonalized for initial guess.
 HarFok:  IExCor=  402 AccDes= 0.00D+00 IRadAn=         1 IDoV= 1 UseB2=F ITyADJ=14
 ICtDFT=  3500011 ScaDFX=  1.000000  1.000000  1.000000  1.000000
 FoFCou: FMM=F IPFlag=           0 FMFlag=      100000 FMFlg1=           0
         NFxFlg=           0 DoJE=T BraDBF=F KetDBF=T FulRan=T
         wScrn=  0.000000 ICntrl=     500 IOpCl=  0 I1Cent=   200000004 NGrid=           0
         NMat0=    1 NMatS0=      1 NMatT0=    0 NMatD0=    1 NMtDS0=    0 NMtDT0=    0
 Petite list used in FoFCou.
 Requested convergence on RMS density matrix=1.00D-08 within 128 cycles.
 Requested convergence on MAX density matrix=1.00D-06.
 Requested convergence on             energy=1.00D-06.
 No special actions if energy rises.
 Integral accuracy reduced to 1.0D-05 until final iterations.
 Initial convergence to 1.0D-05 achieved.  Increase integral accuracy.
 SCF Done:  E(RB3LYP) =  -839.953191879     A.U. after   14 cycles
            NFock= 14  Conv=0.77D-08     -V/T= 2.0087
 DoSCS=F DFT=T ScalE2(SS,OS)=  1.000000  1.000000
 Range of M.O.s used for correlation:     1   242
 NBasis=   242 NAE=    58 NBE=    58 NFC=     0 NFV=     0
 NROrb=    242 NOA=    58 NOB=    58 NVA=   184 NVB=   184
 Symmetrizing basis deriv contribution to polar:
 IMax=3 JMax=2 DiffMx= 0.00D+00
 G2DrvN: will do    31 centers at a time, making    1 passes.
 Calling FoFCou, ICntrl=  3107 FMM=F I1Cent=   0 AccDes= 0.00D+00.
 End of G2Drv F.D. properties file   721 does not exist.
 End of G2Drv F.D. properties file   722 does not exist.
 End of G2Drv F.D. properties file   788 does not exist.
          IDoAtm=111111111111111111111111111111
          Differentiating once with respect to nuclear coordinates.
          There are    93 degrees of freedom in the 1st order CPHF.  IDoFFX=6 NUNeed=     0.
     87 vectors produced by pass  0 Test12= 1.15D-14 1.08D-09 XBig12= 1.49D-01 5.96D-02.
 AX will form    87 AO Fock derivatives at one time.
     87 vectors produced by pass  1 Test12= 1.15D-14 1.08D-09 XBig12= 3.86D-02 3.49D-02.
     87 vectors produced by pass  2 Test12= 1.15D-14 1.08D-09 XBig12= 4.09D-04 2.18D-03.
     87 vectors produced by pass  3 Test12= 1.15D-14 1.08D-09 XBig12= 1.06D-06 9.27D-05.
     87 vectors produced by pass  4 Test12= 1.15D-14 1.08D-09 XBig12= 1.46D-09 4.42D-06.
     70 vectors produced by pass  5 Test12= 1.15D-14 1.08D-09 XBig12= 1.28D-12 1.15D-07.
      1 vectors produced by pass  6 Test12= 1.15D-14 1.08D-09 XBig12= 1.09D-15 2.85D-09.
 InvSVY:  IOpt=1 It=  1 EMax= 6.66D-16
 Solved reduced A of dimension   506 with    93 vectors.
 End of Minotr F.D. properties file   721 does not exist.
 End of Minotr F.D. properties file   722 does not exist.
 End of Minotr F.D. properties file   788 does not exist.

 **********************************************************************

            Population analysis using the SCF density.

 **********************************************************************

 Orbital symmetries:
       Occupied  (A) (A) (A) (A) (A) (A) (A) (A) (A) (A) (A) (A)
                 (A) (A) (A) (A) (A) (A) (A) (A) (A) (A) (A) (A)
                 (A) (A) (A) (A) (A) (A) (A) (A) (A) (A) (A) (A)
                 (A) (A) (A) (A) (A) (A) (A) (A) (A) (A) (A) (A)
                 (A) (A) (A) (A) (A) (A) (A) (A) (A) (A)
       Virtual   (A) (A) (A) (A) (A) (A) (A) (A) (A) (A) (A) (A)
                 (A) (A) (A) (A) (A) (A) (A) (A) (A) (A) (A) (A)
                 (A) (A) (A) (A) (A) (A) (A) (A) (A) (A) (A) (A)
                 (A) (A) (A) (A) (A) (A) (A) (A) (A) (A) (A) (A)
                 (A) (A) (A) (A) (A) (A) (A) (A) (A) (A) (A) (A)
                 (A) (A) (A) (A) (A) (A) (A) (A) (A) (A) (A) (A)
                 (A) (A) (A) (A) (A) (A) (A) (A) (A) (A) (A) (A)
                 (A) (A) (A) (A) (A) (A) (A) (A) (A) (A) (A) (A)
                 (A) (A) (A) (A) (A) (A) (A) (A) (A) (A) (A) (A)
                 (A) (A) (A) (A) (A) (A) (A) (A) (A) (A) (A) (A)
                 (A) (A) (A) (A) (A) (A) (A) (A) (A) (A) (A) (A)
                 (A) (A) (A) (A) (A) (A) (A) (A) (A) (A) (A) (A)
                 (A) (A) (A) (A) (A) (A) (A) (A) (A) (A) (A) (A)
                 (A) (A) (A) (A) (A) (A) (A) (A) (A) (A) (A) (A)
                 (A) (A) (A) (A) (A) (A) (A) (A) (A) (A) (A) (A)
                 (A) (A) (A) (A)
 The electronic state is 1-A.
 Alpha  occ. eigenvalues --  -19.18987 -19.18873 -19.17553 -19.16053 -19.15570
 Alpha  occ. eigenvalues --  -19.13286 -19.12417 -19.11470 -10.29139 -10.25891
 Alpha  occ. eigenvalues --  -10.25062 -10.24393 -10.24010 -10.23195  -1.07590
 Alpha  occ. eigenvalues --   -1.05764  -1.03596  -1.01827  -1.01539  -1.00539
 Alpha  occ. eigenvalues --   -0.99454  -0.98452  -0.78399  -0.75442  -0.69291
 Alpha  occ. eigenvalues --   -0.64926  -0.62718  -0.58644  -0.55629  -0.55174
 Alpha  occ. eigenvalues --   -0.54430  -0.52737  -0.51350  -0.50592  -0.49409
 Alpha  occ. eigenvalues --   -0.47702  -0.47174  -0.46614  -0.44398  -0.43018
 Alpha  occ. eigenvalues --   -0.41441  -0.41229  -0.40021  -0.39410  -0.38264
 Alpha  occ. eigenvalues --   -0.36770  -0.35817  -0.34254  -0.33231  -0.32466
 Alpha  occ. eigenvalues --   -0.32276  -0.31711  -0.30267  -0.28501  -0.27426
 Alpha  occ. eigenvalues --   -0.26494  -0.25662  -0.24552
 Alpha virt. eigenvalues --    0.02338   0.04767   0.05736   0.07449   0.08772
 Alpha virt. eigenvalues --    0.10676   0.10923   0.12155   0.12791   0.14458
 Alpha virt. eigenvalues --    0.15639   0.15968   0.17830   0.18338   0.19631
 Alpha virt. eigenvalues --    0.20336   0.21271   0.23329   0.23650   0.24335
 Alpha virt. eigenvalues --    0.24637   0.25006   0.27106   0.27559   0.28779
 Alpha virt. eigenvalues --    0.30348   0.31446   0.34459   0.50644   0.52743
 Alpha virt. eigenvalues --    0.53196   0.55842   0.57021   0.57719   0.58512
 Alpha virt. eigenvalues --    0.59415   0.60984   0.62945   0.63961   0.64717
 Alpha virt. eigenvalues --    0.65970   0.68864   0.69185   0.72218   0.73539
 Alpha virt. eigenvalues --    0.76549   0.76992   0.78074   0.78627   0.79999
 Alpha virt. eigenvalues --    0.82194   0.82598   0.83440   0.84132   0.85624
 Alpha virt. eigenvalues --    0.86314   0.86964   0.88152   0.88701   0.89550
 Alpha virt. eigenvalues --    0.90013   0.91351   0.92003   0.92593   0.94813
 Alpha virt. eigenvalues --    0.96244   0.98481   1.01072   1.02107   1.03399
 Alpha virt. eigenvalues --    1.04753   1.06063   1.06971   1.08357   1.10883
 Alpha virt. eigenvalues --    1.11465   1.13219   1.13877   1.14455   1.15802
 Alpha virt. eigenvalues --    1.16817   1.21236   1.21781   1.23828   1.26835
 Alpha virt. eigenvalues --    1.28544   1.29790   1.33296   1.33474   1.37264
 Alpha virt. eigenvalues --    1.40313   1.42015   1.42943   1.45892   1.50003
 Alpha virt. eigenvalues --    1.52561   1.55417   1.56426   1.57520   1.59108
 Alpha virt. eigenvalues --    1.62225   1.63336   1.64232   1.66948   1.69092
 Alpha virt. eigenvalues --    1.69988   1.70106   1.71261   1.72304   1.73188
 Alpha virt. eigenvalues --    1.73899   1.75528   1.77489   1.77863   1.79851
 Alpha virt. eigenvalues --    1.82000   1.82617   1.84109   1.85207   1.87345
 Alpha virt. eigenvalues --    1.88648   1.90734   1.92782   1.93985   1.95656
 Alpha virt. eigenvalues --    1.97357   1.99665   2.02758   2.05058   2.06683
 Alpha virt. eigenvalues --    2.08388   2.09107   2.12424   2.15526   2.16608
 Alpha virt. eigenvalues --    2.18373   2.18782   2.21562   2.22478   2.28569
 Alpha virt. eigenvalues --    2.29912   2.32655   2.34850   2.36071   2.37402
 Alpha virt. eigenvalues --    2.41267   2.42579   2.44309   2.47508   2.48090
 Alpha virt. eigenvalues --    2.50492   2.51991   2.54709   2.55924   2.57967
 Alpha virt. eigenvalues --    2.59849   2.63284   2.65639   2.69567   2.72968
 Alpha virt. eigenvalues --    2.75636   2.78356   2.80748   2.86377   2.90451
 Alpha virt. eigenvalues --    2.91800   2.94175   2.98708   3.01620   3.08459
 Alpha virt. eigenvalues --    3.70899   3.73513   3.74645   3.88910   3.90770
 Alpha virt. eigenvalues --    3.97377   4.03869   4.09102   4.29120   4.34174
 Alpha virt. eigenvalues --    4.46282   4.60347   4.69105   4.75178
          Condensed to atoms (all electrons):
               1          2          3          4          5          6
     1  C    4.787503   0.072976   0.277115  -0.022447  -0.020551  -0.001874
     2  O    0.072976   8.610734  -0.016058  -0.004423  -0.035085   0.130317
     3  C    0.277115  -0.016058   5.093305   0.286383  -0.021071  -0.023910
     4  C   -0.022447  -0.004423   0.286383   5.055088   0.309695  -0.020587
     5  C   -0.020551  -0.035085  -0.021071   0.309695   4.880759   0.314459
     6  C   -0.001874   0.130317  -0.023910  -0.020587   0.314459   5.099162
     7  H   -0.048307   0.002766   0.354744  -0.057729   0.005117   0.000000
     8  H    0.000148   0.003241   0.005006  -0.040480   0.366186  -0.054428
     9  H    0.001580  -0.033775  -0.000047   0.006320  -0.045489   0.366441
    10  H    0.005906  -0.000096  -0.055395   0.370952  -0.047759   0.006015
    11  O   -0.020269  -0.002117   0.205380  -0.041402   0.005513  -0.000743
    12  O    0.001217  -0.000184  -0.044065   0.159006  -0.028858   0.000726
    13  O   -0.000772   0.000739   0.002162  -0.038642   0.256167  -0.046691
    14  H   -0.000775  -0.000014  -0.001495  -0.014762   0.005333  -0.000132
    15  H   -0.011473   0.001060  -0.047656   0.005971  -0.000029  -0.000013
    16  H    0.000130   0.004360  -0.002871  -0.013120  -0.026115  -0.005476
    17  C   -0.004074  -0.023087   0.000679  -0.002434  -0.030644   0.273257
    18  O    0.000095   0.001289  -0.000003  -0.000635  -0.001554  -0.053884
    19  H    0.000151   0.004076  -0.000011  -0.000218   0.004919  -0.050511
    20  H    0.000393   0.000765  -0.000650   0.001916  -0.006827  -0.044569
    21  H   -0.000001  -0.000027   0.000011  -0.000400   0.001665  -0.000628
    22  H    0.350290  -0.052360  -0.075933  -0.005695   0.000748   0.004126
    23  O    0.323709  -0.056811  -0.048502   0.002674   0.000139   0.002074
    24  H   -0.029931   0.008174   0.003943  -0.000106  -0.000007  -0.000050
    25  H   -0.013792   0.113051   0.001695  -0.000166   0.002040  -0.004715
    26  O    0.014749  -0.093661  -0.000646   0.000023  -0.000107   0.002561
    27  H   -0.000438   0.003514   0.000000  -0.000001   0.000006  -0.000031
    28  O   -0.000001   0.000000  -0.000006   0.000422  -0.000025   0.000003
    29  H    0.000000   0.000000   0.000001  -0.000011   0.000005  -0.000004
    30  H    0.000022  -0.000004   0.000189  -0.001783  -0.000206  -0.000298
               7          8          9         10         11         12
     1  C   -0.048307   0.000148   0.001580   0.005906  -0.020269   0.001217
     2  O    0.002766   0.003241  -0.033775  -0.000096  -0.002117  -0.000184
     3  C    0.354744   0.005006  -0.000047  -0.055395   0.205380  -0.044065
     4  C   -0.057729  -0.040480   0.006320   0.370952  -0.041402   0.159006
     5  C    0.005117   0.366186  -0.045489  -0.047759   0.005513  -0.028858
     6  C    0.000000  -0.054428   0.366441   0.006015  -0.000743   0.000726
     7  H    0.646721  -0.000139   0.000022  -0.005753  -0.034477   0.001202
     8  H   -0.000139   0.566123  -0.000565  -0.006214  -0.000118   0.002549
     9  H    0.000022  -0.000565   0.579283  -0.000197   0.000025  -0.000084
    10  H   -0.005753  -0.006214  -0.000197   0.595498   0.003907  -0.027135
    11  O   -0.034477  -0.000118   0.000025   0.003907   8.294636   0.001451
    12  O    0.001202   0.002549  -0.000084  -0.027135   0.001451   8.322318
    13  O   -0.000244  -0.033547   0.003550   0.006698  -0.015294   0.001364
    14  H    0.005910  -0.000238   0.000008  -0.007751  -0.000034   0.225576
    15  H    0.001336   0.000016  -0.000010  -0.000519   0.221228  -0.000104
    16  H    0.000857   0.005382  -0.000196  -0.001136   0.046810   0.000057
    17  C   -0.000001  -0.002154  -0.040480  -0.000091   0.000001   0.001435
    18  O    0.000000   0.017236   0.003630  -0.000005   0.000000  -0.000305
    19  H   -0.000001   0.000259  -0.009648   0.000006   0.000000   0.000079
    20  H    0.000035   0.000668   0.005862  -0.000022   0.000000   0.000993
    21  H    0.000000   0.000435  -0.000297   0.000006   0.000000   0.001176
    22  H    0.003857  -0.000026  -0.000232  -0.000130   0.003507   0.008271
    23  O   -0.001491   0.000001  -0.000111  -0.000060  -0.017529   0.000030
    24  H   -0.000151  -0.000001  -0.000029   0.000004   0.000044   0.000002
    25  H   -0.000104  -0.000028  -0.002649   0.000009   0.000008  -0.000010
    26  O    0.000010   0.000001   0.000110   0.000000  -0.000009   0.000000
    27  H    0.000000   0.000000  -0.000001   0.000000   0.000003   0.000000
    28  O    0.000001   0.000023   0.000000  -0.000024   0.000000  -0.015899
    29  H    0.000000   0.000000   0.000000   0.000000   0.000000   0.000403
    30  H   -0.000034   0.000150  -0.000003   0.000258  -0.000001   0.042641
              13         14         15         16         17         18
     1  C   -0.000772  -0.000775  -0.011473   0.000130  -0.004074   0.000095
     2  O    0.000739  -0.000014   0.001060   0.004360  -0.023087   0.001289
     3  C    0.002162  -0.001495  -0.047656  -0.002871   0.000679  -0.000003
     4  C   -0.038642  -0.014762   0.005971  -0.013120  -0.002434  -0.000635
     5  C    0.256167   0.005333  -0.000029  -0.026115  -0.030644  -0.001554
     6  C   -0.046691  -0.000132  -0.000013  -0.005476   0.273257  -0.053884
     7  H   -0.000244   0.005910   0.001336   0.000857  -0.000001   0.000000
     8  H   -0.033547  -0.000238   0.000016   0.005382  -0.002154   0.017236
     9  H    0.003550   0.000008  -0.000010  -0.000196  -0.040480   0.003630
    10  H    0.006698  -0.007751  -0.000519  -0.001136  -0.000091  -0.000005
    11  O   -0.015294  -0.000034   0.221228   0.046810   0.000001   0.000000
    12  O    0.001364   0.225576  -0.000104   0.000057   0.001435  -0.000305
    13  O    8.285756  -0.000126   0.000451   0.224312   0.003308   0.000065
    14  H   -0.000126   0.380156   0.000002   0.000011  -0.000023   0.000020
    15  H    0.000451   0.000002   0.360803  -0.000540   0.000002   0.000000
    16  H    0.224312   0.000011  -0.000540   0.348326   0.000052  -0.000005
    17  C    0.003308  -0.000023   0.000002   0.000052   4.930053   0.256333
    18  O    0.000065   0.000020   0.000000  -0.000005   0.256333   8.295323
    19  H   -0.000060  -0.000003   0.000000  -0.000002   0.368060  -0.038736
    20  H   -0.000039   0.000063   0.000001   0.000002   0.348819  -0.026903
    21  H   -0.000001  -0.000054   0.000000   0.000000  -0.022550   0.215622
    22  H   -0.000019   0.000234   0.002492   0.000085   0.000712  -0.000091
    23  O    0.000009  -0.000011   0.050950  -0.000002   0.000038   0.000000
    24  H    0.000001   0.000000  -0.000812  -0.000008   0.000000   0.000000
    25  H   -0.000063   0.000000  -0.000098  -0.000030  -0.000191  -0.000002
    26  O    0.000000   0.000000   0.000194   0.000003   0.000093   0.000000
    27  H    0.000000   0.000000  -0.000027  -0.000001  -0.000027   0.000000
    28  O    0.000000   0.001356   0.000000   0.000000  -0.000067  -0.018287
    29  H    0.000000  -0.000055   0.000000   0.000000   0.000026   0.000900
    30  H    0.000001  -0.003317   0.000000   0.000000   0.000985   0.002409
              19         20         21         22         23         24
     1  C    0.000151   0.000393  -0.000001   0.350290   0.323709  -0.029931
     2  O    0.004076   0.000765  -0.000027  -0.052360  -0.056811   0.008174
     3  C   -0.000011  -0.000650   0.000011  -0.075933  -0.048502   0.003943
     4  C   -0.000218   0.001916  -0.000400  -0.005695   0.002674  -0.000106
     5  C    0.004919  -0.006827   0.001665   0.000748   0.000139  -0.000007
     6  C   -0.050511  -0.044569  -0.000628   0.004126   0.002074  -0.000050
     7  H   -0.000001   0.000035   0.000000   0.003857  -0.001491  -0.000151
     8  H    0.000259   0.000668   0.000435  -0.000026   0.000001  -0.000001
     9  H   -0.009648   0.005862  -0.000297  -0.000232  -0.000111  -0.000029
    10  H    0.000006  -0.000022   0.000006  -0.000130  -0.000060   0.000004
    11  O    0.000000   0.000000   0.000000   0.003507  -0.017529   0.000044
    12  O    0.000079   0.000993   0.001176   0.008271   0.000030   0.000002
    13  O   -0.000060  -0.000039  -0.000001  -0.000019   0.000009   0.000001
    14  H   -0.000003   0.000063  -0.000054   0.000234  -0.000011   0.000000
    15  H    0.000000   0.000001   0.000000   0.002492   0.050950  -0.000812
    16  H   -0.000002   0.000002   0.000000   0.000085  -0.000002  -0.000008
    17  C    0.368060   0.348819  -0.022550   0.000712   0.000038   0.000000
    18  O   -0.038736  -0.026903   0.215622  -0.000091   0.000000   0.000000
    19  H    0.618793  -0.042826   0.005068  -0.000038   0.000005   0.000007
    20  H   -0.042826   0.638673  -0.008153   0.004659  -0.000078  -0.000026
    21  H    0.005068  -0.008153   0.316846  -0.000036   0.000000   0.000000
    22  H   -0.000038   0.004659  -0.000036   0.678705  -0.051177  -0.003782
    23  O    0.000005  -0.000078   0.000000  -0.051177   8.417133   0.131310
    24  H    0.000007  -0.000026   0.000000  -0.003782   0.131310   0.319770
    25  H    0.002359  -0.000443   0.000002   0.001185   0.010906  -0.019085
    26  O    0.000112   0.000028   0.000000   0.001348  -0.092754   0.132952
    27  H    0.000015   0.000000   0.000000  -0.000100   0.004422  -0.001667
    28  O   -0.000009   0.004457   0.060601  -0.000032   0.000000   0.000000
    29  H    0.000008  -0.000102  -0.002627  -0.000002   0.000000   0.000000
    30  H    0.000047  -0.000025  -0.006968   0.000085   0.000000   0.000000
              25         26         27         28         29         30
     1  C   -0.013792   0.014749  -0.000438  -0.000001   0.000000   0.000022
     2  O    0.113051  -0.093661   0.003514   0.000000   0.000000  -0.000004
     3  C    0.001695  -0.000646   0.000000  -0.000006   0.000001   0.000189
     4  C   -0.000166   0.000023  -0.000001   0.000422  -0.000011  -0.001783
     5  C    0.002040  -0.000107   0.000006  -0.000025   0.000005  -0.000206
     6  C   -0.004715   0.002561  -0.000031   0.000003  -0.000004  -0.000298
     7  H   -0.000104   0.000010   0.000000   0.000001   0.000000  -0.000034
     8  H   -0.000028   0.000001   0.000000   0.000023   0.000000   0.000150
     9  H   -0.002649   0.000110  -0.000001   0.000000   0.000000  -0.000003
    10  H    0.000009   0.000000   0.000000  -0.000024   0.000000   0.000258
    11  O    0.000008  -0.000009   0.000003   0.000000   0.000000  -0.000001
    12  O   -0.000010   0.000000   0.000000  -0.015899   0.000403   0.042641
    13  O   -0.000063   0.000000   0.000000   0.000000   0.000000   0.000001
    14  H    0.000000   0.000000   0.000000   0.001356  -0.000055  -0.003317
    15  H   -0.000098   0.000194  -0.000027   0.000000   0.000000   0.000000
    16  H   -0.000030   0.000003  -0.000001   0.000000   0.000000   0.000000
    17  C   -0.000191   0.000093  -0.000027  -0.000067   0.000026   0.000985
    18  O   -0.000002   0.000000   0.000000  -0.018287   0.000900   0.002409
    19  H    0.002359   0.000112   0.000015  -0.000009   0.000008   0.000047
    20  H   -0.000443   0.000028   0.000000   0.004457  -0.000102  -0.000025
    21  H    0.000002   0.000000   0.000000   0.060601  -0.002627  -0.006968
    22  H    0.001185   0.001348  -0.000100  -0.000032  -0.000002   0.000085
    23  O    0.010906  -0.092754   0.004422   0.000000   0.000000   0.000000
    24  H   -0.019085   0.132952  -0.001667   0.000000   0.000000   0.000000
    25  H    0.307076   0.128804  -0.002050   0.000000   0.000000   0.000000
    26  O    0.128804   8.502314   0.225115   0.000000   0.000000   0.000000
    27  H   -0.002050   0.225115   0.361982   0.000000   0.000000   0.000000
    28  O    0.000000   0.000000   0.000000   8.319327   0.241362   0.210972
    29  H    0.000000   0.000000   0.000000   0.241362   0.371983  -0.010901
    30  H    0.000000   0.000000   0.000000   0.210972  -0.010901   0.343627
 Mulliken charges:
               1
     1  C    0.338722
     2  O   -0.639362
     3  C    0.107707
     4  C    0.066589
     5  C    0.111573
     6  C    0.109401
     7  H    0.125852
     8  H    0.170513
     9  H    0.166981
    10  H    0.163030
    11  O   -0.650520
    12  O   -0.653855
    13  O   -0.649086
    14  H    0.410121
    15  H    0.416778
    16  H    0.419112
    17  C   -0.058031
    18  O   -0.652512
    19  H    0.138098
    20  H    0.123328
    21  H    0.440309
    22  H    0.129351
    23  O   -0.674874
    24  H    0.459450
    25  H    0.476291
    26  O   -0.821242
    27  H    0.409285
    28  O   -0.804175
    29  H    0.399013
    30  H    0.422153
 Sum of Mulliken charges =   0.00000
 Mulliken charges with hydrogens summed into heavy atoms:
               1
     1  C    0.468073
     2  O   -0.163071
     3  C    0.233560
     4  C    0.229618
     5  C    0.282086
     6  C    0.276382
    11  O   -0.233742
    12  O   -0.243734
    13  O   -0.229974
    17  C    0.203395
    18  O   -0.212203
    23  O   -0.674874
    26  O    0.047494
    28  O    0.016991
 APT charges:
               1
     1  C   -0.113944
     2  O   -0.401698
     3  C   -0.299176
     4  C   -0.407802
     5  C   -0.345184
     6  C   -0.333623
     7  H    0.460091
     8  H    0.474322
     9  H    0.514245
    10  H    0.538480
    11  O   -0.724090
    12  O   -0.958742
    13  O   -0.608715
    14  H    0.792745
    15  H    0.596488
    16  H    0.470007
    17  C   -0.604661
    18  O   -0.639426
    19  H    0.511422
    20  H    0.223613
    21  H    0.484117
    22  H    0.268373
    23  O   -0.428051
    24  H    0.353139
    25  H    0.452103
    26  O   -1.323150
    27  H    0.963152
    28  O   -1.008422
    29  H    0.936104
    30  H    0.158282
 Sum of APT charges =   0.00000
 APT charges with hydrogens summed into heavy atoms:
               1
     1  C    0.154429
     2  O    0.050405
     3  C    0.160915
     4  C    0.130678
     5  C    0.129137
     6  C    0.180622
    11  O   -0.127602
    12  O   -0.165997
    13  O   -0.138708
    17  C    0.130375
    18  O   -0.155309
    23  O   -0.428051
    26  O   -0.006859
    28  O    0.085965
 Electronic spatial extent (au):  <R**2>=           3012.9124
 Charge=              0.0000 electrons
 Dipole moment (field-independent basis, Debye):
    X=             -0.9353    Y=              0.6170    Z=             -3.8041  Tot=              3.9657
 Quadrupole moment (field-independent basis, Debye-Ang):
   XX=            -85.3074   YY=            -81.2796   ZZ=            -82.2466
   XY=             -9.2923   XZ=            -16.6664   YZ=              7.5886
 Traceless Quadrupole moment (field-independent basis, Debye-Ang):
   XX=             -2.3629   YY=              1.6650   ZZ=              0.6979
   XY=             -9.2923   XZ=            -16.6664   YZ=              7.5886
 Octapole moment (field-independent basis, Debye-Ang**2):
  XXX=            -43.6121  YYY=              8.8556  ZZZ=            -39.2740  XYY=            -12.0354
  XXY=             24.4414  XXZ=            -17.1554  XZZ=             25.7249  YZZ=              4.4800
  YYZ=            -10.7203  XYZ=            -16.2479
 Hexadecapole moment (field-independent basis, Debye-Ang**3):
 XXXX=          -1718.1460 YYYY=          -1035.4434 ZZZZ=           -642.2114 XXXY=            -77.2816
 XXXZ=           -193.0924 YYYX=           -104.7434 YYYZ=             53.0236 ZZZX=           -107.3321
 ZZZY=             33.1888 XXYY=           -402.7525 XXZZ=           -342.5828 YYZZ=           -276.3289
 XXYZ=            -32.1791 YYXZ=            -53.9800 ZZXY=              1.4484
 N-N= 1.125806926767D+03 E-N=-4.223874218114D+03  KE= 8.327347755178D+02
  Exact polarizability:   0.000   0.000   0.000   0.000   0.000   0.000
 Approx polarizability: 143.748  -1.701 128.328   2.501   2.563 133.862
 Calling FoFJK, ICntrl=    100147 FMM=F ISym2X=0 I1Cent= 0 IOpClX= 0 NMat=1 NMatS=1 NMatT=0.
 ***** Axes restored to original set *****
 -------------------------------------------------------------------
 Center     Atomic                   Forces (Hartrees/Bohr)
 Number     Number              X              Y              Z
 -------------------------------------------------------------------
      1        6          -0.002048563   -0.000401927   -0.000649895
      2        8          -0.000139605   -0.000336779   -0.000494112
      3        6          -0.000128045   -0.000134579    0.000101652
      4        6           0.000246912   -0.000138394   -0.000104767
      5        6           0.000131848   -0.000031663   -0.000485028
      6        6           0.000932214    0.000706223    0.000655383
      7        1          -0.000306309   -0.000306750    0.000040948
      8        1           0.000019151    0.000092987   -0.000533660
      9        1           0.000716647    0.000012937   -0.000023157
     10        1           0.000024454    0.000241012   -0.000027272
     11        8           0.000391273    0.000226411    0.000152082
     12        8          -0.001092108   -0.000217052    0.000310174
     13        8           0.000027861    0.000095060   -0.000586241
     14        1          -0.000650031   -0.001261871   -0.000993217
     15        1          -0.000093702    0.000423614    0.000081109
     16        1           0.000521592    0.000151023    0.000218317
     17        6           0.003088642    0.001957147   -0.001489648
     18        8          -0.005709483   -0.001629177   -0.002793019
     19        1           0.001113302   -0.004424300   -0.002969328
     20        1           0.001764197   -0.000466155    0.003926510
     21        1           0.000256166    0.005002129    0.002299462
     22        1           0.000569130    0.000357083   -0.000311089
     23        8          -0.000298795   -0.001214819   -0.000144038
     24        1          -0.000023783    0.000270353   -0.001166173
     25        1           0.001674802   -0.000866673   -0.000686467
     26        8          -0.015820745    0.010895260    0.009453744
     27        1           0.015208627   -0.008651876   -0.007104269
     28        8          -0.006000463   -0.006626293    0.004956407
     29        1           0.000335194    0.004817391   -0.004388170
     30        1           0.005289620    0.001459679    0.002753761
 -------------------------------------------------------------------
 Cartesian Forces:  Max     0.015820745 RMS     0.003587943

 GradGradGradGradGradGradGradGradGradGradGradGradGradGradGradGradGradGrad
 Berny optimization.
 Search for a saddle point.
 Step number   1 out of a maximum of  180
 All quantities printed in internal units (Hartrees-Bohrs-Radians)
 Swapping is turned off.
 Second derivative matrix not updated -- analytic derivatives used.
 ITU=  0
     Eigenvalues ---   -0.09982  -0.00332  -0.00088   0.00068   0.00117
     Eigenvalues ---    0.00158   0.00290   0.00326   0.00385   0.00594
     Eigenvalues ---    0.00763   0.00807   0.00939   0.01283   0.01362
     Eigenvalues ---    0.01373   0.01674   0.01912   0.02117   0.02225
     Eigenvalues ---    0.02643   0.02714   0.03142   0.03248   0.03521
     Eigenvalues ---    0.03852   0.03989   0.04693   0.05033   0.05183
     Eigenvalues ---    0.05230   0.05384   0.05555   0.06182   0.06731
     Eigenvalues ---    0.06905   0.07050   0.08108   0.08405   0.08895
     Eigenvalues ---    0.10185   0.11303   0.11803   0.13021   0.13196
     Eigenvalues ---    0.13815   0.14520   0.15998   0.16583   0.16990
     Eigenvalues ---    0.17668   0.19261   0.20733   0.22169   0.23197
     Eigenvalues ---    0.26469   0.27135   0.30400   0.31857   0.33717
     Eigenvalues ---    0.37479   0.44447   0.48927   0.57110   0.60028
     Eigenvalues ---    0.62139   0.62581   0.63857   0.66576   0.75196
     Eigenvalues ---    0.76129   0.79722   0.80754   0.81787   0.84913
     Eigenvalues ---    0.87534   0.89089   0.91475   0.95137   0.97641
     Eigenvalues ---    1.01220   1.06202   1.06892   1.16470
 Eigenvectors required to have negative eigenvalues:
                          Y24       Y25       X25       Z1        Z25
   1                    0.52849  -0.44946   0.44060  -0.25072   0.23423
                          Y23       Z24       Z2        X1        Y2
   1                   -0.19731   0.17221   0.15428  -0.13020   0.12654
 RFO step:  Lambda0=4.178496141D-05 Lambda=-6.33001101D-03.
 Linear search not attempted -- option 19 set.
 Maximum step size (   0.300) exceeded in Quadratic search.
    -- Step size scaled by   0.295
 TrRot=  0.001747 -0.001526 -0.001143 -1.039983 -0.000400  1.039038
 Variable       Old X    -DE/DX   Delta X   Delta X   Delta X     New X
                                 (Linear)    (Quad)   (Total)
    X1       -2.52506  -0.00205   0.00000  -0.00670  -0.00436  -2.52942
    Y1        0.23991  -0.00040   0.00000   0.00003   0.00028   0.24019
    Z1       -1.77682  -0.00065   0.00000  -0.00360  -0.00534  -1.78217
    X2       -2.03373  -0.00014   0.00000   0.00553   0.00847  -2.02526
    Y2        1.47641  -0.00034   0.00000   0.00168   0.00243   1.47884
    Z2        1.05444  -0.00049   0.00000  -0.00992  -0.01198   1.04245
    X3       -1.89606  -0.00013   0.00000  -0.00763  -0.00800  -1.90406
    Y3       -2.55292  -0.00013   0.00000  -0.00070  -0.00092  -2.55384
    Z3       -1.45714   0.00010   0.00000  -0.00094  -0.00159  -1.45873
    X4        0.73756   0.00025   0.00000  -0.00286  -0.00388   0.73368
    Y4       -2.99683  -0.00014   0.00000  -0.00080  -0.00313  -2.99996
    Z4       -0.31741  -0.00010   0.00000  -0.01055  -0.01051  -0.32792
    X5        1.12331   0.00013   0.00000   0.00787   0.00766   1.13097
    Y5       -1.60837  -0.00003   0.00000   0.00214   0.00031  -1.60807
    Z5        2.20938  -0.00049   0.00000  -0.01397  -0.01433   2.19504
    X6        0.45589   0.00093   0.00000   0.00816   0.01063   0.46652
    Y6        1.22288   0.00071   0.00000   0.00147   0.00025   1.22313
    Z6        2.17469   0.00066   0.00000  -0.01515  -0.01662   2.15807
    X7       -1.92340  -0.00031   0.00000  -0.01672  -0.01748  -1.94089
    Y7       -3.37410  -0.00031   0.00000  -0.00630  -0.00715  -3.38126
    Z7       -3.37703   0.00004   0.00000   0.00149   0.00112  -3.37590
    X8        3.10047   0.00002   0.00000   0.01008   0.00960   3.11007
    Y8       -1.76887   0.00009   0.00000   0.00321  -0.00030  -1.76917
    Z8        2.78684  -0.00053   0.00000  -0.02157  -0.02147   2.76537
    X9        0.21263   0.00072   0.00000   0.01626   0.01881   0.23145
    Y9        1.73617   0.00001   0.00000   0.00624   0.00593   1.74210
    Z9        4.16460  -0.00002   0.00000  -0.01523  -0.01692   4.14768
   X10        0.97067   0.00002   0.00000  -0.00101  -0.00402   0.96664
   Y10       -5.01598   0.00024   0.00000   0.00005  -0.00236  -5.01833
   Z10        0.08811  -0.00003   0.00000  -0.00856  -0.00778   0.08033
   X11       -3.78267   0.00039   0.00000  -0.00178  -0.00353  -3.78620
   Y11       -3.69165   0.00023   0.00000   0.00531   0.00739  -3.68426
   Z11        0.06828   0.00015   0.00000   0.01007   0.00943   0.07770
   X12        2.59482  -0.00109   0.00000  -0.01239  -0.01229   2.58252
   Y12       -2.21252  -0.00022   0.00000  -0.00330  -0.00802  -2.22053
   Z12       -2.15547   0.00031   0.00000  -0.02187  -0.02173  -2.17719
   X13       -0.34100   0.00003   0.00000   0.01601   0.01421  -0.32678
   Y13       -2.87867   0.00010   0.00000   0.00358   0.00376  -2.87491
   Z13        4.07032  -0.00059   0.00000  -0.00707  -0.00729   4.06303
   X14        2.62898  -0.00065   0.00000  -0.03197  -0.03282   2.59616
   Y14       -3.49494  -0.00126   0.00000   0.00449  -0.00069  -3.49564
   Z14       -3.46045  -0.00099   0.00000  -0.03106  -0.03047  -3.49092
   X15       -5.29055  -0.00009   0.00000  -0.00239  -0.00310  -5.29365
   Y15       -2.67416   0.00042   0.00000   0.00588   0.00926  -2.66490
   Z15       -0.29527   0.00008   0.00000   0.01370   0.01240  -0.28286
   X16       -2.02798   0.00052   0.00000   0.01228   0.01042  -2.01756
   Y16       -3.09934   0.00015   0.00000   0.00509   0.00662  -3.09272
   Z16        3.34844   0.00022   0.00000   0.00179   0.00131   3.34975
   X17        2.37277   0.00309   0.00000   0.00641   0.01086   2.38364
   Y17        3.06463   0.00196   0.00000  -0.00530  -0.00876   3.05587
   Z17        0.95911  -0.00149   0.00000  -0.02417  -0.02588   0.93323
   X18        4.88616  -0.00571   0.00000  -0.00413  -0.00028   4.88589
   Y18        2.59294  -0.00163   0.00000   0.01224   0.00671   2.59965
   Z18        1.76952  -0.00279   0.00000   0.00106   0.00000   1.76953
   X19        1.84888   0.00111   0.00000  -0.00894  -0.00279   1.84610
   Y19        4.99413  -0.00442   0.00000  -0.00356  -0.00630   4.98783
   Z19        1.57260  -0.00297   0.00000  -0.05574  -0.05823   1.51437
   X20        2.19876   0.00176   0.00000   0.02371   0.02851   2.22726
   Y20        3.01434  -0.00047   0.00000  -0.03325  -0.03727   2.97707
   Z20       -1.11971   0.00393   0.00000  -0.02116  -0.02288  -1.14259
   X21        5.77401   0.00026   0.00000   0.02658   0.02987   5.80388
   Y21        1.68475   0.00500   0.00000   0.03631   0.02944   1.71419
   Z21        0.41045   0.00230   0.00000   0.00496   0.00440   0.41485
   X22       -1.11513   0.00057   0.00000  -0.00900  -0.00547  -1.12061
   Y22        1.25669   0.00036   0.00000  -0.00362  -0.00509   1.25160
   Z22       -2.91302  -0.00031   0.00000  -0.01117  -0.01298  -2.92600
   X23       -4.90876  -0.00030   0.00000  -0.00845  -0.00561  -4.91437
   Y23        0.66987  -0.00121   0.00000   0.00263   0.00498   0.67485
   Z23       -2.25135  -0.00014   0.00000   0.00444   0.00207  -2.24928
   X24       -5.08532  -0.00002   0.00000  -0.00698  -0.00192  -5.08724
   Y24        3.15438   0.00027   0.00000   0.00193   0.00466   3.15904
   Z24       -1.63095  -0.00117   0.00000   0.00385   0.00059  -1.63036
   X25       -3.06620   0.00167   0.00000   0.00473   0.00959  -3.05661
   Y25        3.44102  -0.00087   0.00000   0.00523   0.00684   3.44786
   Z25        0.72209  -0.00069   0.00000  -0.00977  -0.01272   0.70937
   X26       -4.45265  -0.01582   0.00000  -0.01094  -0.00447  -4.45713
   Y26        4.86773   0.01090   0.00000   0.00396   0.00645   4.87418
   Z26       -0.58036   0.00945   0.00000   0.01282   0.00909  -0.57127
   X27       -5.92231   0.01521   0.00000   0.00317   0.01010  -5.91221
   Y27        5.58577  -0.00865   0.00000  -0.02571  -0.02152   5.56424
   Z27        0.33202  -0.00710   0.00000   0.03323   0.02897   0.36099
   X28        7.13973  -0.00600   0.00000   0.04372   0.04626   7.18599
   Y28        0.36708  -0.00663   0.00000  -0.05212  -0.06129   0.30579
   Z28       -2.52543   0.00496   0.00000   0.04555   0.04576  -2.47967
   X29        7.75858   0.00034   0.00000  -0.14481  -0.14098   7.61760
   Y29        1.21134   0.00482   0.00000   0.15119   0.14111   1.35244
   Z29       -4.01087  -0.00439   0.00000   0.07771   0.07764  -3.93324
   X30        5.51222   0.00529   0.00000   0.03414   0.03603   5.54825
   Y30       -0.39650   0.00146   0.00000  -0.06585  -0.07360  -0.47011
   Z30       -2.96832   0.00275   0.00000   0.10580   0.10594  -2.86238
         Item               Value     Threshold  Converged?
 Maximum Force            0.015821     0.000450     NO 
 RMS     Force            0.003588     0.000300     NO 
 Maximum Displacement     0.141106     0.001800     NO 
 RMS     Displacement     0.031459     0.001200     NO 
 Predicted change in Energy=-1.910290D-03
 GradGradGradGradGradGradGradGradGradGradGradGradGradGradGradGradGradGrad

                          Input orientation:                          
 ---------------------------------------------------------------------
 Center     Atomic      Atomic             Coordinates (Angstroms)
 Number     Number       Type             X           Y           Z
 ---------------------------------------------------------------------
      1          6           0       -1.338510    0.127103   -0.943082
      2          8           0       -1.071723    0.782568    0.551641
      3          6           0       -1.007587   -1.351436   -0.771925
      4          6           0        0.388248   -1.587512   -0.173527
      5          6           0        0.598483   -0.850954    1.161566
      6          6           0        0.246870    0.647252    1.142002
      7          1           0       -1.027075   -1.789284   -1.786451
      8          1           0        1.645778   -0.936203    1.463371
      9          1           0        0.122476    0.921880    2.194856
     10          1           0        0.511526   -2.655588    0.042507
     11          8           0       -2.003571   -1.949624    0.041118
     12          8           0        1.366611   -1.175056   -1.152120
     13          8           0       -0.172927   -1.521337    2.150064
     14          1           0        1.373830   -1.849810   -1.847317
     15          1           0       -2.801277   -1.410202   -0.149685
     16          1           0       -1.067646   -1.636595    1.772610
     17          6           0        1.261367    1.617096    0.493843
     18          8           0        2.585500    1.375674    0.936393
     19          1           0        0.976913    2.639444    0.801371
     20          1           0        1.178618    1.575398   -0.604634
     21          1           0        3.071279    0.907111    0.219529
     22          1           0       -0.592999    0.662319   -1.548372
     23          8           0       -2.600571    0.357116   -1.190266
     24          1           0       -2.692053    1.671691   -0.862749
     25          1           0       -1.617486    1.824528    0.375380
     26          8           0       -2.358610    2.579305   -0.302301
     27          1           0       -3.128604    2.944472    0.191030
     28          8           0        3.802661    0.161815   -1.312186
     29          1           0        4.031062    0.715681   -2.081379
     30          1           0        2.936007   -0.248770   -1.514705
 ---------------------------------------------------------------------
                    Distance matrix (angstroms):
                    1          2          3          4          5
     1  C    0.000000
     2  O    1.653785   0.000000
     3  C    1.524757   2.511955   0.000000
     4  C    2.552217   2.876572   1.536934   0.000000
     5  C    3.022925   2.414537   2.562876   1.539218   0.000000
     6  C    2.670498   1.451042   3.038344   2.597071   1.539037
     7  H    2.116791   3.476075   1.105149   2.155313   3.494812
     8  H    3.978393   3.342190   3.494183   2.164491   1.093243
     9  H    3.551450   2.036092   3.904715   3.460769   2.106468
    10  H    3.483876   3.819269   2.161439   1.096656   2.125220
    11  O    2.392436   2.931527   1.418045   2.428579   3.038612
    12  O    3.009484   3.560978   2.410908   1.443939   2.459310
    13  O    3.693709   2.944617   3.043607   2.391311   1.421834
    14  H    3.476006   4.320318   2.660074   1.960037   3.263779
    15  H    2.265496   2.879489   1.899463   3.194539   3.686530
    16  H    3.249458   2.709822   2.561167   2.430943   1.940771
    17  C    3.323280   2.478524   3.944934   3.387807   2.641314
    18  O    4.526501   3.724928   4.823459   3.852313   2.992794
    19  H    3.836165   2.776195   4.726587   4.377684   3.529281
    20  H    2.923702   2.651336   3.657025   3.288546   3.056665
    21  H    4.626696   4.158158   4.766673   3.684603   3.176940
    22  H    1.099372   2.157241   2.197718   2.813323   3.324664
    23  O    1.306447   2.356401   2.373132   3.707880   4.150240
    24  H    2.055307   2.327339   3.461932   4.537145   4.614024
    25  H    2.167353   1.189372   3.431477   3.995784   3.561855
    26  O    2.732123   2.369295   4.182886   4.992412   4.759619
    27  H    3.525367   3.005766   4.886800   5.748045   5.407252
    28  O    5.154521   5.255359   5.071518   4.001863   4.172758
    29  H    5.520367   5.742445   5.601395   4.713246   4.975303
    30  H    4.328918   4.625510   4.161674   3.175227   3.604036
                    6          7          8          9         10
     6  C    0.000000
     7  H    4.016900   0.000000
     8  H    2.137183   4.293394   0.000000
     9  H    1.095169   4.952038   2.511571   0.000000
    10  H    3.491087   2.542216   2.502332   4.193119   0.000000
    11  O    3.608351   2.078284   4.045686   4.171834   2.612298
    12  O    3.136499   2.551350   2.641170   4.140925   2.085732
    13  O    2.428002   4.037018   2.030176   2.461418   2.489337
    14  H    4.054799   2.402438   3.445183   5.058390   2.228066
    15  H    3.897791   2.443461   4.754253   4.414047   3.544375
    16  H    2.709535   3.562566   2.819370   2.853152   2.554484
    17  C    1.545934   4.694692   2.758095   2.161907   4.361398
    18  O    2.458062   5.521009   2.550600   2.802882   4.620766
    19  H    2.148912   5.506944   3.697415   2.371052   5.369342
    20  H    2.186400   4.193192   3.286795   3.062623   4.331864
    21  H    2.982578   5.300095   2.641402   3.549306   4.390501
    22  H    2.818461   2.501092   4.078969   3.819821   3.841794
    23  O    3.692096   2.727336   5.171648   4.380980   4.503472
    24  H    3.702131   3.950156   5.570343   4.222882   5.459648
    25  H    2.334418   4.252263   4.410697   2.674459   4.971412
    26  O    3.550685   4.802110   5.613512   3.890840   5.980023
    27  H    4.192301   5.543943   6.282771   4.321541   6.680814
    28  O    4.347682   5.230493   3.682595   5.140117   4.539220
    29  H    4.971416   5.652130   4.580781   5.797046   5.316340
    30  H    3.884895   4.260639   3.317558   4.800752   3.754436
                   11         12         13         14         15
    11  O    0.000000
    12  O    3.658128   0.000000
    13  O    2.825304   3.659850   0.000000
    14  H    3.870786   0.968837   4.298767   0.000000
    15  H    0.981691   4.293188   3.494198   4.528436   0.000000
    16  H    1.992989   3.833102   0.977895   4.371514   2.598451
    17  C    4.856570   3.242897   3.827535   4.184868   5.107224
    18  O    5.737482   3.514797   4.180262   4.429553   6.161010
    19  H    5.524565   4.303301   4.522522   5.227475   5.619508
    20  H    4.792609   2.810708   4.359449   3.648893   4.996033
    21  H    5.826394   3.020386   4.488786   3.841068   6.324016
    22  H    3.367259   2.715333   4.315465   3.204462   3.335890
    23  O    2.682119   4.252945   4.536501   4.593267   2.060705
    24  H    3.795379   4.965930   5.061468   5.468250   3.165194
    25  H    3.808545   4.498399   4.053525   5.233461   3.484327
    26  O    4.555786   5.356742   5.254195   5.994601   4.016891
    27  H    5.023977   6.243518   5.702393   6.885631   4.380230
    28  O    6.324708   2.783376   5.534029   3.198785   6.887282
    29  H    6.930053   3.396720   6.370469   3.701002   7.411591
    30  H    5.450956   1.858084   4.971461   2.261495   6.010710
                   16         17         18         19         20
    16  H    0.000000
    17  C    4.200720   0.000000
    18  O    4.808171   1.416850   0.000000
    19  H    4.838186   1.104845   2.050097   0.000000
    20  H    4.584091   1.102379   2.096181   1.774748   0.000000
    21  H    5.100314   1.963444   0.984595   2.779548   2.169797
    22  H    4.066843   2.919061   4.097047   3.448905   2.205217
    23  O    3.886306   4.397538   5.696971   4.687647   4.013657
    24  H    4.530847   4.180054   5.583647   4.143327   3.880462
    25  H    3.772791   2.888746   4.263953   2.752538   2.973329
    26  O    4.872952   3.829350   5.237109   3.513890   3.689337
    27  H    5.266414   4.596245   5.972243   4.161830   4.589074
    28  O    6.039051   3.440605   2.830379   4.311684   3.063405
    29  H    6.810525   3.887870   3.410599   4.619409   3.325106
    30  H    5.362997   3.212498   2.961344   4.188561   2.691512
                   21         22         23         24         25
    21  H    0.000000
    22  H    4.075823   0.000000
    23  O    5.870256   2.061973   0.000000
    24  H    5.913705   2.427950   1.357846   0.000000
    25  H    4.780216   2.470046   2.360297   1.646517   0.000000
    26  O    5.705456   2.888756   2.405234   1.117609   1.256266
    27  H    6.526117   3.829234   2.980135   1.709092   1.889904
    28  O    1.853790   4.430363   6.407370   6.683041   5.915276
    29  H    2.500401   4.654985   6.700836   6.899224   6.258698
    30  H    2.088523   3.644874   5.579073   5.982331   5.348391
                   26         27         28         29         30
    26  O    0.000000
    27  H    0.984690   0.000000
    28  O    6.695176   7.618745   0.000000
    29  H    6.889566   7.835316   0.974983   0.000000
    30  H    6.123798   7.062991   0.980144   1.565385   0.000000
 Stoichiometry    C6H16O8
 Framework group  C1[X(C6H16O8)]
 Deg. of freedom    84
 Full point group                 C1      NOp   1
 Largest Abelian subgroup         C1      NOp   1
 Largest concise Abelian subgroup C1      NOp   1
                         Standard orientation:                         
 ---------------------------------------------------------------------
 Center     Atomic      Atomic             Coordinates (Angstroms)
 Number     Number       Type             X           Y           Z
 ---------------------------------------------------------------------
      1          6           0       -1.343481    0.118746   -0.938765
      2          8           0       -1.074926    0.782226    0.552100
      3          6           0       -1.006017   -1.357624   -0.761753
      4          6           0        0.392545   -1.585237   -0.166451
      5          6           0        0.603742   -0.841637    1.164581
      6          6           0        0.245959    0.655019    1.139131
      7          1           0       -1.026735   -1.800254   -1.774178
      8          1           0        1.652270   -0.921222    1.463639
      9          1           0        0.123578    0.934024    2.191068
     10          1           0        0.520825   -2.651788    0.054157
     11          8           0       -1.997127   -1.956077    0.057030
     12          8           0        1.366300   -1.173352   -1.149869
     13          8           0       -0.161979   -1.510556    2.158478
     14          1           0        1.374204   -1.851293   -1.841952
     15          1           0       -2.797593   -1.420797   -0.133879
     16          1           0       -1.057339   -1.631205    1.784243
     17          6           0        1.254555    1.625962    0.483451
     18          8           0        2.580974    1.391987    0.923148
     19          1           0        0.966846    2.648561    0.787091
     20          1           0        1.168708    1.578827   -0.614568
     21          1           0        3.066527    0.922080    0.207010
     22          1           0       -0.601966    0.654174   -1.548758
     23          8           0       -2.607201    0.342471   -1.183231
     24          1           0       -2.703074    1.658170   -0.861534
     25          1           0       -1.625460    1.821126    0.372650
     26          8           0       -2.371673    2.569726   -0.306298
     27          1           0       -3.141680    2.934044    0.187640
     28          8           0        3.796384    0.172661   -1.323420
     29          1           0        4.020232    0.723874   -2.095850
     30          1           0        2.930815   -0.242383   -1.521439
 ---------------------------------------------------------------------
 Rotational constants (GHZ):      0.7668085      0.4922792      0.4236149
 Standard basis: 6-31G(d) (6D, 7F)
 There are   242 symmetry adapted cartesian basis functions of A   symmetry.
 There are   242 symmetry adapted basis functions of A   symmetry.
   242 basis functions,   456 primitive gaussians,   242 cartesian basis functions
    58 alpha electrons       58 beta electrons
       nuclear repulsion energy      1125.8254971226 Hartrees.
 NAtoms=   30 NActive=   30 NUniq=   30 SFac= 1.00D+00 NAtFMM=   60 NAOKFM=F Big=F
 Integral buffers will be    131072 words long.
 Raffenetti 2 integral format.
 Two-electron integral symmetry is turned on.
 One-electron integrals computed using PRISM.
 NBasis=   242 RedAO= T EigKep=  1.94D-03  NBF=   242
 NBsUse=   242 1.00D-06 EigRej= -1.00D+00 NBFU=   242
 Initial guess from the checkpoint file:  "glo_1w_Alpha_ts_chair2_B3LYP_6-31Gd.chk"
 B after Tr=     0.000000    0.000000    0.000000
         Rot=    0.999995    0.002681   -0.001290   -0.001174 Ang=   0.37 deg.
 ExpMin= 1.61D-01 ExpMax= 5.48D+03 ExpMxC= 8.25D+02 IAcc=1 IRadAn=         1 AccDes= 0.00D+00
 Harris functional with IExCor=  402 and IRadAn=       1 diagonalized for initial guess.
 HarFok:  IExCor=  402 AccDes= 0.00D+00 IRadAn=         1 IDoV= 1 UseB2=F ITyADJ=14
 ICtDFT=  3500011 ScaDFX=  1.000000  1.000000  1.000000  1.000000
 FoFCou: FMM=F IPFlag=           0 FMFlag=      100000 FMFlg1=           0
         NFxFlg=           0 DoJE=T BraDBF=F KetDBF=T FulRan=T
         wScrn=  0.000000 ICntrl=     500 IOpCl=  0 I1Cent=   200000004 NGrid=           0
         NMat0=    1 NMatS0=      1 NMatT0=    0 NMatD0=    1 NMtDS0=    0 NMtDT0=    0
 Petite list used in FoFCou.
 Requested convergence on RMS density matrix=1.00D-08 within 128 cycles.
 Requested convergence on MAX density matrix=1.00D-06.
 Requested convergence on             energy=1.00D-06.
 No special actions if energy rises.
 Integral accuracy reduced to 1.0D-05 until final iterations.
 Initial convergence to 1.0D-05 achieved.  Increase integral accuracy.
 SCF Done:  E(RB3LYP) =  -839.954914010     A.U. after   11 cycles
            NFock= 11  Conv=0.86D-08     -V/T= 2.0087
 Calling FoFJK, ICntrl=      2127 FMM=F ISym2X=0 I1Cent= 0 IOpClX= 0 NMat=1 NMatS=1 NMatT=0.
 ***** Axes restored to original set *****
 -------------------------------------------------------------------
 Center     Atomic                   Forces (Hartrees/Bohr)
 Number     Number              X              Y              Z
 -------------------------------------------------------------------
      1        6          -0.001483844   -0.000289602   -0.000532654
      2        8          -0.000028605   -0.000196639   -0.000399858
      3        6          -0.000138884   -0.000094312    0.000059724
      4        6           0.000136927   -0.000154448   -0.000208412
      5        6           0.000136127   -0.000026381   -0.000431992
      6        6           0.000728450    0.000462466    0.000362069
      7        1          -0.000322950   -0.000248270    0.000040697
      8        1           0.000067069    0.000060743   -0.000508705
      9        1           0.000620554    0.000042092   -0.000118421
     10        1          -0.000011748    0.000158570   -0.000069839
     11        8           0.000252883    0.000221215    0.000143559
     12        8          -0.000859273   -0.000230793    0.000101924
     13        8           0.000097928    0.000075202   -0.000483481
     14        1          -0.000605429   -0.000844146   -0.000818702
     15        1          -0.000082420    0.000351173    0.000130504
     16        1           0.000438346    0.000135841    0.000163276
     17        6           0.002217084    0.001358553   -0.001235747
     18        8          -0.003924490   -0.001192507   -0.002168779
     19        1           0.000782102   -0.003232844   -0.002482154
     20        1           0.001404446   -0.000551774    0.002723557
     21        1           0.000271883    0.003670231    0.001954165
     22        1           0.000360718    0.000230774   -0.000288289
     23        8          -0.000218144   -0.000818007   -0.000085510
     24        1          -0.000049281    0.000231625   -0.000800844
     25        1           0.001242871   -0.000583009   -0.000540837
     26        8          -0.011165484    0.007822564    0.006679140
     27        1           0.010787445   -0.006337423   -0.004739678
     28        8          -0.002017258    0.001489491   -0.004746530
     29        1          -0.002868275   -0.002207089    0.005717704
     30        1           0.004231249    0.000696705    0.002584113
 -------------------------------------------------------------------
 Cartesian Forces:  Max     0.011165484 RMS     0.002571763

 GradGradGradGradGradGradGradGradGradGradGradGradGradGradGradGradGradGrad
 Berny optimization.
 Search for a saddle point.
 Step number   2 out of a maximum of  180
 All quantities printed in internal units (Hartrees-Bohrs-Radians)
 Swapping is turned off.
 Update second derivatives using D2CorN and points    1    2
 ITU=  0  0
     Eigenvalues ---   -0.09981  -0.00191   0.00062   0.00090   0.00144
     Eigenvalues ---    0.00255   0.00322   0.00378   0.00397   0.00613
     Eigenvalues ---    0.00763   0.00808   0.00942   0.01283   0.01359
     Eigenvalues ---    0.01376   0.01680   0.01914   0.02122   0.02220
     Eigenvalues ---    0.02671   0.02723   0.03143   0.03254   0.03522
     Eigenvalues ---    0.03852   0.03989   0.04693   0.05032   0.05184
     Eigenvalues ---    0.05231   0.05383   0.05558   0.06182   0.06730
     Eigenvalues ---    0.06905   0.07049   0.08107   0.08405   0.08895
     Eigenvalues ---    0.10186   0.11302   0.11804   0.13020   0.13197
     Eigenvalues ---    0.13814   0.14520   0.15992   0.16580   0.16988
     Eigenvalues ---    0.17671   0.19260   0.20731   0.22169   0.23192
     Eigenvalues ---    0.26470   0.27134   0.30403   0.31856   0.33720
     Eigenvalues ---    0.37479   0.44447   0.48925   0.57111   0.60029
     Eigenvalues ---    0.62144   0.62580   0.63858   0.66575   0.75197
     Eigenvalues ---    0.76129   0.79694   0.80725   0.81761   0.84913
     Eigenvalues ---    0.87535   0.89078   0.91488   0.95132   0.97648
     Eigenvalues ---    1.01220   1.06204   1.06891   1.16383
 Eigenvectors required to have negative eigenvalues:
                          Y24       Y25       X25       Z1        Z25
   1                    0.52844  -0.44947   0.44055  -0.25061   0.23433
                          Y23       Z24       Z2        X1        Y2
   1                   -0.19736   0.17232   0.15436  -0.13026   0.12654
 RFO step:  Lambda0=2.044351310D-05 Lambda=-4.99842925D-03.
 Linear search not attempted -- option 19 set.
 Maximum step size (   0.300) exceeded in Quadratic search.
    -- Step size scaled by   0.270
 TrRot= -0.000532  0.002665  0.000656  1.072451 -0.001205 -1.071483
 Variable       Old X    -DE/DX   Delta X   Delta X   Delta X     New X
                                 (Linear)    (Quad)   (Total)
    X1       -2.52942  -0.00148   0.00000  -0.00571  -0.00545  -2.53487
    Y1        0.24019  -0.00029   0.00000  -0.00058   0.00152   0.24171
    Z1       -1.78217  -0.00053   0.00000  -0.00415  -0.00470  -1.78687
    X2       -2.02526  -0.00003   0.00000   0.00859   0.00603  -2.01923
    Y2        1.47884  -0.00020   0.00000  -0.00189  -0.00227   1.47657
    Z2        1.04245  -0.00040   0.00000  -0.01194  -0.01088   1.03157
    X3       -1.90406  -0.00014   0.00000  -0.01026  -0.00747  -1.91154
    Y3       -2.55384  -0.00009   0.00000  -0.00234   0.00002  -2.55383
    Z3       -1.45873   0.00006   0.00000  -0.00195  -0.00510  -1.46382
    X4        0.73368   0.00014   0.00000  -0.00416  -0.00158   0.73210
    Y4       -2.99996  -0.00015   0.00000  -0.00740  -0.00366  -3.00362
    Z4       -0.32792  -0.00021   0.00000  -0.01661  -0.01871  -0.34663
    X5        1.13097   0.00014   0.00000   0.01444   0.01422   1.14518
    Y5       -1.60807  -0.00003   0.00000  -0.00119   0.00029  -1.60778
    Z5        2.19504  -0.00043   0.00000  -0.02264  -0.02302   2.17202
    X6        0.46652   0.00073   0.00000   0.01283   0.00989   0.47640
    Y6        1.22313   0.00046   0.00000  -0.00190  -0.00103   1.22210
    Z6        2.15807   0.00036   0.00000  -0.02079  -0.01857   2.13950
    X7       -1.94089  -0.00032   0.00000  -0.02583  -0.02113  -1.96202
    Y7       -3.38126  -0.00025   0.00000  -0.00846  -0.00413  -3.38538
    Z7       -3.37590   0.00004   0.00000   0.00046  -0.00360  -3.37950
    X8        3.11007   0.00007   0.00000   0.01830   0.01790   3.12797
    Y8       -1.76917   0.00006   0.00000   0.00126   0.00406  -1.76510
    Z8        2.76537  -0.00051   0.00000  -0.03549  -0.03490   2.73047
    X9        0.23145   0.00062   0.00000   0.02257   0.01798   0.24942
    Y9        1.74210   0.00004   0.00000   0.00040  -0.00106   1.74105
    Z9        4.14768  -0.00012   0.00000  -0.02015  -0.01751   4.13017
   X10        0.96664  -0.00001   0.00000  -0.00698  -0.00269   0.96396
   Y10       -5.01833   0.00016   0.00000  -0.00668  -0.00315  -5.02149
   Z10        0.08033  -0.00007   0.00000  -0.01160  -0.01570   0.06462
   X11       -3.78620   0.00025   0.00000  -0.00339  -0.00041  -3.78661
   Y11       -3.68426   0.00022   0.00000   0.00729   0.00619  -3.67806
   Z11        0.07770   0.00014   0.00000   0.01292   0.00751   0.08521
   X12        2.58252  -0.00086   0.00000  -0.01430  -0.01139   2.57113
   Y12       -2.22053  -0.00023   0.00000  -0.01905  -0.01156  -2.23209
[...]
    X4        0.75675  -0.00002   0.00000  -0.00522  -0.00423   0.75253
    Y4       -2.81720   0.00009   0.00000  -0.01738  -0.02035  -2.83755
    Z4       -0.65363  -0.00043   0.00000   0.01310   0.01512  -0.63851
    X5        1.32550   0.00007   0.00000  -0.00710  -0.00718   1.31832
    Y5       -1.36489   0.00005   0.00000  -0.01877  -0.02179  -1.38667
    Z5        1.80917  -0.00015   0.00000   0.01326   0.01556   1.82472
    X6        0.65355  -0.00009   0.00000  -0.00926  -0.00942   0.64413
    Y6        1.46286  -0.00005   0.00000  -0.01914  -0.02218   1.44068
    Z6        1.69540  -0.00007   0.00000   0.02038   0.02249   1.71788
    X7       -2.13484  -0.00004   0.00000  -0.00923  -0.00705  -2.14189
    Y7       -3.26977   0.00004   0.00000  -0.01471  -0.01773  -3.28750
    Z7       -3.50226   0.00000   0.00000   0.01201   0.01284  -3.48943
    X8        3.34050   0.00000   0.00000  -0.00602  -0.00626   3.33424
    Y8       -1.52458  -0.00004   0.00000  -0.01554  -0.01848  -1.54306
    Z8        2.24611  -0.00002   0.00000   0.00979   0.01291   2.25902
    X9        0.60085   0.00009   0.00000  -0.01269  -0.01368   0.58717
    Y9        2.12456   0.00000   0.00000  -0.02734  -0.03045   2.09411
    Z9        3.65398   0.00007   0.00000   0.02402   0.02612   3.68011
   X10        1.01960   0.00006   0.00000  -0.01150  -0.01058   1.00902
   Y10       -4.82996   0.00010   0.00000  -0.01784  -0.02081  -4.85077
   Z10       -0.22894  -0.00018   0.00000   0.01205   0.01412  -0.21482
   X11       -3.68991   0.00014   0.00000  -0.00748  -0.00676  -3.69667
   Y11       -3.55513  -0.00016   0.00000  -0.00313  -0.00632  -3.56145
   Z11        0.09044  -0.00002   0.00000   0.01327   0.01345   0.10389
   X12        2.49870   0.00144   0.00000   0.00935   0.01110   2.50980
   Y12       -2.03818   0.00271   0.00000  -0.02563  -0.02847  -2.06664
   Z12       -2.60319   0.00469   0.00000   0.02751   0.03028  -2.57292
   X13        0.00873  -0.00005   0.00000  -0.00341  -0.00425   0.00448
   Y13       -2.56795  -0.00003   0.00000  -0.02383  -0.02697  -2.59492
   Z13        3.81025  -0.00010   0.00000   0.01274   0.01446   3.82471
   X14        2.25216  -0.00094   0.00000  -0.02784  -0.02543   2.22672
   Y14       -3.12706  -0.00301   0.00000  -0.00653  -0.00933  -3.13639
   Z14       -4.04679  -0.00382   0.00000  -0.00311  -0.00050  -4.04729
   X15       -5.22674  -0.00018   0.00000  -0.00440  -0.00362  -5.23036
   Y15       -2.53750   0.00010   0.00000   0.00358   0.00032  -2.53718
   Z15       -0.16910   0.00004   0.00000   0.01955   0.01913  -0.14997
   X16       -1.71247   0.00000   0.00000  -0.00504  -0.00562  -1.71810
   Y16       -2.85326  -0.00003   0.00000  -0.01895  -0.02214  -2.87541
   Z16        3.20227  -0.00001   0.00000   0.01515   0.01616   3.21843
   X17        2.46220  -0.00061   0.00000  -0.00394  -0.00359   2.45861
   Y17        3.20691   0.00021   0.00000  -0.01141  -0.01433   3.19259
   Z17        0.22807  -0.00063   0.00000   0.03550   0.03840   0.26647
   X18        4.81797   0.00094   0.00000  -0.00800  -0.00817   4.80980
   Y18        3.34659  -0.00132   0.00000  -0.02653  -0.02937   3.31722
   Z18        1.46748  -0.00146   0.00000   0.04402   0.04788   1.51537
   X19        1.62859   0.00027   0.00000   0.00052   0.00079   1.62938
   Y19        5.10910  -0.00062   0.00000  -0.01376  -0.01672   5.09238
   Z19        0.20502   0.00023   0.00000   0.05235   0.05497   0.25999
   X20        2.65565  -0.00010   0.00000  -0.00033   0.00086   2.65651
   Y20        2.58982   0.00023   0.00000   0.00853   0.00567   2.59549
   Z20       -1.74413   0.00048   0.00000   0.03355   0.03651  -1.70761
   X21        5.89605  -0.00030   0.00000   0.01339   0.01359   5.90964
   Y21        1.99964   0.00104   0.00000   0.01111   0.00833   2.00797
   Z21        0.76986   0.00123   0.00000   0.00378   0.00805   0.77792
   X22       -1.51206  -0.00024   0.00000   0.02170   0.02356  -1.48850
   Y22        1.41003  -0.00013   0.00000  -0.01379  -0.01679   1.39324
   Z22       -3.23465   0.00029   0.00000   0.01687   0.01810  -3.21655
   X23       -5.16969   0.00022   0.00000   0.00998   0.01140  -5.15828
   Y23        0.67628   0.00010   0.00000   0.00234  -0.00085   0.67543
   Z23       -2.06839   0.00010   0.00000  -0.01184  -0.01213  -2.08052
   X24       -5.61400   0.00026   0.00000   0.03684   0.03776  -5.57624
   Y24        3.06909  -0.00006   0.00000   0.01862   0.01538   3.08447
   Z24       -1.05683  -0.00013   0.00000  -0.05014  -0.05053  -1.10736
   X25       -3.26073  -0.00010   0.00000   0.01924   0.01935  -3.24138
   Y25        3.43272  -0.00023   0.00000   0.00816   0.00497   3.43769
   Z25        0.86525   0.00021   0.00000  -0.02332  -0.02275   0.84250
   X26       -5.17848  -0.00041   0.00000   0.04921   0.04954  -5.12894
   Y26        4.65479  -0.00071   0.00000   0.03175   0.02849   4.68328
   Z26        0.22739   0.00094   0.00000  -0.06493  -0.06509   0.16230
   X27       -6.40573   0.00106   0.00000   0.03580   0.03557  -6.37016
   Y27        4.55735   0.00039   0.00000   0.07761   0.07426   4.63161
   Z27        1.59478  -0.00106   0.00000  -0.07960  -0.08027   1.51451
   X28        7.35945  -0.00113   0.00000  -0.01204  -0.01099   7.34846
   Y28       -0.63011  -0.00012   0.00000   0.08056   0.07790  -0.55221
   Z28       -0.93258  -0.00085   0.00000  -0.08357  -0.07878  -1.01136
   X29        8.32989  -0.00050   0.00000  -0.05583  -0.05424   8.27565
   Y29        0.07166  -0.00016   0.00000   0.09757   0.09499   0.16665
   Z29       -2.31932   0.00039   0.00000  -0.10592  -0.10073  -2.42005
   X30        5.84530   0.00100   0.00000  -0.02086  -0.01948   5.82582
   Y30       -1.36522   0.00076   0.00000   0.06131   0.05860  -1.30662
   Z30       -1.71337   0.00046   0.00000  -0.04404  -0.03990  -1.75327
         Item               Value     Threshold  Converged?
 Maximum Force            0.004694     0.000450     NO 
 RMS     Force            0.000914     0.000300     NO 
 Maximum Displacement     0.100733     0.001800     NO 
 RMS     Displacement     0.031537     0.001200     NO 
 Predicted change in Energy=-1.737300D-04
 GradGradGradGradGradGradGradGradGradGradGradGradGradGradGradGradGradGrad

                          Input orientation:                          
 ---------------------------------------------------------------------
 Center     Atomic      Atomic             Coordinates (Angstroms)
 Number     Number       Type             X           Y           Z
 ---------------------------------------------------------------------
      1          6           0       -1.432891    0.190216   -0.996161
      2          8           0       -1.023842    0.848666    0.428335
      3          6           0       -1.038546   -1.282970   -0.843423
      4          6           0        0.398219   -1.501565   -0.337882
      5          6           0        0.697627   -0.733796    0.965602
      6          6           0        0.340857    0.762375    0.909064
      7          1           0       -1.133437   -1.739668   -1.846525
      8          1           0        1.764401   -0.816551    1.195422
      9          1           0        0.310716    1.108155    1.947429
     10          1           0        0.533950   -2.566918   -0.113680
     11          8           0       -1.956191   -1.884641    0.054978
     12          8           0        1.328130   -1.093621   -1.361529
     13          8           0        0.002370   -1.373173    2.023950
     14          1           0        1.178331   -1.659706   -2.141734
     15          1           0       -2.767787   -1.342617   -0.079359
     16          1           0       -0.909177   -1.521599    1.703122
     17          6           0        1.301042    1.689443    0.141008
     18          8           0        2.545239    1.755398    0.801899
     19          1           0        0.862230    2.694771    0.137580
     20          1           0        1.405764    1.373473   -0.903629
     21          1           0        3.127246    1.062574    0.411655
     22          1           0       -0.787680    0.737270   -1.702126
     23          8           0       -2.729646    0.357422   -1.100965
     24          1           0       -2.950820    1.632233   -0.585990
     25          1           0       -1.715264    1.819147    0.445830
     26          8           0       -2.714120    2.478285    0.085884
     27          1           0       -3.370942    2.450943    0.801443
     28          8           0        3.888636   -0.292219   -0.535189
     29          1           0        4.379287    0.088187   -1.280637
     30          1           0        3.082889   -0.691432   -0.927792
 ---------------------------------------------------------------------
                    Distance matrix (angstroms):
                    1          2          3          4          5
     1  C    0.000000
     2  O    1.621748   0.000000
     3  C    1.532682   2.482229   0.000000
     4  C    2.578453   2.851830   1.538717   0.000000
     5  C    3.039970   2.399228   2.566800   1.542136   0.000000
     6  C    2.665227   1.449465   3.026120   2.585264   1.539158
     7  H    2.130081   3.447676   1.106250   2.163023   3.503231
     8  H    4.004909   3.337015   3.497278   2.164883   1.094383
     9  H    3.542245   2.038633   3.914952   3.470006   2.122845
    10  H    3.499860   3.792981   2.157265   1.097117   2.133535
    11  O    2.384065   2.911981   1.418170   2.417506   3.032561
    12  O    3.066752   3.536646   2.430112   1.441876   2.437734
    13  O    3.691237   2.921587   3.051799   2.398215   1.418550
    14  H    3.398975   4.212689   2.596552   1.971665   3.277792
    15  H    2.229809   2.846194   1.891462   3.180518   3.670381
    16  H    3.238938   2.693768   2.560971   2.423919   1.935559
    17  C    3.318919   2.488885   3.908711   3.350665   2.629858
    18  O    4.637707   3.701358   4.978180   4.064062   3.104280
    19  H    3.581305   2.655167   4.516386   4.248601   3.530976
    20  H    3.076788   2.820024   3.610398   3.098558   2.904491
    21  H    4.851578   4.156629   4.942735   3.818927   3.071946
    22  H    1.101794   2.146402   2.209451   2.877482   3.389239
    23  O    1.311684   2.343042   2.370028   3.717751   4.148211
    24  H    2.133486   2.314320   3.495923   4.593290   4.617001
    25  H    2.193739   1.191723   3.426843   4.013495   3.551017
    26  O    2.836835   2.372756   4.221161   5.070053   4.767744
    27  H    3.478263   2.866249   4.699763   5.579154   5.169407
    28  O    5.363197   5.134435   5.035247   3.699250   3.553857
    29  H    5.820030   5.717754   5.605724   4.389191   4.390429
    30  H    4.601548   4.590884   4.164524   2.865616   3.045687
                    6          7          8          9         10
     6  C    0.000000
     7  H    4.003378   0.000000
     8  H    2.145108   4.301518   0.000000
     9  H    1.094840   4.958807   2.526502   0.000000
    10  H    3.488191   2.543084   2.508295   4.219498   0.000000
    11  O    3.607296   2.076934   4.035373   4.204410   2.587421
    12  O    3.094354   2.590736   2.608659   4.102701   2.087691
    13  O    2.432716   4.050303   2.025102   2.501584   2.505407
    14  H    3.984371   2.331912   3.491561   5.013489   2.313280
    15  H    3.882221   2.439595   4.737356   4.426210   3.521585
    16  H    2.722067   3.563403   2.811205   2.909198   2.544813
    17  C    1.539910   4.651428   2.757988   2.140514   4.332425
    18  O    2.420099   5.723835   2.716522   2.593117   4.854480
    19  H    2.145035   5.252011   3.776550   2.469225   5.277904
    20  H    2.189367   4.126530   3.054643   3.065625   4.112270
    21  H    2.846314   5.577218   2.450051   3.208352   4.491589
    22  H    2.844739   2.505119   4.162123   3.829266   3.897118
    23  O    3.692180   2.738892   5.181512   4.370367   4.491943
    24  H    3.718465   4.032561   5.603864   4.162990   5.477186
    25  H    2.357750   4.273006   4.429093   2.620096   4.960804
    26  O    3.599286   4.901417   5.669583   3.806867   6.003653
    27  H    4.079253   5.438694   6.099467   4.083010   6.423750
    28  O    3.973005   5.388500   2.789679   4.574489   4.075027
    29  H    4.643085   5.835359   3.713092   5.292827   4.816429
    30  H    3.606429   4.440751   2.502419   4.380679   3.267616
                   11         12         13         14         15
    11  O    0.000000
    12  O    3.663191   0.000000
    13  O    2.823900   3.646541   0.000000
    14  H    3.834236   0.975506   4.337961   0.000000
    15  H    0.985152   4.299128   3.478307   4.463830   0.000000
    16  H    1.986055   3.818481   0.977691   4.377177   2.581416
    17  C    4.836429   3.162878   3.822517   4.054969   5.079106
    18  O    5.837006   3.778714   4.212783   4.711300   6.213095
    19  H    5.377856   4.100769   4.565733   4.925106   5.433653
    20  H    4.778805   2.510429   4.252564   3.284023   5.047286
    21  H    5.886818   3.321171   4.277524   4.210567   6.385723
    22  H    3.365598   2.818656   4.354514   3.131126   3.298503
    23  O    2.638424   4.317287   4.497107   4.519324   1.983750
    24  H    3.710596   5.132364   4.956368   5.505188   3.023227
    25  H    3.732138   4.583995   3.953686   5.212562   3.373481
    26  O    4.428378   5.585097   5.095993   6.102166   3.824849
    27  H    4.621257   6.270859   5.243818   6.801148   3.940901
    28  O    6.086551   2.807360   4.777103   3.434641   6.754190
    29  H    6.768619   3.273037   5.675673   3.747364   7.387214
    30  H    5.270854   1.851773   4.320549   2.457346   5.947629
                   16         17         18         19         20
    16  H    0.000000
    17  C    4.199531   0.000000
    18  O    4.846019   1.410373   0.000000
    19  H    4.833900   1.096928   2.038691   0.000000
    20  H    4.531617   1.096390   2.086407   1.767873   0.000000
    21  H    4.963723   1.949676   0.985407   2.805260   2.188637
    22  H    4.088149   2.943898   4.291279   3.152544   2.419411
    23  O    3.835066   4.423033   5.779242   4.460804   4.262971
    24  H    4.399432   4.313946   5.669927   4.023916   4.375806
    25  H    3.659391   3.034442   4.275831   2.739564   3.429356
    26  O    4.676788   4.092290   5.356874   3.583270   4.378720
    27  H    4.759665   4.779487   5.956928   4.291843   5.185088
    28  O    5.435110   3.328643   2.790206   4.305097   3.012462
    29  H    6.281885   3.749759   3.237326   4.601664   3.261278
    30  H    4.852574   3.160044   3.044318   4.187208   2.660294
                   21         22         23         24         25
    21  H    0.000000
    22  H    4.461002   0.000000
    23  O    6.090029   2.068069   0.000000
    24  H    6.185685   2.593432   1.392573   0.000000
    25  H    4.901375   2.577709   2.357581   1.620552   0.000000
    26  O    6.019296   3.152663   2.430414   1.106005   1.249695
    27  H    6.656272   3.984693   2.900560   1.664860   1.807456
    28  O    1.819805   4.928440   6.674113   7.105227   6.068274
    29  H    2.319674   5.224607   7.116298   7.523104   6.566617
    30  H    2.207402   4.197867   5.908946   6.474712   5.586780
                   26         27         28         29         30
    26  O    0.000000
    27  H    0.971693   0.000000
    28  O    7.187336   7.874833   0.000000
    29  H    7.608967   8.365628   0.970124   0.000000
    30  H    6.684307   7.383543   0.981191   1.553369   0.000000
 Stoichiometry    C6H16O8
 Framework group  C1[X(C6H16O8)]
 Deg. of freedom    84
 Full point group                 C1      NOp   1
 Largest Abelian subgroup         C1      NOp   1
 Largest concise Abelian subgroup C1      NOp   1
                         Standard orientation:                         
 ---------------------------------------------------------------------
 Center     Atomic      Atomic             Coordinates (Angstroms)
 Number     Number       Type             X           Y           Z
 ---------------------------------------------------------------------
      1          6           0       -1.472998   -0.107599   -0.927465
      2          8           0       -1.056445    0.811782    0.341900
      3          6           0       -0.967308   -1.503775   -0.547881
      4          6           0        0.500447   -1.538707   -0.087309
      5          6           0        0.795016   -0.539834    1.050085
      6          6           0        0.328929    0.897958    0.759351
      7          1           0       -1.068647   -2.131874   -1.452873
      8          1           0        1.873264   -0.512698    1.235339
      9          1           0        0.315090    1.415058    1.724281
     10          1           0        0.721724   -2.538381    0.306842
     11          8           0       -1.802602   -1.999313    0.485527
     12          8           0        1.357014   -1.254401   -1.211795
     13          8           0        0.190430   -1.030486    2.235843
     14          1           0        1.217721   -1.955094   -1.876052
     15          1           0       -2.655993   -1.542102    0.303295
     16          1           0       -0.720001   -1.290537    1.992187
     17          6           0        1.188241    1.738562   -0.203088
     18          8           0        2.449658    1.997693    0.372092
     19          1           0        0.678027    2.697784   -0.354171
     20          1           0        1.273999    1.254491   -1.183084
     21          1           0        3.064330    1.286931    0.075406
     22          1           0       -0.897615    0.349891   -1.748189
     23          8           0       -2.781590   -0.044992   -0.992138
     24          1           0       -3.073832    1.282597   -0.689875
     25          1           0       -1.815054    1.724069    0.230327
     26          8           0       -2.872500    2.245377   -0.184142
     27          1           0       -3.496690    2.299611    0.558578
     28          8           0        3.883584   -0.158946   -0.666181
     29          1           0        4.315431    0.117964   -1.489571
     30          1           0        3.093894   -0.671052   -0.943442
 ---------------------------------------------------------------------
 Rotational constants (GHZ):      0.8406792      0.4898811      0.4047706
 Standard basis: 6-31G(d) (6D, 7F)
 There are   242 symmetry adapted cartesian basis functions of A   symmetry.
 There are   242 symmetry adapted basis functions of A   symmetry.
   242 basis functions,   456 primitive gaussians,   242 cartesian basis functions
    58 alpha electrons       58 beta electrons
       nuclear repulsion energy      1128.8183173291 Hartrees.
 NAtoms=   30 NActive=   30 NUniq=   30 SFac= 1.00D+00 NAtFMM=   60 NAOKFM=F Big=F
 Integral buffers will be    131072 words long.
 Raffenetti 2 integral format.
 Two-electron integral symmetry is turned on.
 One-electron integrals computed using PRISM.
 NBasis=   242 RedAO= T EigKep=  1.85D-03  NBF=   242
 NBsUse=   242 1.00D-06 EigRej= -1.00D+00 NBFU=   242
 Initial guess from the checkpoint file:  "glo_1w_Alpha_ts_chair2_B3LYP_6-31Gd.chk"
 B after Tr=     0.000000    0.000000    0.000000
         Rot=    0.999989   -0.004072    0.000215    0.002281 Ang=  -0.54 deg.
 ExpMin= 1.61D-01 ExpMax= 5.48D+03 ExpMxC= 8.25D+02 IAcc=1 IRadAn=         1 AccDes= 0.00D+00
 Harris functional with IExCor=  402 and IRadAn=       1 diagonalized for initial guess.
 HarFok:  IExCor=  402 AccDes= 0.00D+00 IRadAn=         1 IDoV= 1 UseB2=F ITyADJ=14
 ICtDFT=  3500011 ScaDFX=  1.000000  1.000000  1.000000  1.000000
 FoFCou: FMM=F IPFlag=           0 FMFlag=      100000 FMFlg1=           0
         NFxFlg=           0 DoJE=T BraDBF=F KetDBF=T FulRan=T
         wScrn=  0.000000 ICntrl=     500 IOpCl=  0 I1Cent=   200000004 NGrid=           0
         NMat0=    1 NMatS0=      1 NMatT0=    0 NMatD0=    1 NMtDS0=    0 NMtDT0=    0
 Petite list used in FoFCou.
