 Entering Gaussian System, Link 0=g09
 Initial command:
 /global/software/gaussian/g09.e01/l1.exe "/scratch/10446899.yak.local/Gau-919.inp" -scrdir="/scratch/10446899.yak.local/"
 Entering Link 1 = /global/software/gaussian/g09.e01/l1.exe PID=       920.
  
 Copyright (c) 1988,1990,1992,1993,1995,1998,2003,2009,2015,
            Gaussian, Inc.  All Rights Reserved.
  
 This is part of the Gaussian(R) 09 program.  It is based on
 the Gaussian(R) 03 system (copyright 2003, Gaussian, Inc.),
 the Gaussian(R) 98 system (copyright 1998, Gaussian, Inc.),
 the Gaussian(R) 94 system (copyright 1995, Gaussian, Inc.),
 the Gaussian 92(TM) system (copyright 1992, Gaussian, Inc.),
 the Gaussian 90(TM) system (copyright 1990, Gaussian, Inc.),
 the Gaussian 88(TM) system (copyright 1988, Gaussian, Inc.),
 the Gaussian 86(TM) system (copyright 1986, Carnegie Mellon
 University), and the Gaussian 82(TM) system (copyright 1983,
 Carnegie Mellon University). Gaussian is a federally registered
 trademark of Gaussian, Inc.
  
 This software contains proprietary and confidential information,
 including trade secrets, belonging to Gaussian, Inc.
  
 This software is provided under written license and may be
 used, copied, transmitted, or stored only in accord with that
 written license.
  
 The following legend is applicable only to US Government
 contracts under FAR:
  
                    RESTRICTED RIGHTS LEGEND
  
 Use, reproduction and disclosure by the US Government is
 subject to restrictions as set forth in subparagraphs (a)
 and (c) of the Commercial Computer Software - Restricted
 Rights clause in FAR 52.227-19.
  
 Gaussian, Inc.
 340 Quinnipiac St., Bldg. 40, Wallingford CT 06492
  
  
 ---------------------------------------------------------------
 Warning -- This program may not be used in any manner that
 competes with the business of Gaussian, Inc. or will provide
 assistance to any competitor of Gaussian, Inc.  The licensee
 of this program is prohibited from giving any competitor of
 Gaussian, Inc. access to this program.  By using this program,
 the user acknowledges that Gaussian, Inc. is engaged in the
 business of creating and licensing software in the field of
 computational chemistry and represents and warrants to the
 licensee that it is not a competitor of Gaussian, Inc. and that
 it will not use this program in any manner prohibited above.
 ---------------------------------------------------------------
  

 Cite this work as:
 Gaussian 09, Revision E.01,
 M. J. Frisch, G. W. Trucks, H. B. Schlegel, G. E. Scuseria, 
 M. A. Robb, J. R. Cheeseman, G. Scalmani, V. Barone, B. Mennucci, 
 G. A. Petersson, H. Nakatsuji, M. Caricato, X. Li, H. P. Hratchian, 
 A. F. Izmaylov, J. Bloino, G. Zheng, J. L. Sonnenberg, M. Hada, 
 M. Ehara, K. Toyota, R. Fukuda, J. Hasegawa, M. Ishida, T. Nakajima, 
 Y. Honda, O. Kitao, H. Nakai, T. Vreven, J. A. Montgomery, Jr., 
 J. E. Peralta, F. Ogliaro, M. Bearpark, J. J. Heyd, E. Brothers, 
 K. N. Kudin, V. N. Staroverov, T. Keith, R. Kobayashi, J. Normand, 
 K. Raghavachari, A. Rendell, J. C. Burant, S. S. Iyengar, J. Tomasi, 
 M. Cossi, N. Rega, J. M. Millam, M. Klene, J. E. Knox, J. B. Cross, 
 V. Bakken, C. Adamo, J. Jaramillo, R. Gomperts, R. E. Stratmann, 
 O. Yazyev, A. J. Austin, R. Cammi, C. Pomelli, J. W. Ochterski, 
 R. L. Martin, K. Morokuma, V. G. Zakrzewski, G. A. Voth, 
 P. Salvador, J. J. Dannenberg, S. Dapprich, A. D. Daniels, 
 O. Farkas, J. B. Foresman, J. V. Ortiz, J. Cioslowski, 
 and D. J. Fox, Gaussian, Inc., Wallingford CT, 2013.
 
 ******************************************
 Gaussian 09:  ES64L-G09RevE.01 30-Nov-2015
                 7-Jan-2017 
 ******************************************
 ----------------------------------------------------------------------
 # opt=(TS,CalcFC,NoEigenTest,MaxCycle=500,cartesian) Freq B3LYP 6-31G(
 d)
 ----------------------------------------------------------------------
 1/5=1,6=500,10=4,11=1,14=-1,18=10,26=3,38=1/1,3;
 2/12=2,17=6,18=5,29=2,40=1/2;
 3/5=1,6=6,7=1,11=2,16=1,25=1,30=1,71=2,74=-5,140=1/1,2,3;
 4//1;
 5/5=2,38=5/2;
 8/6=4,10=90,11=11/1;
 11/6=1,8=1,9=11,15=111,16=1/1,2,10;
 10/6=1,13=1/2;
 6/7=2,8=2,9=2,10=2,28=1/1;
 7/7=1,10=1,18=20,25=1/1,2,3,16;
 1/5=1,6=500,10=4,11=1,14=-1,18=10,26=3/3(2);
 2/29=1/2;
 99/12=1/99;
 2/29=1/2;
 3/5=1,6=6,7=1,11=2,16=1,25=1,30=1,71=1,74=-5/1,2,3;
 4/5=5,16=3,69=1/1;
 5/5=2,38=5/2;
 7/7=1/1,2,3,16;
 1/5=1,6=500,11=1,14=-1,18=10,26=3/3(-5);
 2/29=1/2;
 6/7=2,8=2,9=2,10=2,19=2,28=1/1;
 99/9=1,12=1/99;
 --------------------------
 glo_1w_ALPHA_B3LYP_6-31G_d
 --------------------------
 Symbolic Z-matrix:
 Charge =  0 Multiplicity = 1
 C                     0.        0.        0. 
 O                     0.        0.        1.65793 
 H                     2.74518   0.        1.64415 
 O                     2.30918   0.86873   1.70009 
 H                     1.06444   0.56129   1.9297 
 C                    -2.36557  -0.02414   1.84253 
 C                    -1.09345   0.72667   2.27952 
 H                    -2.35368  -1.08878   2.1818 
 H                    -1.09099   1.77768   1.90344 
 O                    -3.50394   0.52379   2.53658 
 H                    -3.60591   1.48682   2.33026 
 C                    -0.85398   0.66291   3.79875 
 O                    -1.89274   1.3684    4.47331 
 H                     0.06367   1.20962   4.0926 
 H                    -0.79466  -0.37797   4.16374 
 H                    -2.75906   0.8939    4.35007 
 H                     0.19903  -1.08363  -0.06002 
 O                     0.93016   0.84263  -0.27131 
 H                     2.12071   1.1094    0.66385 
 O                    -5.33119  -0.96181   1.03897 
 H                    -5.92949  -1.62098   1.37203 
 H                    -4.97708  -0.47831   1.80567 
 C                    -2.6037    0.04668   0.31493 
 H                    -3.45717   0.73281   0.08743 
 C                    -1.3778    0.47959  -0.50653 
 H                    -1.50533   0.13952  -1.56657 
 O                    -1.41239   1.91263  -0.4956 
 H                    -0.47725   2.25307  -0.6495 
 O                    -2.90186  -1.2732   -0.14523 
 H                    -3.8818   -1.46098  -0.01558 
 

 GradGradGradGradGradGradGradGradGradGradGradGradGradGradGradGradGradGrad
 Berny optimization.
 Initialization pass.
 No Z-matrix variables, so optimization will use Cartesian coordinates.
 Trust Radius=3.00D-01 FncErr=1.00D-07 GrdErr=1.00D-06
 Number of steps in this run=    180 maximum allowed number of steps=    180.
 Search for a saddle point of order  1.
 GradGradGradGradGradGradGradGradGradGradGradGradGradGradGradGradGradGrad

 ---------------------------------------------------------------------------------------------------
                            Z-MATRIX (ANGSTROMS AND DEGREES)
   CD    Cent   Atom    N1       Length/X        N2       Alpha/Y        N3        Beta/Z          J
 ---------------------------------------------------------------------------------------------------
      1      1  C        0   0.000000          0.000000          0.000000
      2      2  O        0   0.000000          0.000000          1.657934
      3      3  H        0   2.745183          0.000000          1.644151
      4      4  O        0   2.309183          0.868726          1.700086
      5      5  H        0   1.064442          0.561294          1.929704
      6      6  C        0  -2.365570         -0.024142          1.842532
      7      7  C        0  -1.093448          0.726673          2.279524
      8      8  H        0  -2.353677         -1.088780          2.181803
      9      9  H        0  -1.090991          1.777684          1.903436
     10     10  O        0  -3.503936          0.523786          2.536583
     11     11  H        0  -3.605907          1.486824          2.330260
     12     12  C        0  -0.853981          0.662906          3.798755
     13     13  O        0  -1.892741          1.368402          4.473314
     14     14  H        0   0.063673          1.209623          4.092596
     15     15  H        0  -0.794656         -0.377972          4.163744
     16     16  H        0  -2.759060          0.893900          4.350066
     17     17  H        0   0.199030         -1.083627         -0.060018
     18     18  O        0   0.930162          0.842629         -0.271306
     19     19  H        0   2.120709          1.109398          0.663846
     20     20  O        0  -5.331192         -0.961813          1.038972
     21     21  H        0  -5.929490         -1.620979          1.372033
     22     22  H        0  -4.977080         -0.478305          1.805669
     23     23  C        0  -2.603699          0.046685          0.314934
     24     24  H        0  -3.457169          0.732811          0.087434
     25     25  C        0  -1.377799          0.479585         -0.506530
     26     26  H        0  -1.505330          0.139524         -1.566571
     27     27  O        0  -1.412386          1.912633         -0.495604
     28     28  H        0  -0.477254          2.253070         -0.649500
     29     29  O        0  -2.901855         -1.273204         -0.145234
     30     30  H        0  -3.881798         -1.460976         -0.015578
 ---------------------------------------------------------------------------------------------------
                         Z-Matrix orientation:                         
 ---------------------------------------------------------------------
 Center     Atomic      Atomic             Coordinates (Angstroms)
 Number     Number       Type             X           Y           Z
 ---------------------------------------------------------------------
      1          6           0        0.000000    0.000000    0.000000
      2          8           0        0.000000    0.000000    1.657934
      3          1           0        2.745183    0.000000    1.644151
      4          8           0        2.309183    0.868726    1.700086
      5          1           0        1.064442    0.561294    1.929704
      6          6           0       -2.365570   -0.024142    1.842532
      7          6           0       -1.093448    0.726673    2.279524
      8          1           0       -2.353677   -1.088780    2.181803
      9          1           0       -1.090991    1.777684    1.903436
     10          8           0       -3.503936    0.523786    2.536583
     11          1           0       -3.605907    1.486824    2.330260
     12          6           0       -0.853981    0.662906    3.798755
     13          8           0       -1.892741    1.368402    4.473314
     14          1           0        0.063673    1.209623    4.092596
     15          1           0       -0.794656   -0.377972    4.163744
     16          1           0       -2.759060    0.893900    4.350066
     17          1           0        0.199030   -1.083627   -0.060018
     18          8           0        0.930162    0.842629   -0.271306
     19          1           0        2.120709    1.109398    0.663846
     20          8           0       -5.331192   -0.961813    1.038972
     21          1           0       -5.929490   -1.620979    1.372033
     22          1           0       -4.977080   -0.478305    1.805669
     23          6           0       -2.603699    0.046685    0.314934
     24          1           0       -3.457169    0.732811    0.087434
     25          6           0       -1.377799    0.479585   -0.506530
     26          1           0       -1.505330    0.139524   -1.566571
     27          8           0       -1.412386    1.912633   -0.495604
     28          1           0       -0.477254    2.253070   -0.649500
     29          8           0       -2.901855   -1.273204   -0.145234
     30          1           0       -3.881798   -1.460976   -0.015578
 ---------------------------------------------------------------------
                    Distance matrix (angstroms):
                    1          2          3          4          5
     1  C    0.000000
     2  O    1.657934   0.000000
     3  H    3.199885   2.745218   0.000000
     4  O    2.996215   2.467547   0.973606   0.000000
     5  H    2.274169   1.233672   1.794849   1.302544   0.000000
     6  C    2.998572   2.372885   5.114659   4.761389   3.480706
     7  C    2.630573   1.452603   3.958136   3.454537   2.192308
     8  H    3.389026   2.645690   5.241458   5.079974   3.803923
     9  H    2.823737   2.100165   4.235991   3.525442   2.475113
    10  O    4.357312   3.650198   6.334215   5.883117   4.608664
    11  H    4.543492   3.957933   6.558791   5.980590   4.777992
    12  C    3.949591   2.398300   4.246851   3.801628   2.680303
    13  O    5.046338   3.658054   5.602413   5.059312   3.983253
    14  H    4.268089   2.719342   3.827345   3.298883   2.469812
    15  H    4.255715   2.655829   4.361384   4.154237   3.054407
    16  H    5.228244   3.957151   6.198203   5.719276   4.537394
    17  H    1.103387   2.040887   3.249821   3.370815   2.722810
    18  O    1.284068   2.301562   2.770072   2.405985   2.222976
    19  H    2.483719   2.591598   1.606777   1.080389   1.737387
    20  O    5.515991   5.452504   8.155928   7.884369   6.634560
    21  H    6.298325   6.153712   8.829019   8.612897   7.347680
    22  H    5.316065   5.002193   7.738748   7.410484   6.131569
    23  C    2.623092   2.930030   5.511764   5.170185   4.040738
    24  H    3.535063   3.867234   6.436579   5.989151   4.885523
    25  C    1.544313   2.610217   4.674870   4.314443   3.450572
    26  H    2.177069   3.561308   5.328703   5.074771   4.359536
    27  O    2.428708   3.207916   5.051941   4.445321   3.720606
    28  H    2.392895   3.260114   4.552061   3.898871   3.448365
    29  O    3.172208   3.645987   6.059042   5.928574   4.837588
    30  H    4.147656   4.472521   6.986131   6.833686   5.686737
                    6          7          8          9         10
     6  C    0.000000
     7  C    1.540448   0.000000
     8  H    1.117452   2.212147   0.000000
     9  H    2.207904   1.116276   3.144595   0.000000
    10  O    1.441460   2.432631   2.012296   2.792032   0.000000
    11  H    2.014778   2.625425   2.867727   2.567408   0.990157
    12  C    2.565881   1.539309   2.816385   2.211591   2.938485
    13  O    3.013927   2.421446   3.391346   2.722974   2.657114
    14  H    3.533579   2.204404   3.844134   2.539363   3.952136
    15  H    2.825065   2.204496   2.619902   3.137460   3.286490
    16  H    2.699140   2.662587   2.965926   3.090231   1.995131
    17  H    3.364429   3.228180   3.397367   3.702216   4.799799
    18  O    4.010169   3.258094   4.531189   3.112698   5.258053
    19  H    4.775030   3.617692   5.211171   3.506879   5.957072
    20  O    3.212452   4.727412   3.191830   5.121664   2.790825
    21  H    3.933546   5.451818   3.704782   5.936698   3.440858
    22  H    2.650964   4.093790   2.719633   4.494523   1.925767
    23  C    1.547669   2.569603   2.199316   2.794277   2.444131
    24  H    2.201121   3.223736   2.987017   3.160446   2.458497
    25  C    2.597600   2.811406   3.261785   2.752318   3.712539
    26  H    3.519771   3.912395   4.034690   3.859559   4.580169
    27  O    3.182223   3.034726   4.130740   2.424232   3.936703
    28  H    3.868030   3.359876   4.764997   2.668361   4.722536
    29  O    2.408105   3.626196   2.397835   4.096852   3.283871
    30  H    2.795713   4.222345   2.702252   4.686164   3.255086
                   11         12         13         14         15
    11  H    0.000000
    12  C    3.226208   0.000000
    13  O    2.746205   1.425404   0.000000
    14  H    4.080256   1.107849   1.999428   0.000000
    15  H    3.839565   1.104610   2.086012   1.806169   0.000000
    16  H    2.268992   1.996654   0.995415   2.851980   2.347606
    17  H    5.176697   4.364555   5.562288   4.745684   4.396081
    18  O    5.268686   4.447568   5.545866   4.464205   4.912691
    19  H    5.976078   4.344628   5.539577   3.999721   4.791754
    20  O    3.261879   5.504682   5.389577   6.568433   5.539425
    21  H    3.996958   6.071730   5.903362   7.164620   5.975386
    22  H    2.452967   4.719609   4.476584   5.786910   4.802422
    23  C    2.672071   3.946930   4.420919   4.768441   4.273911
    24  H    2.370849   4.533804   4.699718   5.353970   4.993908
    25  C    3.745180   4.340906   5.084683   4.874705   4.784028
    26  H    4.627411   5.430001   6.175794   5.969343   5.797359
    27  O    3.602548   4.507234   5.021660   4.870786   5.228574
    28  H    4.388003   4.738936   5.387900   4.885577   5.494583
    29  O    3.773792   4.847407   5.415475   5.737420   4.879449
    30  H    3.777379   5.312973   5.666734   6.290940   5.307549
                   16         17         18         19         20
    16  H    0.000000
    17  H    5.666547   0.000000
    18  O    5.913549   2.071149   0.000000
    19  H    6.119379   3.004361   1.537229   0.000000
    20  O    4.585070   5.639678   6.646607   7.743478   0.000000
    21  H    5.024433   6.316509   7.471597   8.530076   0.950469
    22  H    3.643696   5.535280   6.399547   7.362280   0.973138
    23  C    4.126040   3.045240   3.669520   4.855010   2.996751
    24  H    4.322422   4.085214   4.403343   5.620212   2.699840
    25  C    5.066168   2.264817   2.348151   3.742459   4.482803
    26  H    6.094876   2.582759   2.846699   4.366185   4.758047
    27  O    5.131458   3.429865   2.585102   3.804244   5.096509
    28  H    5.661240   3.455198   2.028102   3.127662   6.061940
    29  O    4.992439   3.107844   4.379155   5.617610   2.720475
    30  H    5.085747   4.098478   5.341063   6.564946   1.860640
                   21         22         23         24         25
    21  H    0.000000
    22  H    1.549460   0.000000
    23  C    3.867745   2.851464   0.000000
    24  H    3.647314   2.594083   1.118452   0.000000
    25  C    5.353435   4.383908   1.537868   2.177314   0.000000
    26  H    5.595351   4.879217   2.180617   2.626289   1.120533
    27  O    6.031477   4.870266   2.357533   2.431676   1.433507
    28  H    6.987255   5.808331   3.212481   3.425514   1.994159
    29  O    3.404353   2.957100   1.429250   2.094422   2.350649
    30  H    2.478731   2.341415   2.003950   2.236878   3.205748
                   26         27         28         29         30
    26  H    0.000000
    27  O    2.073530   0.000000
    28  H    2.522902   1.007002   0.000000
    29  O    2.442597   3.534237   4.309011   0.000000
    30  H    3.258032   4.208284   5.078081   1.006159   0.000000
 Stoichiometry    C6H16O8
 Framework group  C1[X(C6H16O8)]
 Deg. of freedom    84
 Full point group                 C1      NOp   1
 Largest Abelian subgroup         C1      NOp   1
 Largest concise Abelian subgroup C1      NOp   1
                         Standard orientation:                         
 ---------------------------------------------------------------------
 Center     Atomic      Atomic             Coordinates (Angstroms)
 Number     Number       Type             X           Y           Z
 ---------------------------------------------------------------------
      1          6           0       -1.404709   -1.354124   -0.464533
      2          8           0       -1.318752    0.279849   -0.731904
      3          1           0       -3.990770    0.303461   -1.361176
      4          8           0       -3.758657    0.499368   -0.436161
      5          1           0       -2.466483    0.656890   -0.481904
      6          6           0        0.998146    0.425653   -0.240674
      7          6           0       -0.385663    1.000343    0.116795
      8          1           0        1.243203    0.580413   -1.319885
      9          1           0       -0.643534    0.807191    1.185564
     10          8           0        2.018834    1.186769    0.435126
     11          1           0        1.891135    1.144659    1.416110
     12          6           0       -0.525602    2.490095   -0.244493
     13          8           0        0.361773    3.259957    0.562760
     14          1           0       -1.526078    2.884438    0.021724
     15          1           0       -0.330700    2.674857   -1.315959
     16          1           0        1.304925    3.046631    0.326529
     17          1           0       -1.358190   -1.593553   -1.540624
     18          8           0       -2.513098   -1.466625    0.173941
     19          1           0       -3.683017   -0.483812    0.005287
     20          8           0        4.052827   -0.564805   -0.328790
     21          1           0        4.800293   -0.355967   -0.877490
     22          1           0        3.639435    0.277251   -0.069857
     23          6           0        1.134764   -1.071136    0.128431
     24          1           0        1.799415   -1.191056    1.019943
     25          6           0       -0.197932   -1.791021    0.394370
     26          1           0       -0.052438   -2.894891    0.268291
     27          8           0       -0.485468   -1.538746    1.775899
     28          1           0       -1.479850   -1.620264    1.912328
     29          8           0        1.697390   -1.751561   -0.995504
     30          1           0        2.699842   -1.668762   -0.971200
 ---------------------------------------------------------------------
 Rotational constants (GHZ):      0.7827615      0.5050372      0.3555689
 Standard basis: 6-31G(d) (6D, 7F)
 There are   242 symmetry adapted cartesian basis functions of A   symmetry.
 There are   242 symmetry adapted basis functions of A   symmetry.
   242 basis functions,   456 primitive gaussians,   242 cartesian basis functions
    58 alpha electrons       58 beta electrons
       nuclear repulsion energy      1111.5960124592 Hartrees.
 NAtoms=   30 NActive=   30 NUniq=   30 SFac= 1.00D+00 NAtFMM=   60 NAOKFM=F Big=F
 Integral buffers will be    131072 words long.
 Raffenetti 2 integral format.
 Two-electron integral symmetry is turned on.
 One-electron integrals computed using PRISM.
 NBasis=   242 RedAO= T EigKep=  1.22D-03  NBF=   242
 NBsUse=   242 1.00D-06 EigRej= -1.00D+00 NBFU=   242
 ExpMin= 1.61D-01 ExpMax= 5.48D+03 ExpMxC= 8.25D+02 IAcc=1 IRadAn=         1 AccDes= 0.00D+00
 Harris functional with IExCor=  402 and IRadAn=       1 diagonalized for initial guess.
 HarFok:  IExCor=  402 AccDes= 0.00D+00 IRadAn=         1 IDoV= 1 UseB2=F ITyADJ=14
 ICtDFT=  3500011 ScaDFX=  1.000000  1.000000  1.000000  1.000000
 FoFCou: FMM=F IPFlag=           0 FMFlag=      100000 FMFlg1=           0
         NFxFlg=           0 DoJE=T BraDBF=F KetDBF=T FulRan=T
         wScrn=  0.000000 ICntrl=     500 IOpCl=  0 I1Cent=   200000004 NGrid=           0
         NMat0=    1 NMatS0=      1 NMatT0=    0 NMatD0=    1 NMtDS0=    0 NMtDT0=    0
 Petite list used in FoFCou.
 Requested convergence on RMS density matrix=1.00D-08 within 128 cycles.
 Requested convergence on MAX density matrix=1.00D-06.
 Requested convergence on             energy=1.00D-06.
 No special actions if energy rises.
 Integral accuracy reduced to 1.0D-05 until final iterations.
 Initial convergence to 1.0D-05 achieved.  Increase integral accuracy.
 SCF Done:  E(RB3LYP) =  -839.928893775     A.U. after   14 cycles
            NFock= 14  Conv=0.65D-08     -V/T= 2.0089
 DoSCS=F DFT=T ScalE2(SS,OS)=  1.000000  1.000000
 Range of M.O.s used for correlation:     1   242
 NBasis=   242 NAE=    58 NBE=    58 NFC=     0 NFV=     0
 NROrb=    242 NOA=    58 NOB=    58 NVA=   184 NVB=   184
 Symmetrizing basis deriv contribution to polar:
 IMax=3 JMax=2 DiffMx= 0.00D+00
 G2DrvN: will do    31 centers at a time, making    1 passes.
 Calling FoFCou, ICntrl=  3107 FMM=F I1Cent=   0 AccDes= 0.00D+00.
 End of G2Drv F.D. properties file   721 does not exist.
 End of G2Drv F.D. properties file   722 does not exist.
 End of G2Drv F.D. properties file   788 does not exist.
          IDoAtm=111111111111111111111111111111
          Differentiating once with respect to nuclear coordinates.
          There are    93 degrees of freedom in the 1st order CPHF.  IDoFFX=6 NUNeed=     0.
     87 vectors produced by pass  0 Test12= 1.15D-14 1.08D-09 XBig12= 1.35D-01 6.91D-02.
 AX will form    87 AO Fock derivatives at one time.
     87 vectors produced by pass  1 Test12= 1.15D-14 1.08D-09 XBig12= 4.52D-02 3.81D-02.
     87 vectors produced by pass  2 Test12= 1.15D-14 1.08D-09 XBig12= 4.24D-04 3.04D-03.
     87 vectors produced by pass  3 Test12= 1.15D-14 1.08D-09 XBig12= 2.03D-06 1.51D-04.
     87 vectors produced by pass  4 Test12= 1.15D-14 1.08D-09 XBig12= 3.99D-09 5.62D-06.
     67 vectors produced by pass  5 Test12= 1.15D-14 1.08D-09 XBig12= 3.59D-12 1.90D-07.
      2 vectors produced by pass  6 Test12= 1.15D-14 1.08D-09 XBig12= 2.75D-15 4.83D-09.
 InvSVY:  IOpt=1 It=  1 EMax= 6.11D-16
 Solved reduced A of dimension   504 with    93 vectors.
 End of Minotr F.D. properties file   721 does not exist.
 End of Minotr F.D. properties file   722 does not exist.
 End of Minotr F.D. properties file   788 does not exist.

 **********************************************************************

            Population analysis using the SCF density.

 **********************************************************************

 Orbital symmetries:
       Occupied  (A) (A) (A) (A) (A) (A) (A) (A) (A) (A) (A) (A)
                 (A) (A) (A) (A) (A) (A) (A) (A) (A) (A) (A) (A)
                 (A) (A) (A) (A) (A) (A) (A) (A) (A) (A) (A) (A)
                 (A) (A) (A) (A) (A) (A) (A) (A) (A) (A) (A) (A)
                 (A) (A) (A) (A) (A) (A) (A) (A) (A) (A)
       Virtual   (A) (A) (A) (A) (A) (A) (A) (A) (A) (A) (A) (A)
                 (A) (A) (A) (A) (A) (A) (A) (A) (A) (A) (A) (A)
                 (A) (A) (A) (A) (A) (A) (A) (A) (A) (A) (A) (A)
                 (A) (A) (A) (A) (A) (A) (A) (A) (A) (A) (A) (A)
                 (A) (A) (A) (A) (A) (A) (A) (A) (A) (A) (A) (A)
                 (A) (A) (A) (A) (A) (A) (A) (A) (A) (A) (A) (A)
                 (A) (A) (A) (A) (A) (A) (A) (A) (A) (A) (A) (A)
                 (A) (A) (A) (A) (A) (A) (A) (A) (A) (A) (A) (A)
                 (A) (A) (A) (A) (A) (A) (A) (A) (A) (A) (A) (A)
                 (A) (A) (A) (A) (A) (A) (A) (A) (A) (A) (A) (A)
                 (A) (A) (A) (A) (A) (A) (A) (A) (A) (A) (A) (A)
                 (A) (A) (A) (A) (A) (A) (A) (A) (A) (A) (A) (A)
                 (A) (A) (A) (A) (A) (A) (A) (A) (A) (A) (A) (A)
                 (A) (A) (A) (A) (A) (A) (A) (A) (A) (A) (A) (A)
                 (A) (A) (A) (A) (A) (A) (A) (A) (A) (A) (A) (A)
                 (A) (A) (A) (A)
 The electronic state is 1-A.
 Alpha  occ. eigenvalues --  -19.19744 -19.18767 -19.18133 -19.15297 -19.13772
 Alpha  occ. eigenvalues --  -19.12860 -19.11836 -19.08674 -10.27589 -10.25306
 Alpha  occ. eigenvalues --  -10.25020 -10.24076 -10.23547 -10.22937  -1.06872
 Alpha  occ. eigenvalues --   -1.05404  -1.03105  -1.01789  -1.00608  -0.99914
 Alpha  occ. eigenvalues --   -0.98606  -0.96325  -0.77279  -0.73975  -0.68251
 Alpha  occ. eigenvalues --   -0.63405  -0.62290  -0.57164  -0.55480  -0.54711
 Alpha  occ. eigenvalues --   -0.53816  -0.52099  -0.51410  -0.50083  -0.48860
 Alpha  occ. eigenvalues --   -0.47273  -0.46061  -0.44557  -0.43489  -0.42287
 Alpha  occ. eigenvalues --   -0.41505  -0.41195  -0.39435  -0.39092  -0.37769
 Alpha  occ. eigenvalues --   -0.36460  -0.35936  -0.34841  -0.33176  -0.32494
 Alpha  occ. eigenvalues --   -0.31381  -0.29909  -0.29756  -0.27195  -0.26211
 Alpha  occ. eigenvalues --   -0.24630  -0.23885  -0.22994
 Alpha virt. eigenvalues --    0.03553   0.05149   0.06286   0.07233   0.09419
 Alpha virt. eigenvalues --    0.09990   0.10858   0.11872   0.12937   0.14162
 Alpha virt. eigenvalues --    0.15236   0.16542   0.16943   0.17265   0.18360
 Alpha virt. eigenvalues --    0.19127   0.19486   0.20412   0.21130   0.22579
 Alpha virt. eigenvalues --    0.23018   0.25017   0.26149   0.27729   0.29603
 Alpha virt. eigenvalues --    0.31157   0.33998   0.37181   0.52287   0.53367
 Alpha virt. eigenvalues --    0.54511   0.55462   0.55687   0.57587   0.59647
 Alpha virt. eigenvalues --    0.61853   0.62143   0.64136   0.64921   0.66652
 Alpha virt. eigenvalues --    0.66795   0.68281   0.72627   0.73468   0.76174
 Alpha virt. eigenvalues --    0.76340   0.77581   0.77973   0.78449   0.79707
 Alpha virt. eigenvalues --    0.80788   0.82035   0.83700   0.84810   0.85225
 Alpha virt. eigenvalues --    0.85918   0.86583   0.87188   0.87585   0.88868
 Alpha virt. eigenvalues --    0.90641   0.91878   0.92274   0.92892   0.93531
 Alpha virt. eigenvalues --    0.96721   0.97858   0.99736   1.01116   1.01564
 Alpha virt. eigenvalues --    1.02369   1.02928   1.06926   1.08892   1.09955
 Alpha virt. eigenvalues --    1.12070   1.12643   1.14506   1.16399   1.18205
 Alpha virt. eigenvalues --    1.18340   1.19403   1.22002   1.22285   1.24478
 Alpha virt. eigenvalues --    1.27629   1.30885   1.33716   1.34181   1.36718
 Alpha virt. eigenvalues --    1.39850   1.41889   1.43010   1.45318   1.47899
 Alpha virt. eigenvalues --    1.50222   1.53097   1.54341   1.58582   1.59437
 Alpha virt. eigenvalues --    1.61640   1.64612   1.65386   1.66854   1.68535
 Alpha virt. eigenvalues --    1.69277   1.70110   1.71694   1.72616   1.73459
 Alpha virt. eigenvalues --    1.75996   1.76463   1.78998   1.79655   1.80493
 Alpha virt. eigenvalues --    1.81580   1.82268   1.83459   1.86661   1.87445
 Alpha virt. eigenvalues --    1.89946   1.91175   1.92722   1.95246   1.95424
 Alpha virt. eigenvalues --    1.97796   1.99001   2.01467   2.03728   2.04637
 Alpha virt. eigenvalues --    2.06064   2.09179   2.10158   2.10982   2.12917
 Alpha virt. eigenvalues --    2.13897   2.18196   2.21746   2.25427   2.26657
 Alpha virt. eigenvalues --    2.30036   2.33722   2.35297   2.36470   2.37626
 Alpha virt. eigenvalues --    2.41412   2.43204   2.44503   2.46101   2.47766
 Alpha virt. eigenvalues --    2.50827   2.51522   2.54439   2.56583   2.57898
 Alpha virt. eigenvalues --    2.59902   2.61049   2.64093   2.65127   2.70753
 Alpha virt. eigenvalues --    2.73958   2.79035   2.83340   2.86117   2.89372
 Alpha virt. eigenvalues --    2.91024   2.93185   2.99017   3.01850   3.07094
 Alpha virt. eigenvalues --    3.69457   3.70425   3.75094   3.81236   3.88454
 Alpha virt. eigenvalues --    3.96653   4.07714   4.13623   4.26716   4.35306
 Alpha virt. eigenvalues --    4.44355   4.54192   4.64760   4.82864
          Condensed to atoms (all electrons):
               1          2          3          4          5          6
     1  C    4.695201   0.042204   0.000792   0.010823  -0.010884  -0.018227
     2  O    0.042204   8.661753   0.004700  -0.077690   0.129827  -0.036258
     3  H    0.000792   0.004700   0.357537   0.231847  -0.009245   0.000004
     4  O    0.010823  -0.077690   0.231847   8.394500   0.120779  -0.000058
     5  H   -0.010884   0.129827  -0.009245   0.120779   0.307213   0.002189
     6  C   -0.018227  -0.036258   0.000004  -0.000058   0.002189   5.071511
     7  C   -0.007331   0.109916  -0.000176   0.002810  -0.008068   0.295926
     8  H    0.001354   0.002563   0.000000   0.000000  -0.000038   0.356423
     9  H    0.002214  -0.035074   0.000011   0.000263  -0.001279  -0.048815
    10  O    0.000147   0.001422  -0.000000   0.000000  -0.000020   0.162017
    11  H    0.000049   0.000014   0.000000  -0.000000   0.000001  -0.026830
    12  C    0.000870  -0.029126   0.000051  -0.000412  -0.002331  -0.024077
    13  O   -0.000015   0.001485   0.000000   0.000001   0.000056  -0.002744
    14  H   -0.000144   0.000176  -0.000025   0.000404   0.004842   0.004139
    15  H   -0.000005   0.005268   0.000009   0.000016  -0.000140  -0.010880
    16  H   -0.000003  -0.000056   0.000000  -0.000000   0.000009   0.002077
    17  H    0.355791  -0.054479   0.000000  -0.000211   0.002850   0.000588
    18  O    0.388630  -0.076617   0.006385  -0.075765   0.009301   0.000274
    19  H   -0.013100   0.005389  -0.007944   0.169287  -0.013973   0.000017
    20  O    0.000000   0.000000  -0.000000   0.000000   0.000000   0.005047
    21  H    0.000000  -0.000000   0.000000  -0.000000   0.000000  -0.000001
    22  H   -0.000003  -0.000006   0.000000  -0.000000   0.000000  -0.005441
    23  C   -0.023057   0.001446  -0.000004   0.000017  -0.000103   0.310836
    24  H    0.004940   0.000079   0.000000  -0.000000   0.000003  -0.060504
    25  C    0.271935  -0.009282   0.000092  -0.000277   0.000438  -0.034188
    26  H   -0.036573   0.001805  -0.000001   0.000002  -0.000065   0.005007
    27  O   -0.021926  -0.001271   0.000001  -0.000006  -0.000187   0.000677
    28  H   -0.010411   0.000512  -0.000015   0.000146   0.000112  -0.000227
    29  O    0.003187  -0.000242   0.000000  -0.000000   0.000005  -0.054673
    30  H   -0.000171  -0.000005  -0.000000   0.000000   0.000000   0.003716
               7          8          9         10         11         12
     1  C   -0.007331   0.001354   0.002214   0.000147   0.000049   0.000870
     2  O    0.109916   0.002563  -0.035074   0.001422   0.000014  -0.029126
     3  H   -0.000176   0.000000   0.000011  -0.000000   0.000000   0.000051
     4  O    0.002810   0.000000   0.000263   0.000000  -0.000000  -0.000412
     5  H   -0.008068  -0.000038  -0.001279  -0.000020   0.000001  -0.002331
     6  C    0.295926   0.356423  -0.048815   0.162017  -0.026830  -0.024077
     7  C    5.071891  -0.033169   0.350944  -0.027071  -0.002581   0.312043
     8  H   -0.033169   0.562985   0.004527  -0.037574   0.006467  -0.007480
     9  H    0.350944   0.004527   0.584408   0.000583   0.005131  -0.041311
    10  O   -0.027071  -0.037574   0.000583   8.311125   0.229792  -0.000019
    11  H   -0.002581   0.006467   0.005131   0.229792   0.375152  -0.001648
    12  C    0.312043  -0.007480  -0.041311  -0.000019  -0.001648   4.885067
    13  O   -0.042551   0.000182   0.004890  -0.018832   0.006404   0.248748
    14  H   -0.036650  -0.000003  -0.005046  -0.000103  -0.000004   0.374672
    15  H   -0.043132   0.004787   0.005299   0.000476   0.000299   0.350560
    16  H   -0.006692  -0.000738  -0.000641   0.035841  -0.004165  -0.024373
    17  H    0.004305   0.000158   0.000311  -0.000002  -0.000000  -0.000160
    18  O    0.002174   0.000004   0.002694  -0.000000  -0.000001  -0.000117
    19  H   -0.000203   0.000001  -0.000042  -0.000000   0.000000  -0.000004
    20  O    0.000061   0.001040   0.000001  -0.017690   0.000793  -0.000001
    21  H    0.000001   0.000064   0.000000   0.000512  -0.000003  -0.000000
    22  H    0.000614  -0.001312  -0.000023   0.049691  -0.002702  -0.000008
    23  C   -0.041931  -0.038554  -0.006585  -0.030839  -0.003699   0.003314
    24  H    0.002663   0.004485   0.000335   0.000004   0.004981  -0.000158
    25  C   -0.000872   0.000429  -0.007205   0.002379  -0.000057   0.000285
    26  H    0.000124  -0.000230   0.000321  -0.000070  -0.000007   0.000011
    27  O   -0.004029  -0.000028   0.020716  -0.000147   0.000241   0.000348
    28  H    0.000607   0.000011  -0.000520   0.000007  -0.000009  -0.000026
    29  O    0.004419   0.005566   0.000063   0.001878  -0.000070  -0.000061
    30  H   -0.000077   0.000440   0.000000  -0.000087  -0.000014   0.000002
              13         14         15         16         17         18
     1  C   -0.000015  -0.000144  -0.000005  -0.000003   0.355791   0.388630
     2  O    0.001485   0.000176   0.005268  -0.000056  -0.054479  -0.076617
     3  H    0.000000  -0.000025   0.000009   0.000000   0.000000   0.006385
     4  O    0.000001   0.000404   0.000016  -0.000000  -0.000211  -0.075765
     5  H    0.000056   0.004842  -0.000140   0.000009   0.002850   0.009301
     6  C   -0.002744   0.004139  -0.010880   0.002077   0.000588   0.000274
     7  C   -0.042551  -0.036650  -0.043132  -0.006692   0.004305   0.002174
     8  H    0.000182  -0.000003   0.004787  -0.000738   0.000158   0.000004
     9  H    0.004890  -0.005046   0.005299  -0.000641   0.000311   0.002694
    10  O   -0.018832  -0.000103   0.000476   0.035841  -0.000002  -0.000000
    11  H    0.006404  -0.000004   0.000299  -0.004165  -0.000000  -0.000001
    12  C    0.248748   0.374672   0.350560  -0.024373  -0.000160  -0.000117
    13  O    8.292178  -0.038026  -0.032043   0.223410   0.000001   0.000000
    14  H   -0.038026   0.576169  -0.040321   0.005736   0.000001   0.000013
    15  H   -0.032043  -0.040321   0.634661  -0.007028   0.000007   0.000003
    16  H    0.223410   0.005736  -0.007028   0.373924  -0.000000  -0.000000
    17  H    0.000001   0.000001   0.000007  -0.000000   0.689464  -0.051052
    18  O    0.000000   0.000013   0.000003  -0.000000  -0.051052   8.403713
    19  H    0.000000   0.000021   0.000001   0.000000  -0.000416   0.100671
    20  O   -0.000000  -0.000000   0.000000   0.000001   0.000000   0.000000
    21  H    0.000000   0.000000   0.000000  -0.000002  -0.000000  -0.000000
    22  H    0.000025   0.000000  -0.000003   0.000055  -0.000000  -0.000000
    23  C    0.000019  -0.000124  -0.000001   0.000324  -0.000183   0.002572
    24  H   -0.000003   0.000004  -0.000003   0.000005  -0.000142  -0.000078
    25  C    0.000010   0.000027  -0.000003  -0.000017  -0.076381  -0.066013
    26  H   -0.000000  -0.000000  -0.000000   0.000000   0.001940  -0.000834
    27  O   -0.000001   0.000001  -0.000005  -0.000000   0.002696  -0.023818
    28  H   -0.000000  -0.000000  -0.000000  -0.000000   0.001804   0.051627
    29  O    0.000000   0.000001  -0.000007  -0.000005   0.002615   0.000009
    30  H    0.000000  -0.000000   0.000001  -0.000000  -0.000020   0.000001
              19         20         21         22         23         24
     1  C   -0.013100   0.000000   0.000000  -0.000003  -0.023057   0.004940
     2  O    0.005389   0.000000  -0.000000  -0.000006   0.001446   0.000079
     3  H   -0.007944  -0.000000   0.000000   0.000000  -0.000004   0.000000
     4  O    0.169287   0.000000  -0.000000  -0.000000   0.000017  -0.000000
     5  H   -0.013973   0.000000   0.000000   0.000000  -0.000103   0.000003
     6  C    0.000017   0.005047  -0.000001  -0.005441   0.310836  -0.060504
     7  C   -0.000203   0.000061   0.000001   0.000614  -0.041931   0.002663
     8  H    0.000001   0.001040   0.000064  -0.001312  -0.038554   0.004485
     9  H   -0.000042   0.000001   0.000000  -0.000023  -0.006585   0.000335
    10  O   -0.000000  -0.017690   0.000512   0.049691  -0.030839   0.000004
    11  H    0.000000   0.000793  -0.000003  -0.002702  -0.003699   0.004981
    12  C   -0.000004  -0.000001  -0.000000  -0.000008   0.003314  -0.000158
    13  O    0.000000  -0.000000   0.000000   0.000025   0.000019  -0.000003
    14  H    0.000021  -0.000000   0.000000   0.000000  -0.000124   0.000004
    15  H    0.000001   0.000000   0.000000  -0.000003  -0.000001  -0.000003
    16  H    0.000000   0.000001  -0.000002   0.000055   0.000324   0.000005
    17  H   -0.000416   0.000000  -0.000000  -0.000000  -0.000183  -0.000142
    18  O    0.100671   0.000000  -0.000000  -0.000000   0.002572  -0.000078
    19  H    0.304543  -0.000000   0.000000   0.000000  -0.000058   0.000002
    20  O   -0.000000   8.335587   0.242538   0.214056  -0.000334   0.003182
    21  H    0.000000   0.242538   0.370899  -0.011882  -0.000026  -0.000075
    22  H    0.000000   0.214056  -0.011882   0.336312  -0.000746  -0.000153
    23  C   -0.000058  -0.000334  -0.000026  -0.000746   4.951396   0.356596
    24  H    0.000002   0.003182  -0.000075  -0.000153   0.356596   0.612816
    25  C    0.001807   0.000071  -0.000002   0.000019   0.297070  -0.036161
    26  H   -0.000043   0.000001  -0.000000  -0.000003  -0.042895  -0.004015
    27  O    0.000060   0.000000  -0.000000  -0.000003  -0.043467   0.003646
    28  H   -0.000561  -0.000000   0.000000   0.000000   0.007354  -0.000258
    29  O    0.000000  -0.022511   0.001145   0.002952   0.199298  -0.027454
    30  H   -0.000000   0.051280  -0.001999  -0.004363  -0.021996  -0.007716
              25         26         27         28         29         30
     1  C    0.271935  -0.036573  -0.021926  -0.010411   0.003187  -0.000171
     2  O   -0.009282   0.001805  -0.001271   0.000512  -0.000242  -0.000005
     3  H    0.000092  -0.000001   0.000001  -0.000015   0.000000  -0.000000
     4  O   -0.000277   0.000002  -0.000006   0.000146  -0.000000   0.000000
     5  H    0.000438  -0.000065  -0.000187   0.000112   0.000005   0.000000
     6  C   -0.034188   0.005007   0.000677  -0.000227  -0.054673   0.003716
     7  C   -0.000872   0.000124  -0.004029   0.000607   0.004419  -0.000077
     8  H    0.000429  -0.000230  -0.000028   0.000011   0.005566   0.000440
     9  H   -0.007205   0.000321   0.020716  -0.000520   0.000063   0.000000
    10  O    0.002379  -0.000070  -0.000147   0.000007   0.001878  -0.000087
    11  H   -0.000057  -0.000007   0.000241  -0.000009  -0.000070  -0.000014
    12  C    0.000285   0.000011   0.000348  -0.000026  -0.000061   0.000002
    13  O    0.000010  -0.000000  -0.000001  -0.000000   0.000000   0.000000
    14  H    0.000027  -0.000000   0.000001  -0.000000   0.000001  -0.000000
    15  H   -0.000003  -0.000000  -0.000005  -0.000000  -0.000007   0.000001
    16  H   -0.000017   0.000000  -0.000000  -0.000000  -0.000005  -0.000000
    17  H   -0.076381   0.001940   0.002696   0.001804   0.002615  -0.000020
    18  O   -0.066013  -0.000834  -0.023818   0.051627   0.000009   0.000001
    19  H    0.001807  -0.000043   0.000060  -0.000561   0.000000  -0.000000
    20  O    0.000071   0.000001   0.000000  -0.000000  -0.022511   0.051280
    21  H   -0.000002  -0.000000  -0.000000   0.000000   0.001145  -0.001999
    22  H    0.000019  -0.000003  -0.000003   0.000000   0.002952  -0.004363
    23  C    0.297070  -0.042895  -0.043467   0.007354   0.199298  -0.021996
    24  H   -0.036161  -0.004015   0.003646  -0.000258  -0.027454  -0.007716
    25  C    5.090201   0.351506   0.198819  -0.040726  -0.046811   0.004704
    26  H    0.351506   0.600798  -0.035834   0.000786   0.007443   0.000144
    27  O    0.198819  -0.035834   8.359548   0.212741   0.001529  -0.000110
    28  H   -0.040726   0.000786   0.212741   0.376626  -0.000124   0.000007
    29  O   -0.046811   0.007443   0.001529  -0.000124   8.386342   0.220508
    30  H    0.004704   0.000144  -0.000110   0.000007   0.220508   0.330665
 Mulliken charges:
               1
     1  C    0.363713
     2  O   -0.648455
     3  H    0.415981
     4  O   -0.776476
     5  H    0.468709
     6  C    0.102476
     7  C    0.096037
     8  H    0.167639
     9  H    0.163832
    10  O   -0.663419
    11  H    0.412465
    12  C   -0.044658
    13  O   -0.643193
    14  H    0.154239
    15  H    0.132185
    16  H    0.402338
    17  H    0.120515
    18  O   -0.673776
    19  H    0.454547
    20  O   -0.813121
    21  H    0.398831
    22  H    0.422923
    23  C    0.124359
    24  H    0.142979
    25  C    0.098201
    26  H    0.150683
    27  O   -0.670188
    28  H    0.400538
    29  O   -0.684999
    30  H    0.425093
 Sum of Mulliken charges =  -0.00000
 Mulliken charges with hydrogens summed into heavy atoms:
               1
     1  C    0.484228
     2  O   -0.179746
     4  O    0.094052
     6  C    0.270116
     7  C    0.259869
    10  O   -0.250954
    12  C    0.241767
    13  O   -0.240856
    18  O   -0.673776
    20  O    0.008634
    23  C    0.267338
    25  C    0.248885
    27  O   -0.269650
    29  O   -0.259906
 APT charges:
               1
     1  C   -0.345074
     2  O   -0.397387
     3  H    0.735812
     4  O   -1.054335
     5  H    0.460735
     6  C   -0.180529
     7  C   -0.160671
     8  H    0.411566
     9  H    0.319112
    10  O   -0.817382
    11  H    0.595650
    12  C   -0.765608
    13  O   -0.629163
    14  H    0.548155
    15  H    0.408925
    16  H    0.491282
    17  H    0.388811
    18  O   -0.447650
    19  H    0.433716
    20  O   -1.219264
    21  H    1.026699
    22  H    0.231224
    23  C   -0.296900
    24  H    0.440428
    25  C   -0.426852
    26  H    0.565896
    27  O   -0.761451
    28  H    0.636848
    29  O   -0.924692
    30  H    0.732099
 Sum of APT charges =  -0.00000
 APT charges with hydrogens summed into heavy atoms:
               1
     1  C    0.043736
     2  O    0.063349
     4  O    0.115193
     6  C    0.231037
     7  C    0.158441
    10  O   -0.221732
    12  C    0.191471
    13  O   -0.137881
    18  O   -0.447650
    20  O    0.038659
    23  C    0.143528
    25  C    0.139044
    27  O   -0.124603
    29  O   -0.192593
 Electronic spatial extent (au):  <R**2>=           3203.8545
 Charge=              0.0000 electrons
 Dipole moment (field-independent basis, Debye):
    X=              1.1246    Y=              1.9262    Z=             -2.2930  Tot=              3.1989
 Quadrupole moment (field-independent basis, Debye-Ang):
   XX=            -66.0961   YY=            -96.3977   ZZ=            -81.3670
   XY=              4.2224   XZ=              3.1467   YZ=             -2.1591
 Traceless Quadrupole moment (field-independent basis, Debye-Ang):
   XX=             15.1909   YY=            -15.1107   ZZ=             -0.0801
   XY=              4.2224   XZ=              3.1467   YZ=             -2.1591
 Octapole moment (field-independent basis, Debye-Ang**2):
  XXX=             49.6010  YYY=            -25.7184  ZZZ=             -3.5285  XYY=              6.8796
  XXY=             17.4109  XXZ=            -44.2776  XZZ=             -5.4495  YZZ=              7.8354
  YYZ=            -11.1082  XYZ=              3.1211
 Hexadecapole moment (field-independent basis, Debye-Ang**3):
 XXXX=          -1575.0706 YYYY=          -1482.7562 ZZZZ=           -328.5645 XXXY=             68.2915
 XXXZ=            -37.6287 YYYX=              2.6539 YYYZ=            -44.8131 ZZZX=             11.3481
 ZZZY=              9.2967 XXYY=           -574.1709 XXZZ=           -293.4380 YYZZ=           -291.5306
 XXYZ=             12.1049 YYXZ=              2.3865 ZZXY=             14.8630
 N-N= 1.111596012459D+03 E-N=-4.196084942572D+03  KE= 8.325465133477D+02
  Exact polarizability:   0.000   0.000   0.000   0.000   0.000   0.000
 Approx polarizability: 150.728   0.956 130.388  -4.217   3.338 131.537
 Calling FoFJK, ICntrl=    100147 FMM=F ISym2X=0 I1Cent= 0 IOpClX= 0 NMat=1 NMatS=1 NMatT=0.
 ***** Axes restored to original set *****
 -------------------------------------------------------------------
 Center     Atomic                   Forces (Hartrees/Bohr)
 Number     Number              X              Y              Z
 -------------------------------------------------------------------
      1        6           0.013739754    0.010353459    0.002179916
      2        8           0.000502361    0.014041546    0.032141510
      3        1           0.001186679    0.000421049    0.001772752
      4        8           0.003329134    0.011667282   -0.009654161
      5        1          -0.009159122   -0.018126354   -0.019496793
      6        6          -0.003127697    0.014026739    0.004036588
      7        6           0.011080778   -0.011228287    0.002364028
      8        1           0.005912494    0.014524687   -0.008362320
      9        1          -0.003311844   -0.011732735    0.006705614
     10        8          -0.016962648    0.011662466    0.004253065
     11        1           0.005705102   -0.015920756    0.000517171
     12        6          -0.014678504    0.013357958    0.007087963
     13        8          -0.013731878   -0.002627386    0.008943356
     14        1          -0.002940179   -0.007760811   -0.006124092
     15        1           0.003561493    0.001467908   -0.006187814
     16        1           0.022642514    0.006815703   -0.003367410
     17        1          -0.003767051    0.000677835   -0.008619179
     18        8           0.011201783    0.010275863   -0.035731416
     19        1          -0.013775689   -0.017546981    0.025643775
     20        8           0.002847112    0.008792790   -0.010721983
     21        1          -0.011082721   -0.011843289    0.007799528
     22        1           0.003930777    0.001466450    0.001915681
     23        6          -0.005196323   -0.027810560   -0.012908170
     24        1           0.013161729   -0.003994362    0.004251686
     25        6          -0.005217176    0.019509635   -0.006136207
     26        1           0.001794379   -0.003229794    0.015046524
     27        8           0.017231973    0.008647733   -0.000548291
     28        1          -0.017981378   -0.019936180    0.004386777
     29        8          -0.020198717   -0.007948189   -0.005901870
     30        1           0.023302865    0.011996580    0.004713774
 -------------------------------------------------------------------
 Cartesian Forces:  Max     0.035731416 RMS     0.012118855

 GradGradGradGradGradGradGradGradGradGradGradGradGradGradGradGradGradGrad
 Berny optimization.
 Search for a saddle point.
 Step number   1 out of a maximum of  180
 All quantities printed in internal units (Hartrees-Bohrs-Radians)
 Swapping is turned off.
 Second derivative matrix not updated -- analytic derivatives used.
 ITU=  0
     Eigenvalues ---   -0.10195  -0.01469  -0.00256  -0.00172   0.00097
     Eigenvalues ---    0.00204   0.00275   0.00357   0.00479   0.00693
     Eigenvalues ---    0.00832   0.00868   0.01072   0.01149   0.01405
     Eigenvalues ---    0.01490   0.01686   0.01803   0.01938   0.02231
     Eigenvalues ---    0.02260   0.02675   0.02921   0.03187   0.03660
     Eigenvalues ---    0.04082   0.04404   0.04700   0.05203   0.05427
     Eigenvalues ---    0.05599   0.05977   0.06371   0.06782   0.07006
     Eigenvalues ---    0.08044   0.08168   0.08692   0.08786   0.09645
     Eigenvalues ---    0.10228   0.11569   0.12306   0.12810   0.13681
     Eigenvalues ---    0.14085   0.16267   0.16345   0.16655   0.17364
     Eigenvalues ---    0.18009   0.19602   0.19902   0.20578   0.22933
     Eigenvalues ---    0.24846   0.26154   0.28848   0.33894   0.37209
     Eigenvalues ---    0.40085   0.41371   0.50409   0.54913   0.55499
     Eigenvalues ---    0.57678   0.59506   0.61927   0.63568   0.68203
     Eigenvalues ---    0.74971   0.75968   0.77536   0.79731   0.80724
     Eigenvalues ---    0.81237   0.84885   0.86526   0.87773   0.92612
     Eigenvalues ---    0.93553   0.97842   1.14533   1.25004
 Eigenvectors required to have negative eigenvalues:
                          X5        X19       Z1        Z2        X4
   1                    0.69812  -0.36024   0.29135  -0.24058  -0.23850
                          Z19       Y5        X2        X18       Y18
   1                   -0.21534   0.18984  -0.13218   0.09385   0.09366
 RFO step:  Lambda0=4.291765850D-03 Lambda=-4.43133838D-02.
 Linear search not attempted -- option 19 set.
 Maximum step size (   0.300) exceeded in Quadratic search.
    -- Step size scaled by   0.275
 B after Tr=    -0.004622    0.003882    0.000015
         Rot=    1.000000   -0.000361    0.000202    0.000390 Ang=  -0.07 deg.
 Variable       Old X    -DE/DX   Delta X   Delta X   Delta X     New X
                                 (Linear)    (Quad)   (Total)
    X1        0.00000   0.01374   0.00000   0.02278   0.01819   0.01819
    Y1        0.00000   0.01035   0.00000   0.03612   0.03998   0.03998
    Z1       -0.00000   0.00218   0.00000   0.00135   0.00140   0.00140
    X2        0.00000   0.00050   0.00000   0.00009  -0.00581  -0.00581
    Y2       -0.00000   0.01404   0.00000  -0.00820  -0.00658  -0.00658
    Z2        3.13304   0.03214   0.00000   0.00873   0.00873   3.14177
    X3        5.18764   0.00119   0.00000   0.01672   0.01083   5.19847
    Y3       -0.00000   0.00042   0.00000  -0.01033  -0.01277  -0.01277
    Z3        3.10700   0.00177   0.00000   0.02167   0.02378   3.13077
    X4        4.36372   0.00333   0.00000  -0.02267  -0.02734   4.33638
    Y4        1.64165   0.01167   0.00000  -0.02876  -0.03060   1.61106
    Z4        3.21270  -0.00965   0.00000   0.00960   0.01253   3.22523
    X5        2.01150  -0.00916   0.00000   0.02216   0.01685   2.02836
    Y5        1.06069  -0.01813   0.00000  -0.05209  -0.05242   1.00827
    Z5        3.64661  -0.01950   0.00000  -0.00841  -0.00685   3.63976
    X6       -4.47028  -0.00313   0.00000  -0.00239  -0.00844  -4.47872
    Y6       -0.04562   0.01403   0.00000   0.00898   0.01385  -0.03177
    Z6        3.48188   0.00404   0.00000  -0.00198  -0.00380   3.47808
    X7       -2.06632   0.01108   0.00000   0.00505  -0.00025  -2.06657
    Y7        1.37321  -0.01123   0.00000  -0.01023  -0.00785   1.36537
    Z7        4.30768   0.00236   0.00000   0.00332   0.00349   4.31116
    X8       -4.44780   0.00591   0.00000   0.00887   0.00099  -4.44681
    Y8       -2.05750   0.01452   0.00000   0.01913   0.02351  -2.03398
    Z8        4.12301  -0.00836   0.00000  -0.00528  -0.00853   4.11448
    X9       -2.06167  -0.00331   0.00000   0.00420   0.00073  -2.06095
    Y9        3.35934  -0.01173   0.00000  -0.01808  -0.01519   3.34414
    Z9        3.59697   0.00671   0.00000   0.00752   0.00911   3.60609
   X10       -6.62148  -0.01696   0.00000  -0.01221  -0.01799  -6.63947
   Y10        0.98981   0.01166   0.00000   0.00818   0.01379   1.00360
   Z10        4.79345   0.00425   0.00000  -0.00844  -0.01038   4.78306
   X11       -6.81418   0.00571   0.00000   0.00946   0.00526  -6.80891
   Y11        2.80969  -0.01592   0.00000   0.00088   0.00691   2.81660
   Z11        4.40355   0.00052   0.00000  -0.01249  -0.01320   4.39036
   X12       -1.61379  -0.01468   0.00000  -0.00951  -0.01605  -1.62984
   Y12        1.25271   0.01336   0.00000   0.00768   0.00765   1.26036
   Z12        7.17861   0.00709   0.00000   0.00479   0.00505   7.18366
   X13       -3.57676  -0.01373   0.00000   0.00336  -0.00266  -3.57942
   Y13        2.58591  -0.00263   0.00000   0.00833   0.00890   2.59480
   Z13        8.45334   0.00894   0.00000   0.01162   0.01207   8.46540
   X14        0.12032  -0.00294   0.00000   0.00222  -0.00375   0.11658
   Y14        2.28586  -0.00776   0.00000  -0.01294  -0.01472   2.27114
   Z14        7.73389  -0.00612   0.00000  -0.01530  -0.01360   7.72029
   X15       -1.50168   0.00356   0.00000   0.00070  -0.00765  -1.50933
   Y15       -0.71426   0.00147   0.00000   0.00406   0.00345  -0.71081
   Z15        7.86834  -0.00619   0.00000  -0.00865  -0.00976   7.85858
   X16       -5.21387   0.02264   0.00000   0.01832   0.01171  -5.20216
   Y16        1.68923   0.00682   0.00000   0.01238   0.01440   1.70362
   Z16        8.22043  -0.00337   0.00000  -0.01120  -0.01206   8.20838
   X17        0.37611  -0.00377   0.00000   0.03135   0.02522   0.40133
   Y17       -2.04776   0.00068   0.00000   0.03959   0.04326  -2.00450
   Z17       -0.11342  -0.00862   0.00000  -0.03844  -0.03970  -0.15312
   X18        1.75775   0.01120   0.00000   0.01067   0.00755   1.76530
   Y18        1.59234   0.01028   0.00000   0.05776   0.06065   1.65298
   Z18       -0.51269  -0.03573   0.00000  -0.02125  -0.01933  -0.53203
   X19        4.00756  -0.01378   0.00000  -0.07793  -0.08147   3.92609
   Y19        2.09646  -0.01755   0.00000  -0.05814  -0.05824   2.03822
   Z19        1.25449   0.02564   0.00000   0.00830   0.01137   1.26585
   X20      -10.07449   0.00285   0.00000  -0.07588  -0.08268 -10.15717
   Y20       -1.81756   0.00879   0.00000   0.04023   0.05063  -1.76693
   Z20        1.96337  -0.01072   0.00000  -0.01185  -0.01721   1.94617
   X21      -11.20511  -0.01108   0.00000   0.14219   0.13400 -11.07111
   Y21       -3.06321  -0.01184   0.00000  -0.10835  -0.09777  -3.16098
   Z21        2.59277   0.00780   0.00000   0.10961   0.10287   2.69564
   X22       -9.40532   0.00393   0.00000   0.02469   0.01803  -9.38728
   Y22       -0.90387   0.00147   0.00000   0.03929   0.04808  -0.85579
   Z22        3.41222   0.00192   0.00000  -0.05164  -0.05603   3.35619
   X23       -4.92028  -0.00520   0.00000   0.01021   0.00539  -4.91488
   Y23        0.08822  -0.02781   0.00000  -0.03177  -0.02448   0.06374
   Z23        0.59514  -0.01291   0.00000  -0.00849  -0.01042   0.58472
   X24       -6.53310   0.01316   0.00000   0.02775   0.02413  -6.50897
   Y24        1.38481  -0.00399   0.00000  -0.02090  -0.01205   1.37276
   Z24        0.16523   0.00425   0.00000  -0.00663  -0.00825   0.15697
   X25       -2.60366  -0.00522   0.00000   0.00653   0.00300  -2.60066
   Y25        0.90629   0.01951   0.00000   0.00722   0.01382   0.92010
   Z25       -0.95720  -0.00614   0.00000   0.00428   0.00391  -0.95329
   X26       -2.84466   0.00179   0.00000   0.01650   0.01326  -2.83140
   Y26        0.26366  -0.00323   0.00000  -0.01707  -0.00886   0.25480
   Z26       -2.96039   0.01505   0.00000   0.01984   0.01889  -2.94150
   X27       -2.66902   0.01723   0.00000  -0.01054  -0.01196  -2.68098
   Y27        3.61435   0.00865   0.00000  -0.00192   0.00473   3.61908
   Z27       -0.93656  -0.00055   0.00000   0.00013   0.00167  -0.93489
   X28       -0.90188  -0.01798   0.00000  -0.01498  -0.01580  -0.91768
   Y28        4.25768  -0.01994   0.00000  -0.02691  -0.02144   4.23625
   Z28       -1.22738   0.00439   0.00000   0.00781   0.01051  -1.21687
   X29       -5.48371  -0.02020   0.00000  -0.00488  -0.01128  -5.49499
   Y29       -2.40601  -0.00795   0.00000  -0.02181  -0.01344  -2.41944
   Z29       -0.27445  -0.00590   0.00000  -0.00269  -0.00664  -0.28109
   X30       -7.33553   0.02330   0.00000   0.00472  -0.00204  -7.33757
   Y30       -2.76084   0.01200   0.00000   0.01320   0.02282  -2.73803
   Z30       -0.02944   0.00471   0.00000   0.01531   0.01039  -0.01905
         Item               Value     Threshold  Converged?
 Maximum Force            0.035731     0.000450     NO 
 RMS     Force            0.012119     0.000300     NO 
 Maximum Displacement     0.134002     0.001800     NO 
 RMS     Displacement     0.031254     0.001200     NO 
 Predicted change in Energy=-1.092570D-02
 GradGradGradGradGradGradGradGradGradGradGradGradGradGradGradGradGradGrad

                          Input orientation:                          
 ---------------------------------------------------------------------
 Center     Atomic      Atomic             Coordinates (Angstroms)
 Number     Number       Type             X           Y           Z
 ---------------------------------------------------------------------
      1          6           0        0.009625    0.021157    0.000741
      2          8           0       -0.003073   -0.003484    1.662555
      3          1           0        2.750913   -0.006756    1.656733
      4          8           0        2.294716    0.852535    1.706717
      5          1           0        1.073360    0.533555    1.926078
      6          6           0       -2.370038   -0.016814    1.840522
      7          6           0       -1.093579    0.722522    2.281370
      8          1           0       -2.353152   -1.076337    2.177290
      9          1           0       -1.090606    1.769644    1.908258
     10          8           0       -3.513454    0.531082    2.531087
     11          1           0       -3.603121    1.490479    2.323276
     12          6           0       -0.862473    0.666954    3.801429
     13          8           0       -1.894146    1.373111    4.479698
     14          1           0        0.061690    1.201833    4.085400
     15          1           0       -0.798703   -0.376145    4.158581
     16          1           0       -2.752864    0.901519    4.343686
     17          1           0        0.212375   -1.060734   -0.081029
     18          8           0        0.934158    0.874722   -0.281536
     19          1           0        2.077595    1.078579    0.669861
     20          8           0       -5.374943   -0.935019    1.029867
     21          1           0       -5.858580   -1.672718    1.426471
     22          1           0       -4.967537   -0.452865    1.776019
     23          6           0       -2.600845    0.033730    0.309420
     24          1           0       -3.444401    0.726433    0.083066
     25          6           0       -1.376209    0.486897   -0.504461
     26          1           0       -1.498313    0.134834   -1.556575
     27          8           0       -1.418715    1.915135   -0.494721
     28          1           0       -0.485617    2.241725   -0.643939
     29          8           0       -2.907825   -1.280315   -0.148748
     30          1           0       -3.882875   -1.448902   -0.010080
 ---------------------------------------------------------------------
                    Distance matrix (angstroms):
                    1          2          3          4          5
     1  C    0.000000
     2  O    1.662045   0.000000
     3  H    3.202772   2.753994   0.000000
     4  O    2.970384   2.452458   0.974164   0.000000
     5  H    2.258541   1.231488   1.782881   1.281240   0.000000
     6  C    3.008161   2.373683   5.124258   4.746956   3.488154
     7  C    2.628734   1.448868   3.962592   3.439138   2.203989
     8  H    3.394787   2.634168   5.240846   5.054173   3.794186
     9  H    2.811821   2.094535   4.239826   3.513134   2.492184
    10  O    4.367467   3.655528   6.347918   5.875181   4.626544
    11  H    4.539275   3.953331   6.561992   5.964193   4.789880
    12  C    3.952574   2.400591   4.255604   3.793428   2.698553
    13  O    5.051058   3.661621   5.608007   5.050445   4.003989
    14  H    4.252194   2.706873   3.819821   3.281242   2.476438
    15  H    4.254277   2.646139   4.358379   4.134070   3.052253
    16  H    5.221835   3.945737   6.191627   5.695091   4.540949
    17  H    1.103758   2.050435   3.251901   3.345561   2.703985
    18  O    1.289579   2.330051   2.799016   2.409307   2.238154
    19  H    2.417098   2.546660   1.614071   1.083193   1.698122
    20  O    5.564796   5.488628   8.202693   7.904248   6.673869
    21  H    6.271981   6.093360   8.772219   8.540004   7.291711
    22  H    5.305512   4.986052   7.732251   7.378969   6.122743
    23  C    2.628687   2.929296   5.518895   5.156490   4.045144
    24  H    3.526257   3.856203   6.433965   5.965702   4.883038
    25  C    1.546829   2.611883   4.684825   4.301010   3.451099
    26  H    2.170722   3.552137   5.329289   5.054823   4.347569
    27  O    2.423385   3.215428   5.070327   4.445786   3.738913
    28  H    2.364699   3.254800   4.563319   3.896881   3.457346
    29  O    3.198076   3.653588   6.074787   5.920999   4.841990
    30  H    4.160859   4.465401   6.990365   6.812241   5.678302
                    6          7          8          9         10
     6  C    0.000000
     7  C    1.539581   0.000000
     8  H    1.111885   2.198465   0.000000
     9  H    2.198400   1.111614   3.125061   0.000000
    10  O    1.443770   2.440246   2.013769   2.791441   0.000000
    11  H    2.006360   2.624751   2.858720   2.561817   0.985733
    12  C    2.566212   1.538531   2.810518   2.202740   2.942776
    13  O    3.020533   2.428338   3.392870   2.723090   2.669880
    14  H    3.526738   2.195202   3.829152   2.527873   3.955686
    15  H    2.823404   2.194981   2.613828   3.123070   3.292669
    16  H    2.693645   2.653001   2.960567   3.073768   2.000309
    17  H    3.383930   3.235189   3.417921   3.696764   4.820667
    18  O    4.026869   3.271601   4.545203   3.113801   5.273537
    19  H    4.727765   3.574924   5.152429   3.471123   5.918086
    20  O    3.244953   4.758548   3.235394   5.142209   2.805041
    21  H    3.883733   5.401227   3.634202   5.900470   3.402430
    22  H    2.634635   4.079762   2.717488   4.470752   1.911187
    23  C    1.549225   2.575823   2.186901   2.801874   2.452757
    24  H    2.189823   3.218527   2.970956   3.155941   2.456774
    25  C    2.596221   2.810026   3.254214   2.747402   3.712724
    26  H    3.510437   3.903717   4.017392   3.852778   4.574581
    27  O    3.176602   3.038868   4.118461   2.429636   3.931800
    28  H    3.850271   3.351869   4.738835   2.665067   4.709022
    29  O    2.417198   3.634325   2.399943   4.103146   3.290815
    30  H    2.786446   4.212599   2.695078   4.672882   3.242582
                   11         12         13         14         15
    11  H    0.000000
    12  C    3.220913   0.000000
    13  O    2.754002   1.422342   0.000000
    14  H    4.076670   1.104904   2.002524   0.000000
    15  H    3.836325   1.104391   2.088782   1.798790   0.000000
    16  H    2.269773   1.980566   0.989088   2.842290   2.342100
    17  H    5.181447   4.383342   5.582228   4.743527   4.411942
    18  O    5.267932   4.465608   5.560311   4.465237   4.927689
    19  H    5.930766   4.315107   5.511473   3.967994   4.749787
    20  O    3.270368   5.532654   5.417080   6.592375   5.571640
    21  H    3.987126   6.006295   5.857987   7.098066   5.894733
    22  H    2.436741   4.712518   4.482165   5.776192   4.802256
    23  C    2.679980   3.951839   4.436731   4.765667   4.269865
    24  H    2.372236   4.527263   4.706576   5.342037   4.982491
    25  C    3.736631   4.340165   5.088760   4.862665   4.777270
    26  H    4.617493   5.421776   6.174675   5.950125   5.780447
    27  O    3.590692   4.508244   5.026398   4.865995   5.223753
    28  H    4.368932   4.731091   5.384246   4.873148   5.478637
    29  O    3.777783   4.855844   5.430537   5.736471   4.880472
    30  H    3.763347   5.303515   5.663649   6.273671   5.295343
                   16         17         18         19         20
    16  H    0.000000
    17  H    5.676371   0.000000
    18  O    5.915026   2.075371   0.000000
    19  H    6.071381   2.935905   1.501387   0.000000
    20  O    4.607556   5.698072   6.693258   7.728163   0.000000
    21  H    4.978184   6.285187   7.453055   8.433562   0.967161
    22  H    3.651308   5.536210   6.389525   7.294024   0.977341
    23  C    4.129342   3.043766   3.681405   4.807226   3.025416
    24  H    4.319926   4.073439   4.396215   5.564241   2.717324
    25  C    5.056838   2.257888   2.353274   3.695657   4.512857
    26  H    6.080690   2.555988   2.844305   4.316803   4.781478
    27  O    5.120308   3.418684   2.581457   3.778924   5.108766
    28  H    5.640298   3.422031   2.003945   3.106290   6.066205
    29  O    4.996637   3.128650   4.407114   5.575744   2.755909
    30  H    5.075105   4.114217   5.355065   6.509814   1.889929
                   21         22         23         24         25
    21  H    0.000000
    22  H    1.550543   0.000000
    23  C    3.843515   2.826467   0.000000
    24  H    3.659088   2.564523   1.114747   0.000000
    25  C    5.337048   4.356762   1.538667   2.163327   0.000000
    26  H    5.583703   4.846348   2.169732   2.612598   1.116156
    27  O    6.022962   4.832993   2.362998   2.418730   1.428904
    28  H    6.962629   5.762345   3.202862   3.402800   1.972823
    29  O    3.367825   2.937995   1.425086   2.090141   2.365464
    30  H    2.452995   2.314894   1.985921   2.221040   3.205481
                   26         27         28         29         30
    26  H    0.000000
    27  O    2.074450   0.000000
    28  H    2.509472   0.999800   0.000000
    29  O    2.443634   3.542323   4.303147   0.000000
    30  H    3.253614   4.198060   5.056073   0.999186   0.000000
 Stoichiometry    C6H16O8
 Framework group  C1[X(C6H16O8)]
 Deg. of freedom    84
 Full point group                 C1      NOp   1
 Largest Abelian subgroup         C1      NOp   1
 Largest concise Abelian subgroup C1      NOp   1
                         Standard orientation:                         
 ---------------------------------------------------------------------
 Center     Atomic      Atomic             Coordinates (Angstroms)
 Number     Number       Type             X           Y           Z
 ---------------------------------------------------------------------
      1          6           0       -1.423040   -1.349316   -0.451062
      2          8           0       -1.320080    0.284701   -0.737037
      3          1           0       -4.000764    0.316005   -1.367462
      4          8           0       -3.745446    0.502598   -0.446055
      5          1           0       -2.474135    0.648900   -0.508829
      6          6           0        0.996338    0.425615   -0.238314
      7          6           0       -0.388420    1.001155    0.110266
      8          1           0        1.233107    0.580859   -1.313548
      9          1           0       -0.643623    0.808282    1.174859
     10          8           0        2.022848    1.182330    0.438539
     11          1           0        1.885837    1.136501    1.413628
     12          6           0       -0.523186    2.493584   -0.238406
     13          8           0        0.358662    3.266139    0.566926
     14          1           0       -1.527472    2.875503    0.019199
     15          1           0       -0.334675    2.672307   -1.311812
     16          1           0        1.292717    3.041551    0.331565
     17          1           0       -1.383671   -1.607890   -1.523383
     18          8           0       -2.527659   -1.472395    0.202913
     19          1           0       -3.637514   -0.484794   -0.013950
     20          8           0        4.084703   -0.567972   -0.305402
     21          1           0        4.740144   -0.306811   -0.966909
     22          1           0        3.618914    0.253729   -0.054319
     23          6           0        1.131366   -1.078534    0.107226
     24          1           0        1.786740   -1.197486    1.001092
     25          6           0       -0.203471   -1.788486    0.393013
     26          1           0       -0.060077   -2.886196    0.250626
     27          8           0       -0.479666   -1.540880    1.772931
     28          1           0       -1.468450   -1.620695    1.897574
     29          8           0        1.699402   -1.753921   -1.011728
     30          1           0        2.693299   -1.658685   -0.973362
 ---------------------------------------------------------------------
 Rotational constants (GHZ):      0.7809540      0.5030933      0.3544226
 Standard basis: 6-31G(d) (6D, 7F)
 There are   242 symmetry adapted cartesian basis functions of A   symmetry.
 There are   242 symmetry adapted basis functions of A   symmetry.
   242 basis functions,   456 primitive gaussians,   242 cartesian basis functions
    58 alpha electrons       58 beta electrons
       nuclear repulsion energy      1110.8247130693 Hartrees.
 NAtoms=   30 NActive=   30 NUniq=   30 SFac= 1.00D+00 NAtFMM=   60 NAOKFM=F Big=F
 Integral buffers will be    131072 words long.
 Raffenetti 2 integral format.
 Two-electron integral symmetry is turned on.
 One-electron integrals computed using PRISM.
 NBasis=   242 RedAO= T EigKep=  1.26D-03  NBF=   242
 NBsUse=   242 1.00D-06 EigRej= -1.00D+00 NBFU=   242
 Initial guess from the checkpoint file:  "/scratch/10446899.yak.local/Gau-920.chk"
 B after Tr=     0.000000    0.000000   -0.000000
         Rot=    1.000000   -0.000326   -0.000161    0.000217 Ang=  -0.05 deg.
 ExpMin= 1.61D-01 ExpMax= 5.48D+03 ExpMxC= 8.25D+02 IAcc=1 IRadAn=         1 AccDes= 0.00D+00
 Harris functional with IExCor=  402 and IRadAn=       1 diagonalized for initial guess.
 HarFok:  IExCor=  402 AccDes= 0.00D+00 IRadAn=         1 IDoV= 1 UseB2=F ITyADJ=14
 ICtDFT=  3500011 ScaDFX=  1.000000  1.000000  1.000000  1.000000
 FoFCou: FMM=F IPFlag=           0 FMFlag=      100000 FMFlg1=           0
         NFxFlg=           0 DoJE=T BraDBF=F KetDBF=T FulRan=T
         wScrn=  0.000000 ICntrl=     500 IOpCl=  0 I1Cent=   200000004 NGrid=           0
         NMat0=    1 NMatS0=      1 NMatT0=    0 NMatD0=    1 NMtDS0=    0 NMtDT0=    0
 Petite list used in FoFCou.
 Requested convergence on RMS density matrix=1.00D-08 within 128 cycles.
 Requested convergence on MAX density matrix=1.00D-06.
 Requested convergence on             energy=1.00D-06.
 No special actions if energy rises.
 Integral accuracy reduced to 1.0D-05 until final iterations.
 Initial convergence to 1.0D-05 achieved.  Increase integral accuracy.
 SCF Done:  E(RB3LYP) =  -839.939513677     A.U. after   12 cycles
            NFock= 12  Conv=0.45D-08     -V/T= 2.0088
 Calling FoFJK, ICntrl=      2127 FMM=F ISym2X=0 I1Cent= 0 IOpClX= 0 NMat=1 NMatS=1 NMatT=0.
 ***** Axes restored to original set *****
 -------------------------------------------------------------------
 Center     Atomic                   Forces (Hartrees/Bohr)
 Number     Number              X              Y              Z
 -------------------------------------------------------------------
      1        6           0.010466667    0.008532964    0.000712315
      2        8           0.000547308    0.010998467    0.024435649
      3        1           0.001254715    0.001000859    0.001973878
      4        8           0.002037473    0.008317431   -0.007433490
      5        1          -0.007378428   -0.014871105   -0.014692831
      6        6          -0.002374062    0.010727042    0.002861654
      7        6           0.008034051   -0.008194732    0.002200496
      8        1           0.004995611    0.011267902   -0.006427987
      9        1          -0.002722919   -0.008889313    0.005560702
     10        8          -0.012937025    0.008419164    0.003123285
     11        1           0.004136244   -0.012000143    0.000215787
     12        6          -0.011208634    0.010173708    0.005594071
     13        8          -0.010033504   -0.001633892    0.007505603
     14        1          -0.002192799   -0.006102609   -0.004953127
     15        1           0.002648095    0.001278041   -0.004913217
     16        1           0.017075831    0.005256696   -0.002759312
     17        1          -0.002690535    0.001481871   -0.007058964
     18        8           0.008877891    0.007955945   -0.027738794
     19        1          -0.012354669   -0.014438075    0.018967244
     20        8          -0.004794210   -0.001915196   -0.001497472
     21        1          -0.000799925   -0.000729104    0.000942056
     22        1           0.002543831    0.001053518   -0.000484915
     23        6          -0.003391907   -0.020903463   -0.009655640
     24        1           0.010678050   -0.003368284    0.003095800
     25        6          -0.003655715    0.014772047   -0.004167150
     26        1           0.001750494   -0.002717693    0.011862629
     27        8           0.012430317    0.006626967   -0.000007092
     28        1          -0.013079426   -0.015588381    0.003450179
     29        8          -0.015058422   -0.006111708   -0.004804729
     30        1           0.017195604    0.009601074    0.004093375
 -------------------------------------------------------------------
 Cartesian Forces:  Max     0.027738794 RMS     0.009118167

 GradGradGradGradGradGradGradGradGradGradGradGradGradGradGradGradGradGrad
 Berny optimization.
 Search for a saddle point.
 Step number   2 out of a maximum of  180
 All quantities printed in internal units (Hartrees-Bohrs-Radians)
 Swapping is turned off.
 Update second derivatives using D2CorN and points    1    2
 ITU=  0  0
     Eigenvalues ---   -0.10182  -0.00853  -0.00196  -0.00032   0.00112
     Eigenvalues ---    0.00205   0.00276   0.00359   0.00480   0.00693
     Eigenvalues ---    0.00832   0.00871   0.01092   0.01150   0.01402
     Eigenvalues ---    0.01497   0.01691   0.01794   0.01969   0.02225
     Eigenvalues ---    0.02263   0.02689   0.02939   0.03192   0.03651
     Eigenvalues ---    0.04085   0.04406   0.04697   0.05198   0.05424
     Eigenvalues ---    0.05598   0.05975   0.06381   0.06779   0.07006
     Eigenvalues ---    0.08047   0.08173   0.08701   0.08786   0.09644
     Eigenvalues ---    0.10228   0.11569   0.12305   0.12810   0.13683
     Eigenvalues ---    0.14084   0.16269   0.16342   0.16648   0.17357
     Eigenvalues ---    0.18010   0.19604   0.19899   0.20579   0.22938
     Eigenvalues ---    0.24850   0.26151   0.28858   0.33895   0.37213
     Eigenvalues ---    0.40088   0.41379   0.50402   0.54910   0.55500
     Eigenvalues ---    0.57677   0.59506   0.61928   0.63574   0.68196
     Eigenvalues ---    0.74962   0.75941   0.77536   0.79730   0.80697
     Eigenvalues ---    0.81230   0.84874   0.86527   0.87764   0.92612
     Eigenvalues ---    0.93559   0.97886   1.14539   1.24911
 Eigenvectors required to have negative eigenvalues:
                          X5        X19       Z1        Z2        X4
   1                    0.69839  -0.35966   0.29120  -0.24057  -0.23842
                          Z19       Y5        X2        X18       Y18
   1                   -0.21556   0.19000  -0.13259   0.09389   0.09236
 RFO step:  Lambda0=2.456865050D-03 Lambda=-3.08615428D-02.
 Linear search not attempted -- option 19 set.
 Maximum step size (   0.300) exceeded in Quadratic search.
    -- Step size scaled by   0.278
 B after Tr=     0.001336    0.008929    0.000204
         Rot=    1.000000   -0.000311   -0.000008   -0.000944 Ang=  -0.11 deg.
 Variable       Old X    -DE/DX   Delta X   Delta X   Delta X     New X
                                 (Linear)    (Quad)   (Total)
    X1        0.01819   0.01047   0.00000   0.01993   0.02108   0.03927
    Y1        0.03998   0.00853   0.00000   0.05516   0.06416   0.10414
    Z1        0.00140   0.00071   0.00000  -0.00655  -0.00628  -0.00488
    X2       -0.00581   0.00055   0.00000  -0.00908  -0.00762  -0.01343
    Y2       -0.00658   0.01100   0.00000  -0.02831  -0.02137  -0.02795
    Z2        3.14177   0.02444   0.00000   0.00659   0.00677   3.14854
    X3        5.19847   0.00125   0.00000   0.02586   0.02735   5.22583
    Y3       -0.01277   0.00100   0.00000  -0.04838  -0.03155  -0.04431
    Z3        3.13077   0.00197   0.00000   0.01992   0.02001   3.15078
    X4        4.33638   0.00204   0.00000  -0.02066  -0.02218   4.31421
    Y4        1.61106   0.00832   0.00000  -0.07220  -0.05714   1.55392
    Z4        3.22523  -0.00743   0.00000   0.01085   0.01194   3.23717
    X5        2.02836  -0.00738   0.00000  -0.00807  -0.00839   2.01996
    Y5        1.00827  -0.01487   0.00000  -0.09725  -0.08677   0.92151
    Z5        3.63976  -0.01469   0.00000   0.00123   0.00197   3.64173
    X6       -4.47872  -0.00237   0.00000  -0.00696  -0.00552  -4.48424
    Y6       -0.03177   0.01073   0.00000   0.01073   0.00903  -0.02274
    Z6        3.47808   0.00286   0.00000  -0.00070  -0.00044   3.47764
    X7       -2.06657   0.00803   0.00000   0.00297   0.00183  -2.06474
    Y7        1.36537  -0.00819   0.00000  -0.01107  -0.00872   1.35664
    Z7        4.31116   0.00220   0.00000   0.00147   0.00254   4.31371
    X8       -4.44681   0.00500   0.00000  -0.00266   0.00256  -4.44426
    Y8       -2.03398   0.01127   0.00000   0.02074   0.01871  -2.01527
    Z8        4.11448  -0.00643   0.00000   0.00074  -0.00024   4.11424
    X9       -2.06095  -0.00272   0.00000   0.01362   0.00874  -2.05220
    Y9        3.34414  -0.00889   0.00000  -0.02023  -0.01741   3.32673
    Z9        3.60609   0.00556   0.00000  -0.00168   0.00062   3.60671
   X10       -6.63947  -0.01294   0.00000  -0.01128  -0.01178  -6.65125
   Y10        1.00360   0.00842   0.00000   0.02236   0.01576   1.01936
   Z10        4.78306   0.00312   0.00000  -0.00882  -0.00787   4.77519
   X11       -6.80891   0.00414   0.00000   0.01068   0.00676  -6.80216
   Y11        2.81660  -0.01200   0.00000   0.01496   0.00832   2.82492
   Z11        4.39036   0.00022   0.00000  -0.02019  -0.01812   4.37224
   X12       -1.62984  -0.01121   0.00000  -0.00647  -0.00741  -1.63725
   Y12        1.26036   0.01017   0.00000   0.01439   0.01576   1.27612
   Z12        7.18366   0.00559   0.00000   0.00206   0.00308   7.18674
[...]
 00013340,0.00005356,0.00017243,-0.00011741,0.00022950,-0.00004418,-0.0
 0159332,0.00014182,-0.00054143,0.00016023,-0.00003461,0.00047317,-0.00
 081908,0.00118037,0.00005069,0.00016068,-0.00005628,-0.00016036,-0.000
 29400,-0.00056432,0.00083642,0.10031743,-0.11505398,0.03721693,-0.1133
 6068,0.14450399,0.00025417,0.00217088,-0.00308816,-0.00016546,-0.00004
 624,0.00093847,-0.00001543,-0.00000628,-0.00000460,-0.00009759,-0.0001
 7735,0.00059755,0.00047986,0.00009815,-0.00004463,-0.02605837,0.016501
 89,-0.01521532,0.00204552,0.00082923,-0.00315789,0.00016313,-0.0000573
 0,-0.00310066,-0.00017093,-0.00021984,-0.00006525,-0.00038899,0.000859
 88,0.00427482,0.00001733,-0.00189040,-0.00177576,-0.00170995,-0.000279
 93,0.00001181,0.00025220,-0.00007989,0.00013831,-0.00006995,-0.0001365
 0,-0.00052560,0.00005586,-0.00011800,0.00013137,-0.00021184,0.00009423
 ,-0.00016170,0.00004884,-0.00012518,0.00021628,0.00191527,0.00030449,0
 .00091842,-0.00030054,0.00009788,-0.00087137,-0.00016631,-0.00040069,0
 .00028869,-0.00011630,0.00003271,-0.00000666,0.00044624,0.00055127,-0.
 00067017,-0.05453444,0.03832986,-0.06973592,0.05329076,-0.03452772,0.0
 7911783,-0.13856890,0.02251490,-0.02226132,0.00198134,-0.00030860,-0.0
 0277433,-0.00005238,-0.00007045,-0.00014421,0.00048714,0.00132557,-0.0
 0348878,-0.00250160,-0.00083285,0.00038504,0.00399658,0.00388708,0.006
 28566,0.00177806,-0.00045120,-0.00135865,-0.00043727,0.00053806,-0.001
 49830,-0.00052679,-0.00021090,-0.00031425,0.00121322,-0.00127299,-0.00
 177155,-0.00012542,0.00012879,0.00007924,-0.00047406,0.00008689,-0.000
 35659,-0.00029693,0.00003868,0.00029880,0.00001977,-0.00007352,-0.0002
 3775,0.00004228,-0.00003623,0.00012028,0.00020186,0.00008331,0.0002094
 6,0.00161643,0.00164873,-0.00313376,-0.05167117,-0.00993481,-0.0090893
 3,0.00152084,-0.00047037,0.00657770,0.00053877,-0.00019130,-0.00009726
 ,-0.00006005,-0.00009476,-0.00001103,-0.00014890,0.00012689,-0.0002570
 5,-0.15175183,-0.01421578,0.04192842,-0.02807761,-0.00915747,0.0169741
 5,0.51485521,0.04562163,-0.08978296,0.01807256,-0.00403213,0.00038143,
 -0.00675344,-0.00001695,-0.00004819,-0.00015988,-0.00106723,0.00013416
 ,-0.00083633,0.00188070,0.00080716,-0.00112812,0.00268330,0.00399952,0
 .00518606,-0.00084313,0.00542972,0.00127718,-0.00059718,-0.00010069,-0
 .00092085,-0.00116600,-0.00153770,-0.00260530,0.00116158,-0.00247221,-
 0.00516168,0.00115163,0.00138381,-0.00013608,-0.00028375,-0.00176208,0
 .00008619,-0.00010787,-0.00033787,-0.00037489,-0.00002888,0.00003863,-
 0.00018588,0.00006957,-0.00018869,0.00066545,0.00028086,0.00027142,0.0
 0033807,0.02376672,-0.00754186,0.00915547,-0.02433543,-0.00427494,-0.0
 0855742,-0.00073506,-0.00193150,0.00248592,0.00032326,0.00073359,-0.00
 017712,0.00003333,-0.00005664,-0.00001355,-0.00061039,-0.00010819,0.00
 063677,-0.02160158,-0.07386905,0.01748305,0.01456279,0.00587917,-0.008
 08247,0.03506726,0.50089635,-0.02667115,0.00052970,-0.08038520,-0.0219
 2160,0.00910463,-0.02858848,-0.00017918,-0.00008435,0.00019926,-0.0003
 1560,-0.00199814,0.00516034,0.00510940,0.00252670,-0.00277833,0.024886
 16,0.01104295,-0.01708091,-0.00350478,0.00204857,-0.00035761,-0.000868
 15,-0.00000583,-0.00276156,-0.00029418,-0.00139834,-0.00061327,0.00139
 302,-0.00105726,-0.00402232,0.00011355,0.00006027,-0.00041098,0.001145
 92,-0.00074968,-0.00039623,0.00000748,-0.00004192,-0.00017762,0.000098
 97,0.00006367,0.00040438,-0.00001333,-0.00016041,0.00042490,0.00013183
 ,0.00003521,-0.00001908,0.00799755,-0.00429572,0.00728523,0.01015862,0
 .00379799,0.01317685,-0.00336027,0.00154796,-0.00610730,-0.00043006,0.
 00009350,0.00052818,0.00002929,0.00003017,-0.00000743,-0.00011417,-0.0
 0008717,-0.00040506,0.05173916,0.02014567,-0.11117893,-0.00644153,-0.0
 0161279,0.00495122,-0.00580723,0.03870904,0.56817120,-0.00212621,-0.00
 656439,-0.02840842,-0.00419317,0.00103712,-0.00454123,0.00004225,-0.00
 003083,0.00002500,-0.00060235,-0.00041872,0.00073149,0.00170415,0.0006
 4141,-0.00056164,-0.00390195,-0.00297417,-0.00024289,-0.00161443,0.000
 84798,0.00067245,0.00015388,-0.00004421,0.00108695,0.00025953,-0.00007
 437,0.00001218,-0.00046204,0.00062783,0.00162887,-0.00001111,-0.000192
 61,-0.00011539,0.00022089,-0.00005990,0.00009873,0.00023868,-0.0000668
 2,-0.00017247,0.00005418,0.00003184,0.00012478,-0.00004154,0.00001948,
 -0.00002158,-0.00013469,-0.00004400,-0.00017493,0.00087776,0.00028156,
 0.00120877,-0.00031517,0.00063266,0.00230303,-0.00033037,0.00013975,-0
 .00067802,-0.00005667,-0.00014829,-0.00013195,0.00001406,0.00001799,-0
 .00000071,0.00022305,0.00009948,0.00001201,0.00107770,0.00305402,0.030
 05437,0.00129445,0.00046538,-0.00056171,-0.05663761,-0.00565682,-0.027
 52694,0.05825214,-0.00117105,0.00530375,0.00740927,0.00224640,-0.00001
 988,0.00413436,-0.00000095,0.00001490,-0.00001724,0.00045648,0.0002839
 3,-0.00037400,-0.00112369,-0.00042047,0.00036004,-0.00165143,-0.001333
 15,0.00007956,0.00078292,-0.00125058,-0.00089197,0.00015405,0.00007974
 ,0.00042593,0.00013369,0.00027695,0.00042015,-0.00024614,0.00024999,0.
 00060401,-0.00013381,-0.00012543,0.00006685,-0.00011813,0.00029815,-0.
 00004995,-0.00006334,0.00010122,0.00014726,-0.00000660,-0.00001464,-0.
 00001664,-0.00000151,0.00004756,-0.00008948,-0.00000094,-0.00003119,-0
 .00000581,-0.00064675,0.00028480,0.00000863,0.00036822,0.00062844,-0.0
 0035023,0.00018232,-0.00007377,0.00034643,0.00001434,-0.00005340,-0.00
 005807,0.00000268,0.00000581,-0.00000089,0.00006546,0.00002323,0.00000
 500,-0.00001385,0.00304365,0.01039375,0.00007163,0.00021283,-0.0005146
 7,-0.00328698,-0.05651819,-0.05143544,0.00543170,0.07946605,-0.0002358
 5,-0.00201128,-0.01409446,-0.00240426,0.00057768,0.00024464,0.00001608
 ,-0.00001134,0.00003068,-0.00034948,-0.00025830,0.00046228,0.00114881,
 0.00037624,-0.00016403,0.00248531,0.00101426,0.00147394,0.00013577,-0.
 00006783,0.00096081,-0.00002607,0.00014218,-0.00059052,-0.00001998,0.0
 0006833,0.00014607,0.00070755,-0.00035709,-0.00121075,-0.00012167,0.00
 015638,0.00007790,-0.00002510,0.00002886,0.00014128,0.00000115,-0.0000
 3027,-0.00016263,-0.00002762,-0.00000035,-0.00003255,0.00000634,0.0000
 2735,-0.00002147,0.00002120,0.00001651,0.00015340,-0.00067898,0.000611
 03,0.00058598,-0.00029433,0.00049058,0.00150701,-0.00040172,0.00006362
 ,-0.00042254,-0.00003992,0.00019343,0.00024948,-0.00003987,-0.00001955
 ,-0.00000658,-0.00026222,-0.00020930,-0.00006288,-0.00088872,-0.003168
 72,-0.02109488,-0.00006876,-0.00020242,0.00095884,-0.02382627,-0.05137
 987,-0.27921335,0.02530080,0.06493747,0.30002511,-0.01382862,0.0300760
 1,0.00859771,0.00423482,-0.00068557,-0.00263026,0.00033297,0.00001215,
 0.00021006,-0.00073329,0.00026898,-0.00408524,-0.00126607,-0.00057839,
 0.00085375,-0.00013685,0.00104391,-0.00149062,-0.00232069,0.00027860,-
 0.00010609,0.00012567,-0.00000857,-0.00007138,-0.00009467,0.00039148,-
 0.00022023,0.00058117,-0.00002651,0.00109902,0.00061104,-0.00004632,-0
 .00122834,0.00038902,0.00025587,0.00034017,0.00060074,-0.00023398,-0.0
 0034356,0.00011602,0.00004766,0.00026662,0.00002790,0.00006384,-0.0001
 5543,-0.00029409,-0.00004474,-0.00035124,-0.00479427,0.00221083,-0.002
 82967,-0.01005140,0.01795742,-0.00477125,0.00321454,0.00124290,0.00554
 770,-0.00065960,0.00005642,0.00050912,0.00003819,0.00008671,0.00001249
 ,0.00006211,-0.00003848,-0.00018266,0.00294720,-0.03150871,-0.00607158
 ,0.00304773,-0.00157191,-0.00129906,-0.09783685,-0.01926065,0.00512398
 ,0.00549812,-0.00370714,0.00002760,0.52624051,0.00912647,-0.04535610,-
 0.00289586,0.00157790,0.00298343,0.00256084,-0.00019455,-0.00009910,-0
 .00009562,0.00124542,0.00074468,-0.00036377,-0.00207859,-0.00093497,0.
 00006968,0.00043191,0.00061269,-0.00257290,0.00122244,-0.00208561,0.00
 041464,0.00031835,0.00015144,-0.00016061,0.00039243,0.00001465,0.00251
 273,-0.00089988,0.00120324,0.00196621,-0.00036652,-0.00094105,-0.00010
 632,0.00003217,0.00021189,-0.00027929,-0.00018875,0.00055398,0.0004036
 5,0.00005316,-0.00002037,0.00011028,-0.00000241,0.00010245,-0.00019525
 ,-0.00007293,-0.00024490,-0.00019005,0.00517146,0.00113349,0.00124282,
 -0.00485082,0.00638752,0.00110301,-0.00050701,-0.00006475,0.00036979,-
 0.00101103,0.00021793,0.00062443,0.00011013,0.00005046,-0.00000314,0.0
 0018698,-0.00025592,-0.00024849,-0.00142038,-0.03163495,-0.00119064,0.
 00100128,0.00138841,-0.00082145,0.02751477,-0.22169391,-0.02144892,0.0
 0112994,-0.03043756,-0.01022230,0.08456313,0.39122234,0.00029307,0.012
 00169,-0.00163515,-0.00085728,0.00033294,0.00526230,0.00008192,0.00002
 152,0.00000888,-0.00059077,-0.00012899,0.00068170,0.00132225,-0.000053
 35,0.00028460,-0.00281110,-0.00161206,0.00000534,0.00023322,-0.0049797
 8,-0.00552933,0.00045600,0.00015488,0.00041906,0.00052605,0.00451590,-
 0.00224719,0.00064140,0.00063731,0.00084428,-0.00109541,-0.00018939,0.
 00006238,-0.00000827,0.00298600,0.00083121,0.00037778,-0.00019146,-0.0
 0033498,-0.00005689,-0.00005115,0.00000631,-0.00009134,0.00025573,-0.0
 0116235,-0.00029022,-0.00011183,0.00020871,-0.00224575,0.00098534,0.00
 064214,-0.00102615,-0.00020263,0.00520502,0.00010046,-0.00038855,-0.00
 081729,0.00029943,0.00011269,0.00022000,-0.00010980,-0.00004609,-0.000
 02674,-0.00032323,-0.00023998,-0.00019613,-0.00193737,0.01366030,0.004
 43068,-0.00022567,-0.00009146,0.00020563,0.00605516,-0.01593209,-0.071
 45007,0.00184276,-0.03466779,0.00782761,-0.03840527,0.01921998,0.07027
 153,0.00857027,0.01263626,-0.00615088,-0.00366590,-0.00078430,0.004213
 60,-0.00019708,0.00000060,-0.00008567,0.00041283,-0.00068162,0.0040099
 9,0.00170409,0.00072272,-0.00066782,0.00020965,-0.00004718,0.00067443,
 0.00179058,-0.00202531,-0.00066799,0.00004783,0.00008403,-0.00006931,0
 .00025254,0.00048141,0.00081861,-0.00023946,0.00002374,-0.00047362,-0.
 00018790,-0.00003853,0.00030028,-0.00009281,0.00049009,-0.00005470,-0.
 00031298,0.00017559,0.00021285,-0.00007597,-0.00004037,-0.00016212,-0.
 00002108,0.00004189,-0.00015513,0.00010284,-0.00001728,0.00017645,-0.0
 0200950,-0.00260157,0.00054362,-0.00183431,-0.00759510,0.00409111,-0.0
 0318090,-0.00045086,-0.00589057,0.00014291,0.00006866,-0.00010311,-0.0
 0000391,-0.00003212,-0.00000686,-0.00006240,-0.00004044,0.00006241,-0.
 00128387,0.00076695,-0.00115748,-0.00023928,0.00016452,0.00010949,0.00
 094247,-0.01184671,0.00096162,-0.00071867,0.00211093,0.00113301,-0.409
 12299,-0.11764051,0.03515903,0.40830483,-0.00462147,-0.01015749,0.0056
 3816,0.00144387,0.00013379,-0.00275666,0.00023592,0.00002326,0.0000782
 9,-0.00127008,-0.00003202,-0.00326626,0.00014730,-0.00002840,0.0005663
 7,-0.00045277,-0.00005870,-0.00009148,-0.00135336,0.00090894,0.0004190
 4,-0.00000225,-0.00002046,-0.00005798,0.00020037,0.00013543,0.00030184
 ,0.00044456,-0.00001761,0.00001004,-0.00017287,0.00008872,0.00016302,0
 .00011210,0.00003042,0.00034698,0.00027230,-0.00027721,-0.00040555,-0.
 00000274,0.00003835,0.00005028,-0.00001673,-0.00001003,-0.00003616,-0.
 00008463,0.00003964,0.00005107,-0.00058324,0.00095892,-0.00047525,-0.0
 0437590,0.00360228,-0.00381266,0.00281321,0.00100546,0.00477265,0.0000
 3513,0.00008836,0.00009649,-0.00003646,0.00000147,-0.00000195,-0.00012
 957,-0.00008616,-0.00002042,0.00229938,-0.00655677,-0.00251430,0.00026
 062,0.00011313,-0.00039744,-0.04590338,-0.02573582,0.00488232,-0.00004
 401,-0.00091561,-0.00022234,-0.07185801,-0.07055801,0.00206911,0.12470
 054,0.10909830,0.00080358,0.00252514,0.00317017,0.00009702,-0.00034095
 ,-0.00049224,-0.00007593,-0.00003623,-0.00002867,0.00026147,-0.0001217
 1,-0.00044087,-0.00063413,0.00026688,-0.00021511,0.00062734,-0.0005232
 4,0.00080931,0.00014985,0.00166948,-0.00036444,-0.00020621,-0.00008465
 ,-0.00005178,0.00056427,-0.00020072,-0.00102912,-0.00033866,-0.0000753
 1,-0.00045611,-0.00000728,0.00006598,0.00037482,-0.00006255,-0.0004638
 1,-0.00031590,-0.00025205,0.00001240,0.00025029,-0.00003038,0.00002086
 ,-0.00007551,-0.00000854,-0.00009417,0.00023692,0.00015395,0.00004536,
 0.00001145,0.00016525,-0.00069935,0.00031880,0.00058938,-0.00188530,-0
 .00625008,-0.00024825,0.00076121,0.00030367,-0.00006137,-0.00003692,-0
 .00011008,0.00003613,0.00000919,0.00000997,0.00009104,0.00005380,0.000
 07065,0.00035613,0.00212976,0.00034818,-0.00023326,0.00007059,0.000021
 17,-0.00280746,-0.00251957,0.00065330,-0.00068100,-0.00171799,-0.00045
 438,0.03781073,0.00702757,-0.01473280,-0.03664830,-0.00648437,0.018693
 53,0.00169522,0.00249863,0.00041694,-0.00051871,-0.00088267,-0.0014920
 2,0.00012496,0.00001608,0.00008044,-0.00089330,-0.00012358,-0.00064704
 ,0.00111832,0.00015613,0.00022304,0.00175741,-0.00503577,-0.00309311,-
 0.00060129,0.00111325,-0.00013068,0.00063775,0.00001680,0.00064772,0.0
 0026867,0.00003374,0.00028173,0.00278881,-0.00180607,-0.00063050,-0.00
 009834,-0.00028545,-0.00066146,-0.00039823,0.00015555,0.00058471,0.000
 49104,-0.00017883,-0.00041311,-0.00001360,0.00001292,-0.00009751,-0.00
 000392,0.00004003,-0.00008991,-0.00022774,-0.00008664,0.00004013,-0.00
 002112,-0.00071317,-0.00045947,-0.00094354,-0.00077351,-0.00036552,0.0
 0075557,-0.00001164,0.00093852,-0.00917194,-0.00044957,0.00962314,-0.0
 0187601,0.00213456,0.00093114,-0.00203146,-0.00266168,-0.00056088,-0.0
 9546785,-0.03768292,0.00188736,0.01280746,0.02059218,0.00935375,-0.001
 08792,-0.03426913,-0.01160935,0.00139754,0.00011640,-0.00154592,-0.007
 76748,-0.00645110,0.00279018,0.00080246,-0.00216656,0.00060101,0.46195
 663,0.00170810,-0.00183526,0.00077045,-0.00128341,0.00114356,-0.000070
 70,0.00008392,-0.00007916,0.00002503,-0.00093295,0.00002941,-0.0007140
 5,0.00103869,0.00019301,0.00017776,-0.00811621,-0.01759127,-0.01309241
 ,0.00319550,0.00056633,-0.00384339,0.00032439,0.00184530,-0.00042991,0
 .00019838,0.00017844,0.00034801,0.00211527,0.00058151,-0.00437566,-0.0
 0008843,0.00127121,0.00214023,-0.00170374,-0.00075981,0.00061437,0.000
 04073,0.00012419,-0.00048652,-0.00018420,0.00003068,-0.00069153,-0.000
 00291,0.00022079,-0.00015994,0.00006889,-0.00004151,0.00072549,-0.0008
 7112,0.00056122,-0.00007303,-0.00223068,0.00085213,-0.00055902,0.00081
 183,-0.00012824,0.00106837,-0.00273471,0.00525515,0.00268237,0.0008164
 6,-0.00014335,-0.00058822,-0.00184504,-0.00265221,0.00008761,0.0019594
 5,-0.21776868,-0.05317067,-0.00219541,-0.04110408,-0.01317210,-0.00758
 851,-0.02579978,-0.00645222,0.00149342,0.00087711,-0.00054651,-0.00704
 016,-0.00159405,0.00131318,0.00128404,-0.00113441,0.00041670,0.1306968
 8,0.35988717,-0.00010769,0.00074586,-0.00331231,-0.00212234,0.00030524
 ,0.00300304,0.00004271,-0.00001227,-0.00003721,-0.00073922,-0.00037142
 ,0.00067185,0.00143138,0.00035086,0.00004333,-0.01029136,-0.03790326,-
 0.01570120,0.00384820,-0.00152921,-0.00530561,0.00042130,-0.00292888,0
 .00493984,-0.00065301,-0.00026240,-0.00036554,0.00347743,-0.00373744,-
 0.00497010,-0.00013599,0.00057406,-0.00108753,-0.00174791,-0.00028499,
 0.00072781,0.00005952,-0.00022136,-0.00022131,-0.00022626,0.00011559,-
 0.00071019,0.00011312,0.00004556,0.00000516,0.00015549,0.00013202,0.00
 062067,-0.00020852,0.00008019,0.00037258,0.00015393,-0.00052956,0.0011
 6806,-0.00026250,0.00010842,-0.00090988,0.00782732,0.00021198,-0.00148
 835,-0.00001731,-0.00078048,0.00010758,-0.00090738,0.00066051,-0.00001
 134,0.01473718,-0.04022765,-0.08773708,0.00255948,0.00053829,0.0057692
 9,-0.00040520,0.01166038,0.00653365,-0.00134276,0.00074920,0.00244737,
 0.00458903,0.00406744,0.00033322,-0.00039362,0.00120224,-0.00052689,-0
 .15476919,0.05597334,0.17024709,-0.00095337,-0.00005393,-0.00035597,0.
 00040900,0.00022057,0.00033748,-0.00008720,-0.00000904,-0.00003840,0.0
 0062127,0.00010307,0.00037377,-0.00076397,-0.00016513,-0.00009936,0.00
 298225,0.00039167,-0.00057196,-0.00047850,0.00013390,0.00067404,-0.000
 07612,-0.00020830,-0.00144506,0.00012238,0.00009505,0.00001185,-0.0034
 6295,0.00000079,0.00098168,0.00009718,-0.00005711,-0.00022128,0.000637
 58,-0.00009091,-0.00047043,-0.00039380,0.00018334,0.00032381,0.0000308
 0,0.00000760,0.00018946,-0.00002494,0.00000085,0.00001116,0.00018320,0
 .00001093,-0.00011333,-0.00003502,-0.00001154,0.00006262,0.00101261,0.
 00031630,0.00026746,-0.00043326,0.00002194,-0.00054368,-0.00481554,-0.
 00108482,-0.00269793,0.00124484,-0.00252856,-0.00113266,0.00384332,0.0
 0364263,-0.00001988,-0.00642626,-0.00686879,0.00080724,0.00109598,0.00
 334615,0.00046029,0.00106131,-0.00014372,0.00016097,-0.00016241,0.0000
 3511,0.00027311,0.00083911,0.00160654,-0.00010419,-0.00003428,0.000108
 72,-0.00001176,-0.36547941,-0.10901845,0.13491416,0.36944620,-0.000127
 64,-0.00035368,-0.00001685,0.00041585,-0.00001341,0.00000593,-0.000027
 22,0.00001703,-0.00001655,0.00030044,0.00004377,0.00011707,-0.00040044
 ,-0.00008263,-0.00005401,-0.00028534,0.00073578,-0.00076799,-0.0004063
 4,0.00001421,0.00041013,0.00000023,0.00029933,-0.00008980,0.00007341,0
 .00004313,0.00005911,0.00023677,-0.00005032,0.00088954,-0.00008869,-0.
 00033308,-0.00035322,0.00013755,0.00022429,-0.00012866,0.00008345,-0.0
 0003060,0.00018462,0.00003500,-0.00001141,0.00008768,-0.00001260,-0.00
 005439,0.00000157,-0.00006602,-0.00000948,-0.00025253,-0.00034641,0.00
 016034,0.00000659,0.00032587,0.00029023,0.00005698,-0.00016491,0.00000
 680,-0.00018021,-0.00192603,-0.00912607,0.00048118,-0.00273204,0.00160
 844,0.00214446,0.00333634,-0.00032891,-0.00240046,-0.04404508,-0.02285
 110,0.01354675,0.00002362,0.00144289,0.00118297,0.00113918,-0.00619469
 ,-0.00379015,0.00036757,-0.00000427,0.00000354,-0.00194673,-0.00105735
 ,0.00062003,0.00008994,-0.00067777,0.00020936,-0.06400486,-0.06298538,
 0.01126773,0.11001514,0.09927828,0.00064837,0.00000725,0.00107204,0.00
 036711,-0.00017891,-0.00092563,0.00000309,-0.00000133,0.00002650,0.000
 00779,0.00008079,-0.00031812,-0.00013038,-0.00006596,0.00003182,-0.001
 95012,-0.00227469,0.00123647,-0.00060078,0.00099617,-0.00021638,-0.000
 99639,0.00014484,-0.00171847,0.00040201,0.00011664,0.00017588,0.001112
 50,0.00094043,-0.00019429,0.00007622,0.00009699,0.00050669,-0.00016523
 ,-0.00009111,0.00006400,0.00021478,0.00005198,-0.00001667,0.00004788,0
 .00002792,-0.00000018,-0.00004525,0.00005442,-0.00006466,-0.00013691,-
 0.00012636,-0.00016966,0.00004304,-0.00004730,-0.00017694,-0.00035483,
 0.00001424,-0.00045657,0.00020761,-0.00003181,0.00042998,-0.00507446,0
 .00204956,-0.00080559,0.00107034,0.00107648,-0.00084452,0.00073687,-0.
 00363355,-0.00169282,-0.01336078,-0.00450952,0.00549896,0.00147448,-0.
 00182244,-0.00011601,0.00072642,-0.00083160,-0.00153479,0.00005943,0.0
 0010227,0.00023859,-0.00074611,-0.00089843,0.00038146,0.00022070,-0.00
 010510,0.00027175,0.14816583,0.03208297,-0.07460601,-0.13202323,-0.023
 22482,0.07392317\\-0.00001604,-0.00000182,-0.00000603,-0.00000330,-0.0
 0001569,-0.00000912,0.00001453,-0.00002951,0.00000169,-0.00003715,0.00
 000863,0.00000649,0.00000866,0.00000455,-0.00000249,0.00000010,-0.0000
 0116,0.00000500,-0.00000032,-0.00000598,-0.00000173,-0.00000158,0.0000
 0503,-0.00000074,0.00000551,0.00000240,-0.00000477,0.00000140,-0.00002
 418,0.00002403,0.00001302,0.00003019,-0.00000626,-0.00000222,0.0000085
 8,-0.00000843,0.00003734,-0.00001172,0.00002289,0.00002488,0.00001021,
 -0.00000206,-0.00000117,-0.00000714,0.00001048,-0.00002089,0.00001814,
 -0.00001774,-0.00000448,-0.00000314,-0.00000490,-0.00000765,-0.0000119
 7,-0.00000337,0.00001083,0.00000371,0.00000365,0.00010800,0.00017892,-
 0.00008129,-0.00005845,-0.00016102,0.00011254,-0.00002029,-0.00001016,
 -0.00005619,-0.00000310,-0.00000265,0.00000506,-0.00000345,-0.00000143
 ,0.00000275,-0.00000521,-0.00000058,0.00000481,-0.00000531,-0.00000043
 ,0.00000048,-0.00000733,0.00000315,0.00000949,0.00000296,-0.00000099,0
 .00000546,0.00000681,0.00001639,-0.00001819,-0.00003609,-0.00000032,0.
 00000851\\\@


 THE REAL VOYAGE OF DISCOVERY CONSISTS NOT IN SEEKING NEW LANDSCAPES 
 BUT IN HAVING NEW EYES.
                                                    -- MARCEL PROUST
 Job cpu time:       0 days  0 hours 32 minutes  7.1 seconds.
 File lengths (MBytes):  RWF=    220 Int=      0 D2E=      0 Chk=      6 Scr=      1
 Normal termination of Gaussian 09 at Sat Jan  7 22:32:37 2017.
