 Entering Gaussian System, Link 0=g09
 Initial command:
 /global/software/gaussian/g09.e01/l1.exe "/scratch/10446939.yak.local/Gau-30348.inp" -scrdir="/scratch/10446939.yak.local/"
 Entering Link 1 = /global/software/gaussian/g09.e01/l1.exe PID=     30349.
  
 Copyright (c) 1988,1990,1992,1993,1995,1998,2003,2009,2015,
            Gaussian, Inc.  All Rights Reserved.
  
 This is part of the Gaussian(R) 09 program.  It is based on
 the Gaussian(R) 03 system (copyright 2003, Gaussian, Inc.),
 the Gaussian(R) 98 system (copyright 1998, Gaussian, Inc.),
 the Gaussian(R) 94 system (copyright 1995, Gaussian, Inc.),
 the Gaussian 92(TM) system (copyright 1992, Gaussian, Inc.),
 the Gaussian 90(TM) system (copyright 1990, Gaussian, Inc.),
 the Gaussian 88(TM) system (copyright 1988, Gaussian, Inc.),
 the Gaussian 86(TM) system (copyright 1986, Carnegie Mellon
 University), and the Gaussian 82(TM) system (copyright 1983,
 Carnegie Mellon University). Gaussian is a federally registered
 trademark of Gaussian, Inc.
  
 This software contains proprietary and confidential information,
 including trade secrets, belonging to Gaussian, Inc.
  
 This software is provided under written license and may be
 used, copied, transmitted, or stored only in accord with that
 written license.
  
 The following legend is applicable only to US Government
 contracts under FAR:
  
                    RESTRICTED RIGHTS LEGEND
  
 Use, reproduction and disclosure by the US Government is
 subject to restrictions as set forth in subparagraphs (a)
 and (c) of the Commercial Computer Software - Restricted
 Rights clause in FAR 52.227-19.
  
 Gaussian, Inc.
 340 Quinnipiac St., Bldg. 40, Wallingford CT 06492
  
  
 ---------------------------------------------------------------
 Warning -- This program may not be used in any manner that
 competes with the business of Gaussian, Inc. or will provide
 assistance to any competitor of Gaussian, Inc.  The licensee
 of this program is prohibited from giving any competitor of
 Gaussian, Inc. access to this program.  By using this program,
 the user acknowledges that Gaussian, Inc. is engaged in the
 business of creating and licensing software in the field of
 computational chemistry and represents and warrants to the
 licensee that it is not a competitor of Gaussian, Inc. and that
 it will not use this program in any manner prohibited above.
 ---------------------------------------------------------------
  

 Cite this work as:
 Gaussian 09, Revision E.01,
 M. J. Frisch, G. W. Trucks, H. B. Schlegel, G. E. Scuseria, 
 M. A. Robb, J. R. Cheeseman, G. Scalmani, V. Barone, B. Mennucci, 
 G. A. Petersson, H. Nakatsuji, M. Caricato, X. Li, H. P. Hratchian, 
 A. F. Izmaylov, J. Bloino, G. Zheng, J. L. Sonnenberg, M. Hada, 
 M. Ehara, K. Toyota, R. Fukuda, J. Hasegawa, M. Ishida, T. Nakajima, 
 Y. Honda, O. Kitao, H. Nakai, T. Vreven, J. A. Montgomery, Jr., 
 J. E. Peralta, F. Ogliaro, M. Bearpark, J. J. Heyd, E. Brothers, 
 K. N. Kudin, V. N. Staroverov, T. Keith, R. Kobayashi, J. Normand, 
 K. Raghavachari, A. Rendell, J. C. Burant, S. S. Iyengar, J. Tomasi, 
 M. Cossi, N. Rega, J. M. Millam, M. Klene, J. E. Knox, J. B. Cross, 
 V. Bakken, C. Adamo, J. Jaramillo, R. Gomperts, R. E. Stratmann, 
 O. Yazyev, A. J. Austin, R. Cammi, C. Pomelli, J. W. Ochterski, 
 R. L. Martin, K. Morokuma, V. G. Zakrzewski, G. A. Voth, 
 P. Salvador, J. J. Dannenberg, S. Dapprich, A. D. Daniels, 
 O. Farkas, J. B. Foresman, J. V. Ortiz, J. Cioslowski, 
 and D. J. Fox, Gaussian, Inc., Wallingford CT, 2013.
 
 ******************************************
 Gaussian 09:  ES64L-G09RevE.01 30-Nov-2015
                 7-Jan-2017 
 ******************************************
 ----------------------------------------------------------------------
 # opt=(CalcFC,ts,cartesian,Noeigentest,maxcycles=500) freq b3lyp 6-31G
 (d)
 ----------------------------------------------------------------------
 1/5=1,6=500,10=4,11=1,14=-1,18=10,26=3,38=1/1,3;
 2/12=2,17=6,18=5,29=2,40=1/2;
 3/5=1,6=6,7=1,11=2,16=1,25=1,30=1,71=2,74=-5,140=1/1,2,3;
 4//1;
 5/5=2,38=5/2;
 8/6=4,10=90,11=11/1;
 11/6=1,8=1,9=11,15=111,16=1/1,2,10;
 10/6=1,13=1/2;
 6/7=2,8=2,9=2,10=2,28=1/1;
 7/7=1,10=1,18=20,25=1/1,2,3,16;
 1/5=1,6=500,10=4,11=1,14=-1,18=10,26=3/3(2);
 2/29=1/2;
 99/12=1/99;
 2/29=1/2;
 3/5=1,6=6,7=1,11=2,16=1,25=1,30=1,71=1,74=-5/1,2,3;
 4/5=5,16=3,69=1/1;
 5/5=2,38=5/2;
 7/7=1/1,2,3,16;
 1/5=1,6=500,11=1,14=-1,18=10,26=3/3(-5);
 2/29=1/2;
 6/7=2,8=2,9=2,10=2,19=2,28=1/1;
 99/9=1,12=1/99;
 -------------------
 glo_2w_beta_ts_boat
 -------------------
 Symbolic Z-matrix:
 Charge =  0 Multiplicity = 1
 6                    0    -0.02328  -1.43307  -0.41134 
 8                    0     0.44866   0.06309   0.29834 
 1                    0     3.02628   1.13075  -0.13406 
 1                    0     3.73012  -2.41102   0.16403 
 8                    0     3.27445  -1.90081  -0.51163 
 1                    0     3.28752  -0.49713  -0.03303 
 8                    0     2.9237    0.37241   0.48635 
 1                    0     1.65538   0.15603   0.41095 
 6                    0    -1.66692   1.11821   0.09858 
 6                    0    -0.17245   1.20869  -0.30943 
 1                    0    -1.97788   1.9758    0.73922 
 1                    0    -0.07198   1.11904  -1.41684 
 8                    0    -2.46677   1.26682  -1.06819 
 1                    0    -2.49644   0.41133  -1.58453 
 6                    0     0.55158   2.45996   0.19781 
 8                    0     1.80382   2.5928   -0.49958 
 1                    0     0.86468   2.35917   1.25856 
 1                    0    -0.04742   3.37835   0.07082 
 1                    0     1.65751   2.9268   -1.40969 
 1                    0     2.27286  -2.18173  -0.3983 
 6                    0    -1.50106  -1.47417   0.05376 
 1                    0    -1.67691  -2.38837   0.66272 
 6                    0    -1.99133  -0.2202    0.81977 
 1                    0    -3.09052  -0.28309   1.00381 
 8                    0    -2.23081  -1.53174  -1.18992 
 1                    0    -3.02038  -2.10342  -1.09877 
 8                    0    -1.43151  -0.20285   2.12252 
 1                    0    -0.43207  -0.25196   2.0637 
 8                    0     0.80796  -2.17591   0.17216 
 1                    0     0.10399  -1.1676   -1.47389 
 

 GradGradGradGradGradGradGradGradGradGradGradGradGradGradGradGradGradGrad
 Berny optimization.
 Initialization pass.
 No Z-matrix variables, so optimization will use Cartesian coordinates.
 Trust Radius=3.00D-01 FncErr=1.00D-07 GrdErr=1.00D-06
 Number of steps in this run=    180 maximum allowed number of steps=    180.
 Search for a saddle point of order  1.
 GradGradGradGradGradGradGradGradGradGradGradGradGradGradGradGradGradGrad

 ---------------------------------------------------------------------------------------------------
                            Z-MATRIX (ANGSTROMS AND DEGREES)
   CD    Cent   Atom    N1       Length/X        N2       Alpha/Y        N3        Beta/Z          J
 ---------------------------------------------------------------------------------------------------
      1      1  C        0  -0.023280         -1.433070         -0.411337
      2      2  O        0   0.448659          0.063094          0.298336
      3      3  H        0   3.026282          1.130747         -0.134058
      4      4  H        0   3.730122         -2.411020          0.164025
      5      5  O        0   3.274446         -1.900808         -0.511633
      6      6  H        0   3.287524         -0.497133         -0.033026
      7      7  O        0   2.923695          0.372414          0.486349
      8      8  H        0   1.655383          0.156030          0.410954
      9      9  C        0  -1.666916          1.118213          0.098575
     10     10  C        0  -0.172451          1.208693         -0.309428
     11     11  H        0  -1.977879          1.975798          0.739217
     12     12  H        0  -0.071979          1.119036         -1.416840
     13     13  O        0  -2.466767          1.266817         -1.068193
     14     14  H        0  -2.496439          0.411329         -1.584531
     15     15  C        0   0.551576          2.459962          0.197809
     16     16  O        0   1.803823          2.592802         -0.499581
     17     17  H        0   0.864675          2.359169          1.258563
     18     18  H        0  -0.047419          3.378345          0.070823
     19     19  H        0   1.657511          2.926804         -1.409694
     20     20  H        0   2.272858         -2.181725         -0.398297
     21     21  C        0  -1.501063         -1.474174          0.053762
     22     22  H        0  -1.676908         -2.388365          0.662723
     23     23  C        0  -1.991329         -0.220200          0.819768
     24     24  H        0  -3.090518         -0.283087          1.003805
     25     25  O        0  -2.230812         -1.531743         -1.189915
     26     26  H        0  -3.020379         -2.103423         -1.098766
     27     27  O        0  -1.431506         -0.202850          2.122525
     28     28  H        0  -0.432071         -0.251960          2.063697
     29     29  O        0   0.807962         -2.175913          0.172162
     30     30  H        0   0.103991         -1.167601         -1.473891
 ---------------------------------------------------------------------------------------------------
                         Z-Matrix orientation:                         
 ---------------------------------------------------------------------
 Center     Atomic      Atomic             Coordinates (Angstroms)
 Number     Number       Type             X           Y           Z
 ---------------------------------------------------------------------
      1          6           0       -0.023280   -1.433070   -0.411337
      2          8           0        0.448659    0.063094    0.298336
      3          1           0        3.026282    1.130747   -0.134058
      4          1           0        3.730122   -2.411020    0.164025
      5          8           0        3.274446   -1.900808   -0.511633
      6          1           0        3.287524   -0.497133   -0.033026
      7          8           0        2.923695    0.372414    0.486349
      8          1           0        1.655383    0.156030    0.410954
      9          6           0       -1.666916    1.118213    0.098575
     10          6           0       -0.172451    1.208693   -0.309428
     11          1           0       -1.977879    1.975798    0.739217
     12          1           0       -0.071979    1.119036   -1.416840
     13          8           0       -2.466767    1.266817   -1.068193
     14          1           0       -2.496439    0.411329   -1.584531
     15          6           0        0.551576    2.459962    0.197809
     16          8           0        1.803823    2.592802   -0.499581
     17          1           0        0.864675    2.359169    1.258563
     18          1           0       -0.047419    3.378345    0.070823
     19          1           0        1.657511    2.926804   -1.409694
     20          1           0        2.272858   -2.181725   -0.398297
     21          6           0       -1.501063   -1.474174    0.053762
     22          1           0       -1.676908   -2.388365    0.662723
     23          6           0       -1.991329   -0.220200    0.819768
     24          1           0       -3.090518   -0.283087    1.003805
     25          8           0       -2.230812   -1.531743   -1.189915
     26          1           0       -3.020379   -2.103423   -1.098766
     27          8           0       -1.431506   -0.202850    2.122525
     28          1           0       -0.432071   -0.251960    2.063697
     29          8           0        0.807962   -2.175913    0.172162
     30          1           0        0.103991   -1.167601   -1.473891
 ---------------------------------------------------------------------
                    Distance matrix (angstroms):
                    1          2          3          4          5
     1  C    0.000000
     2  O    1.721879   0.000000
     3  H    3.993729   2.823294   0.000000
     4  H    3.921155   4.111846   3.623308   0.000000
     5  O    3.332242   3.535256   3.065041   0.961494   0.000000
     6  H    3.461289   2.912526   1.651801   1.974256   1.483084
     7  O    3.570753   2.501366   0.985139   2.915771   2.507296
     8  H    2.453428   1.215526   1.768184   3.309873   2.775448
     9  C    3.077433   2.372517   4.698977   6.448859   5.822706
    10  C    2.647933   1.437898   3.204485   5.343833   4.646610
    11  H    4.094461   3.121041   5.149597   7.221931   6.646775
    12  H    2.743475   2.080362   3.353340   5.423689   4.597545
    13  O    3.700200   3.437450   5.573573   7.310696   6.580664
    14  H    3.300713   3.512842   5.755161   7.056427   6.308740
    15  C    3.982112   2.401182   2.828625   5.816422   5.189763
    16  O    4.421961   2.978685   1.940520   5.402706   4.728151
    17  H    4.237701   2.523305   2.849730   5.671288   5.204613
    18  H    4.835574   3.359873   3.813307   6.913411   6.264463
    19  H    4.778104   3.546763   2.593569   5.938407   5.169800
    20  H    2.415141   2.975267   3.407336   1.578734   1.046393
    21  C    1.549790   2.494880   5.226638   5.315556   4.827750
    22  H    2.191045   3.265037   5.927816   5.430026   5.112018
    23  C    2.619139   2.511113   5.283111   6.161550   5.685548
    24  H    3.568338   3.625369   6.380353   7.194057   6.739907
    25  O    2.342887   3.455135   5.986712   6.175679   5.559149
    26  H    3.147147   4.322027   6.924783   6.874483   6.325393
    27  O    3.149127   2.633137   5.171317   5.945935   5.654010
    28  H    2.772711   1.997860   4.324605   5.059066   4.805132
    29  O    1.258273   2.271161   3.993584   2.931614   2.574258
    30  H    1.102585   2.184993   3.951878   4.168655   3.393423
                    6          7          8          9         10
     6  H    0.000000
     7  O    1.076213   0.000000
     8  H    1.813181   1.288845   0.000000
     9  C    5.212786   4.666936   3.472902   0.000000
    10  C    3.867514   3.304352   2.228907   1.551799   0.000000
    11  H    5.868238   5.163353   4.076752   1.114707   2.224337
    12  H    3.976582   3.626794   2.692952   2.200070   1.115569
    13  O    6.106960   5.680989   4.518168   1.422390   2.417227
    14  H    6.056955   5.802406   4.613541   2.005153   2.768140
    15  C    4.035233   3.173021   2.563576   2.594580   1.532050
    16  O    3.459298   2.675125   2.605564   3.818145   2.420243
    17  H    3.961926   2.963625   2.489474   3.048688   2.204047
    18  H    5.113899   4.246858   3.660401   2.780600   2.206267
    19  H    4.034291   3.423903   3.315411   4.074026   2.740666
    20  H    2.000205   2.780254   2.549757   5.163167   4.181192
    21  C    4.888017   4.814094   3.570477   2.598073   3.015774
    22  H    5.357836   5.368292   4.200178   3.551683   4.018370
    23  C    5.354460   4.961836   3.688792   1.554578   2.573934
    24  H    6.465312   6.071919   4.802902   2.193109   3.530595
    25  O    5.732438   5.744965   4.529224   3.000075   3.538657
    26  H    6.595878   6.631318   5.408062   3.693836   4.438903
    27  O    5.196369   4.687833   3.547838   2.428374   3.080920
    28  H    4.276885   3.760191   2.693600   2.695166   2.798684
    29  O    3.001438   3.327012   2.492610   4.120886   3.556501
    30  H    3.558160   3.763631   2.776951   3.291460   2.660670
                   11         12         13         14         15
    11  H    0.000000
    12  H    3.002512   0.000000
    13  O    2.002098   2.424542   0.000000
    14  H    2.848907   2.531200   0.999672   0.000000
    15  C    2.631669   2.189519   3.483784   4.082160   0.000000
    16  O    4.026982   2.555775   4.507715   4.942489   1.439487
    17  H    2.914928   3.094032   4.207794   4.813975   1.110581
    18  H    2.478016   2.705221   3.407221   4.188207   1.103788
    19  H    4.328775   2.501842   4.458907   4.859371   2.006265
    20  H    6.053734   4.175011   5.899597   5.556732   4.986323
    21  C    3.549579   3.306008   3.115188   2.688847   4.439764
    22  H    4.375198   4.382036   4.120716   3.682400   5.356170
    23  C    2.197516   3.237263   2.449828   2.536655   3.746527
    24  H    2.531903   4.115465   2.661662   2.744927   4.630205
    25  O    4.011031   3.426176   2.811126   2.000452   5.059760
    26  H    4.594021   4.379324   3.415544   2.614280   5.938388
    27  O    2.637910   4.015321   3.662290   3.905581   3.837670
    28  H    3.017727   3.758116   4.031799   4.243953   3.435640
    29  O    5.031815   3.762434   4.910674   4.549600   4.643030
    30  H    4.371840   2.294107   3.563675   3.044256   4.019220
                   16         17         18         19         20
    16  O    0.000000
    17  H    2.006902   0.000000
    18  H    2.090343   1.811453   0.000000
    19  H    0.980444   2.840844   2.302739   0.000000
    20  H    4.798579   5.034668   6.043024   5.243915   0.000000
    21  C    5.269607   4.662915   5.065601   5.611319   3.866195
    22  H    6.186959   5.417910   6.021671   6.607896   4.095011
    23  C    4.904777   3.873299   4.158032   5.309253   4.849181
    24  H    5.872434   4.763399   4.851494   6.218694   5.859737
    25  O    5.810913   5.542227   5.519568   5.919966   4.618677
    26  H    6.759177   6.369095   6.344778   6.876228   5.339957
    27  O    5.015821   3.547227   4.353175   5.640331   4.898245
    28  H    4.434218   3.024531   4.159161   5.151246   4.135462
    29  O    4.917684   4.663738   5.620652   5.409411   1.572062
    30  H    4.240205   4.525821   4.803612   4.379692   2.624754
                   21         22         23         24         25
    21  C    0.000000
    22  H    1.112430   0.000000
    23  C    1.549057   2.196466   0.000000
    24  H    2.201735   2.558677   1.116262   0.000000
    25  O    1.443115   2.114918   2.411705   2.666579   0.000000
    26  H    2.008133   2.233596   2.878584   2.781968   0.979052
    27  O    2.429173   2.639644   1.418055   2.002572   3.657473
    28  H    2.583871   2.841931   1.994907   2.862111   3.931832
    29  O    2.416206   2.541725   3.475664   4.412773   3.391807
    30  H    2.236942   3.037595   3.247893   4.138385   2.380031
                   26         27         28         29         30
    26  H    0.000000
    27  O    4.063670   0.000000
    28  H    4.486471   1.002369   0.000000
    29  O    4.034440   3.565405   2.969374   0.000000
    30  H    3.283012   4.027742   3.693276   2.054692   0.000000
 Stoichiometry    C6H16O8
 Framework group  C1[X(C6H16O8)]
 Deg. of freedom    84
 Full point group                 C1      NOp   1
 Largest Abelian subgroup         C1      NOp   1
 Largest concise Abelian subgroup C1      NOp   1
                         Standard orientation:                         
 ---------------------------------------------------------------------
 Center     Atomic      Atomic             Coordinates (Angstroms)
 Number     Number       Type             X           Y           Z
 ---------------------------------------------------------------------
      1          6           0       -0.023280   -1.433070   -0.411337
      2          8           0        0.448659    0.063094    0.298336
      3          1           0        3.026282    1.130748   -0.134058
      4          1           0        3.730123   -2.411019    0.164025
      5          8           0        3.274446   -1.900807   -0.511633
      6          1           0        3.287524   -0.497132   -0.033026
      7          8           0        2.923695    0.372415    0.486349
      8          1           0        1.655383    0.156030    0.410954
      9          6           0       -1.666916    1.118213    0.098575
     10          6           0       -0.172451    1.208693   -0.309428
     11          1           0       -1.977879    1.975798    0.739217
     12          1           0       -0.071979    1.119036   -1.416840
     13          8           0       -2.466767    1.266817   -1.068193
     14          1           0       -2.496439    0.411329   -1.584531
     15          6           0        0.551576    2.459962    0.197809
     16          8           0        1.803823    2.592802   -0.499581
     17          1           0        0.864675    2.359169    1.258563
     18          1           0       -0.047419    3.378345    0.070823
     19          1           0        1.657511    2.926804   -1.409694
     20          1           0        2.272859   -2.181725   -0.398297
     21          6           0       -1.501063   -1.474174    0.053762
     22          1           0       -1.676907   -2.388365    0.662723
     23          6           0       -1.991329   -0.220200    0.819768
     24          1           0       -3.090518   -0.283087    1.003805
     25          8           0       -2.230812   -1.531743   -1.189915
     26          1           0       -3.020378   -2.103423   -1.098766
     27          8           0       -1.431506   -0.202850    2.122525
     28          1           0       -0.432071   -0.251960    2.063697
     29          8           0        0.807963   -2.175913    0.172162
     30          1           0        0.103991   -1.167601   -1.473891
 ---------------------------------------------------------------------
 Rotational constants (GHZ):      0.7480573      0.5433098      0.3911771
 Standard basis: 6-31G(d) (6D, 7F)
 There are   242 symmetry adapted cartesian basis functions of A   symmetry.
 There are   242 symmetry adapted basis functions of A   symmetry.
   242 basis functions,   456 primitive gaussians,   242 cartesian basis functions
    58 alpha electrons       58 beta electrons
       nuclear repulsion energy      1122.1833082332 Hartrees.
 NAtoms=   30 NActive=   30 NUniq=   30 SFac= 1.00D+00 NAtFMM=   60 NAOKFM=F Big=F
 Integral buffers will be    131072 words long.
 Raffenetti 2 integral format.
 Two-electron integral symmetry is turned on.
 One-electron integrals computed using PRISM.
 NBasis=   242 RedAO= T EigKep=  1.46D-03  NBF=   242
 NBsUse=   242 1.00D-06 EigRej= -1.00D+00 NBFU=   242
 ExpMin= 1.61D-01 ExpMax= 5.48D+03 ExpMxC= 8.25D+02 IAcc=1 IRadAn=         1 AccDes= 0.00D+00
 Harris functional with IExCor=  402 and IRadAn=       1 diagonalized for initial guess.
 HarFok:  IExCor=  402 AccDes= 0.00D+00 IRadAn=         1 IDoV= 1 UseB2=F ITyADJ=14
 ICtDFT=  3500011 ScaDFX=  1.000000  1.000000  1.000000  1.000000
 FoFCou: FMM=F IPFlag=           0 FMFlag=      100000 FMFlg1=           0
         NFxFlg=           0 DoJE=T BraDBF=F KetDBF=T FulRan=T
         wScrn=  0.000000 ICntrl=     500 IOpCl=  0 I1Cent=   200000004 NGrid=           0
         NMat0=    1 NMatS0=      1 NMatT0=    0 NMatD0=    1 NMtDS0=    0 NMtDT0=    0
 Petite list used in FoFCou.
 Requested convergence on RMS density matrix=1.00D-08 within 128 cycles.
 Requested convergence on MAX density matrix=1.00D-06.
 Requested convergence on             energy=1.00D-06.
 No special actions if energy rises.
 Integral accuracy reduced to 1.0D-05 until final iterations.
 Initial convergence to 1.0D-05 achieved.  Increase integral accuracy.
 SCF Done:  E(RB3LYP) =  -839.943677100     A.U. after   14 cycles
            NFock= 14  Conv=0.69D-08     -V/T= 2.0088
 DoSCS=F DFT=T ScalE2(SS,OS)=  1.000000  1.000000
 Range of M.O.s used for correlation:     1   242
 NBasis=   242 NAE=    58 NBE=    58 NFC=     0 NFV=     0
 NROrb=    242 NOA=    58 NOB=    58 NVA=   184 NVB=   184
 Symmetrizing basis deriv contribution to polar:
 IMax=3 JMax=2 DiffMx= 0.00D+00
 G2DrvN: will do    31 centers at a time, making    1 passes.
 Calling FoFCou, ICntrl=  3107 FMM=F I1Cent=   0 AccDes= 0.00D+00.
 End of G2Drv F.D. properties file   721 does not exist.
 End of G2Drv F.D. properties file   722 does not exist.
 End of G2Drv F.D. properties file   788 does not exist.
          IDoAtm=111111111111111111111111111111
          Differentiating once with respect to nuclear coordinates.
          There are    93 degrees of freedom in the 1st order CPHF.  IDoFFX=6 NUNeed=     0.
     87 vectors produced by pass  0 Test12= 1.15D-14 1.08D-09 XBig12= 1.45D-01 7.89D-02.
 AX will form    87 AO Fock derivatives at one time.
     87 vectors produced by pass  1 Test12= 1.15D-14 1.08D-09 XBig12= 3.19D-02 3.78D-02.
     87 vectors produced by pass  2 Test12= 1.15D-14 1.08D-09 XBig12= 2.10D-04 1.82D-03.
     87 vectors produced by pass  3 Test12= 1.15D-14 1.08D-09 XBig12= 4.36D-07 7.20D-05.
     87 vectors produced by pass  4 Test12= 1.15D-14 1.08D-09 XBig12= 6.22D-10 2.19D-06.
     70 vectors produced by pass  5 Test12= 1.15D-14 1.08D-09 XBig12= 4.82D-13 5.20D-08.
      3 vectors produced by pass  6 Test12= 1.15D-14 1.08D-09 XBig12= 3.58D-16 1.33D-09.
 InvSVY:  IOpt=1 It=  1 EMax= 5.00D-16
 Solved reduced A of dimension   508 with    93 vectors.
 End of Minotr F.D. properties file   721 does not exist.
 End of Minotr F.D. properties file   722 does not exist.
 End of Minotr F.D. properties file   788 does not exist.

 **********************************************************************

            Population analysis using the SCF density.

 **********************************************************************

 Orbital symmetries:
       Occupied  (A) (A) (A) (A) (A) (A) (A) (A) (A) (A) (A) (A)
                 (A) (A) (A) (A) (A) (A) (A) (A) (A) (A) (A) (A)
                 (A) (A) (A) (A) (A) (A) (A) (A) (A) (A) (A) (A)
                 (A) (A) (A) (A) (A) (A) (A) (A) (A) (A) (A) (A)
                 (A) (A) (A) (A) (A) (A) (A) (A) (A) (A)
       Virtual   (A) (A) (A) (A) (A) (A) (A) (A) (A) (A) (A) (A)
                 (A) (A) (A) (A) (A) (A) (A) (A) (A) (A) (A) (A)
                 (A) (A) (A) (A) (A) (A) (A) (A) (A) (A) (A) (A)
                 (A) (A) (A) (A) (A) (A) (A) (A) (A) (A) (A) (A)
                 (A) (A) (A) (A) (A) (A) (A) (A) (A) (A) (A) (A)
                 (A) (A) (A) (A) (A) (A) (A) (A) (A) (A) (A) (A)
                 (A) (A) (A) (A) (A) (A) (A) (A) (A) (A) (A) (A)
                 (A) (A) (A) (A) (A) (A) (A) (A) (A) (A) (A) (A)
                 (A) (A) (A) (A) (A) (A) (A) (A) (A) (A) (A) (A)
                 (A) (A) (A) (A) (A) (A) (A) (A) (A) (A) (A) (A)
                 (A) (A) (A) (A) (A) (A) (A) (A) (A) (A) (A) (A)
                 (A) (A) (A) (A) (A) (A) (A) (A) (A) (A) (A) (A)
                 (A) (A) (A) (A) (A) (A) (A) (A) (A) (A) (A) (A)
                 (A) (A) (A) (A) (A) (A) (A) (A) (A) (A) (A) (A)
                 (A) (A) (A) (A) (A) (A) (A) (A) (A) (A) (A) (A)
                 (A) (A) (A) (A)
 The electronic state is 1-A.
 Alpha  occ. eigenvalues --  -19.17897 -19.16865 -19.16768 -19.16474 -19.14840
 Alpha  occ. eigenvalues --  -19.12912 -19.12779 -19.08934 -10.27592 -10.25776
 Alpha  occ. eigenvalues --  -10.24951 -10.24215 -10.23767 -10.23632  -1.05904
 Alpha  occ. eigenvalues --   -1.04153  -1.03161  -1.01990  -1.00367  -0.99841
 Alpha  occ. eigenvalues --   -0.99380  -0.97349  -0.76503  -0.74825  -0.68794
 Alpha  occ. eigenvalues --   -0.64750  -0.60628  -0.57493  -0.55248  -0.54099
 Alpha  occ. eigenvalues --   -0.53945  -0.52326  -0.51676  -0.50511  -0.48524
 Alpha  occ. eigenvalues --   -0.46690  -0.45708  -0.44861  -0.43786  -0.42968
 Alpha  occ. eigenvalues --   -0.41223  -0.40494  -0.39437  -0.39148  -0.37153
 Alpha  occ. eigenvalues --   -0.36653  -0.36271  -0.35249  -0.33939  -0.31148
 Alpha  occ. eigenvalues --   -0.30819  -0.30682  -0.30421  -0.29055  -0.26627
 Alpha  occ. eigenvalues --   -0.25022  -0.23841  -0.22725
 Alpha virt. eigenvalues --    0.03743   0.04440   0.05514   0.07756   0.09173
 Alpha virt. eigenvalues --    0.10144   0.10707   0.11835   0.12655   0.13403
 Alpha virt. eigenvalues --    0.14097   0.14841   0.16460   0.16984   0.18404
 Alpha virt. eigenvalues --    0.20814   0.21973   0.23039   0.23838   0.24102
 Alpha virt. eigenvalues --    0.24660   0.25172   0.26657   0.28212   0.30994
 Alpha virt. eigenvalues --    0.31737   0.34106   0.37974   0.51408   0.53608
 Alpha virt. eigenvalues --    0.55336   0.57335   0.57728   0.58658   0.59125
 Alpha virt. eigenvalues --    0.60924   0.61987   0.63232   0.63947   0.65256
 Alpha virt. eigenvalues --    0.67594   0.68555   0.70613   0.72000   0.74663
 Alpha virt. eigenvalues --    0.75622   0.77324   0.78222   0.79270   0.79988
 Alpha virt. eigenvalues --    0.81535   0.81901   0.82164   0.82612   0.82989
 Alpha virt. eigenvalues --    0.85426   0.86069   0.86421   0.87842   0.88174
 Alpha virt. eigenvalues --    0.88426   0.89971   0.92018   0.93545   0.95517
 Alpha virt. eigenvalues --    0.96158   0.97414   0.98055   0.99920   1.02075
 Alpha virt. eigenvalues --    1.04150   1.04812   1.07497   1.07597   1.08736
 Alpha virt. eigenvalues --    1.09397   1.12278   1.13727   1.14956   1.16467
 Alpha virt. eigenvalues --    1.17908   1.18506   1.21839   1.23330   1.26225
 Alpha virt. eigenvalues --    1.28590   1.32488   1.34253   1.37018   1.37461
 Alpha virt. eigenvalues --    1.40778   1.43407   1.45419   1.50309   1.50576
 Alpha virt. eigenvalues --    1.51822   1.54595   1.58342   1.59920   1.61198
 Alpha virt. eigenvalues --    1.63409   1.64060   1.68025   1.68676   1.70153
 Alpha virt. eigenvalues --    1.71120   1.71265   1.71772   1.72859   1.75007
 Alpha virt. eigenvalues --    1.75552   1.77351   1.77809   1.78186   1.79571
 Alpha virt. eigenvalues --    1.80103   1.81327   1.82981   1.85439   1.87278
 Alpha virt. eigenvalues --    1.88867   1.89726   1.92882   1.94444   1.95759
 Alpha virt. eigenvalues --    1.98164   1.98831   2.02576   2.03893   2.05082
 Alpha virt. eigenvalues --    2.06111   2.07396   2.08495   2.12993   2.15292
 Alpha virt. eigenvalues --    2.16287   2.20140   2.23951   2.26142   2.28276
 Alpha virt. eigenvalues --    2.31952   2.32166   2.33486   2.36188   2.37533
 Alpha virt. eigenvalues --    2.39796   2.43916   2.45267   2.47586   2.50831
 Alpha virt. eigenvalues --    2.54917   2.55543   2.58733   2.59490   2.60633
 Alpha virt. eigenvalues --    2.61115   2.64462   2.66199   2.70110   2.73890
 Alpha virt. eigenvalues --    2.75639   2.77376   2.79864   2.82030   2.86524
 Alpha virt. eigenvalues --    2.91953   2.95040   2.99176   3.05836   3.09016
 Alpha virt. eigenvalues --    3.70966   3.75043   3.77187   3.85731   3.86733
 Alpha virt. eigenvalues --    4.02314   4.02883   4.10711   4.27923   4.42364
 Alpha virt. eigenvalues --    4.44437   4.58880   4.76153   4.88363
          Condensed to atoms (all electrons):
               1          2          3          4          5          6
     1  C    4.670117   0.018222  -0.000037  -0.000301   0.004937   0.000027
     2  O    0.018222   8.729709   0.005207  -0.000005  -0.000802   0.004551
     3  H   -0.000037   0.005207   0.329529  -0.000058   0.001297   0.000789
     4  H   -0.000301  -0.000005  -0.000058   0.371549   0.237257  -0.007898
     5  O    0.004937  -0.000802   0.001297   0.237257   8.429084   0.110584
     6  H    0.000027   0.004551   0.000789  -0.007898   0.110584   0.304896
     7  O    0.001147  -0.078768   0.209368   0.003752  -0.068528   0.157945
     8  H    0.001064   0.103179  -0.011230   0.000038   0.004477  -0.007706
     9  C   -0.015397  -0.036750   0.000063  -0.000000  -0.000000   0.000008
    10  C    0.005302   0.125544   0.000587   0.000002  -0.000014  -0.000032
    11  H    0.000013   0.003646  -0.000001  -0.000000   0.000000  -0.000000
    12  H   -0.004634  -0.040310   0.000085   0.000000   0.000002   0.000007
    13  O   -0.000063   0.001605  -0.000000  -0.000000   0.000000  -0.000000
    14  H   -0.000184   0.000011  -0.000000   0.000000  -0.000000   0.000000
    15  C    0.000863  -0.027896  -0.005767  -0.000000   0.000005  -0.000093
    16  O   -0.000079   0.000038   0.044422   0.000000  -0.000004   0.000101
    17  H   -0.000086  -0.001504  -0.001185  -0.000000   0.000002   0.000016
    18  H   -0.000019   0.003157   0.000414   0.000000   0.000000  -0.000001
    19  H    0.000001  -0.000214  -0.002065  -0.000000   0.000001  -0.000003
    20  H   -0.006708   0.002136  -0.000070  -0.011055   0.160196  -0.008951
    21  C    0.278251  -0.020173   0.000004  -0.000000  -0.000097   0.000040
    22  H   -0.034080   0.002584  -0.000000  -0.000000   0.000002  -0.000001
    23  C   -0.039716  -0.006141   0.000002  -0.000000   0.000001  -0.000001
    24  H    0.003883   0.000174  -0.000000   0.000000  -0.000000   0.000000
    25  O   -0.035002   0.000503  -0.000000  -0.000000   0.000000  -0.000000
    26  H    0.005802  -0.000105   0.000000   0.000000  -0.000000   0.000000
    27  O    0.004546  -0.021692   0.000000   0.000000  -0.000000   0.000000
    28  H    0.004941   0.028230  -0.000001   0.000000   0.000002  -0.000004
    29  O    0.407598  -0.084717   0.000060   0.003087  -0.052519   0.001758
    30  H    0.349823  -0.040316   0.000026  -0.000042   0.001890  -0.000095
               7          8          9         10         11         12
     1  C    0.001147   0.001064  -0.015397   0.005302   0.000013  -0.004634
     2  O   -0.078768   0.103179  -0.036750   0.125544   0.003646  -0.040310
     3  H    0.209368  -0.011230   0.000063   0.000587  -0.000001   0.000085
     4  H    0.003752   0.000038  -0.000000   0.000002  -0.000000   0.000000
     5  O   -0.068528   0.004477  -0.000000  -0.000014   0.000000   0.000002
     6  H    0.157945  -0.007706   0.000008  -0.000032  -0.000000   0.000007
     7  O    8.479411   0.133888  -0.000096   0.002763   0.000003  -0.000018
     8  H    0.133888   0.294725   0.002001  -0.005446  -0.000104   0.000494
     9  C   -0.000096   0.002001   5.010474   0.250251   0.376195  -0.049124
    10  C    0.002763  -0.005446   0.250251   5.073588  -0.062878   0.350531
    11  H    0.000003  -0.000104   0.376195  -0.062878   0.603129   0.004717
    12  H   -0.000018   0.000494  -0.049124   0.350531   0.004717   0.623774
    13  O    0.000000  -0.000044   0.213507  -0.042658  -0.042735   0.004654
    14  H    0.000000  -0.000005  -0.029004  -0.002167   0.005716   0.002476
    15  C    0.004260  -0.006686  -0.015065   0.312457  -0.003955  -0.043571
    16  O   -0.021495   0.004160   0.003139  -0.039350   0.000079  -0.001478
    17  H    0.001402   0.000565  -0.001697  -0.035181   0.001478   0.004545
    18  H   -0.000051   0.000275   0.000798  -0.044378   0.003636   0.001985
    19  H    0.000873   0.000007  -0.000216  -0.002127   0.000019   0.004850
    20  H    0.004930  -0.000232  -0.000008  -0.000077  -0.000000  -0.000044
    21  C   -0.000033   0.000984  -0.020870  -0.018947   0.005251  -0.000292
    22  H    0.000002  -0.000053   0.004831  -0.000091  -0.000132   0.000013
    23  C   -0.000001   0.000138   0.314536  -0.034562  -0.037334   0.000782
    24  H    0.000000   0.000010  -0.048762   0.005581  -0.005460  -0.000167
    25  O    0.000000  -0.000009  -0.000281   0.000664  -0.000215  -0.000106
    26  H   -0.000000   0.000001  -0.000419   0.000013   0.000011  -0.000003
    27  O   -0.000003   0.000122  -0.042251   0.005784   0.002965  -0.000220
    28  H   -0.000021   0.000805  -0.006178   0.001695  -0.000082   0.000502
    29  O   -0.001769   0.012012   0.000301   0.002607   0.000003   0.000223
    30  H   -0.000031   0.000605   0.000000  -0.000897   0.000018   0.010706
              13         14         15         16         17         18
     1  C   -0.000063  -0.000184   0.000863  -0.000079  -0.000086  -0.000019
     2  O    0.001605   0.000011  -0.027896   0.000038  -0.001504   0.003157
     3  H   -0.000000  -0.000000  -0.005767   0.044422  -0.001185   0.000414
     4  H   -0.000000   0.000000  -0.000000   0.000000  -0.000000   0.000000
     5  O    0.000000  -0.000000   0.000005  -0.000004   0.000002   0.000000
     6  H   -0.000000   0.000000  -0.000093   0.000101   0.000016  -0.000001
     7  O    0.000000   0.000000   0.004260  -0.021495   0.001402  -0.000051
     8  H   -0.000044  -0.000005  -0.006686   0.004160   0.000565   0.000275
     9  C    0.213507  -0.029004  -0.015065   0.003139  -0.001697   0.000798
    10  C   -0.042658  -0.002167   0.312457  -0.039350  -0.035181  -0.044378
    11  H   -0.042735   0.005716  -0.003955   0.000079   0.001478   0.003636
    12  H    0.004654   0.002476  -0.043571  -0.001478   0.004545   0.001985
    13  O    8.336800   0.226693   0.002136  -0.000030  -0.000013   0.000796
    14  H    0.226693   0.358238  -0.000027   0.000001   0.000002   0.000001
    15  C    0.002136  -0.000027   4.962251   0.206314   0.370644   0.358540
    16  O   -0.000030   0.000001   0.206314   8.275725  -0.037888  -0.028032
    17  H   -0.000013   0.000002   0.370644  -0.037888   0.538042  -0.029522
    18  H    0.000796   0.000001   0.358540  -0.028032  -0.029522   0.580601
    19  H   -0.000001  -0.000000  -0.024092   0.233317   0.006284  -0.006525
    20  H   -0.000000   0.000000  -0.000003   0.000000  -0.000001  -0.000000
    21  C    0.002175  -0.002423   0.000089  -0.000005  -0.000000   0.000012
    22  H   -0.000182   0.000416   0.000012  -0.000000  -0.000001  -0.000000
    23  C   -0.027528  -0.010304   0.001128  -0.000049  -0.000282   0.000177
    24  H    0.004621  -0.000088  -0.000095   0.000000   0.000007  -0.000002
    25  O   -0.014281   0.042235   0.000004  -0.000000  -0.000000  -0.000000
    26  H    0.000901  -0.001611  -0.000001   0.000000   0.000000   0.000000
    27  O    0.001826   0.000050  -0.000459   0.000001   0.000573  -0.000014
    28  H   -0.000019   0.000027  -0.000708   0.000001   0.000907   0.000024
    29  O   -0.000000   0.000004  -0.000185   0.000001  -0.000011   0.000002
    30  H    0.000226   0.000508   0.000116  -0.000018   0.000006   0.000013
              19         20         21         22         23         24
     1  C    0.000001  -0.006708   0.278251  -0.034080  -0.039716   0.003883
     2  O   -0.000214   0.002136  -0.020173   0.002584  -0.006141   0.000174
     3  H   -0.002065  -0.000070   0.000004  -0.000000   0.000002  -0.000000
     4  H   -0.000000  -0.011055  -0.000000  -0.000000  -0.000000   0.000000
     5  O    0.000001   0.160196  -0.000097   0.000002   0.000001  -0.000000
     6  H   -0.000003  -0.008951   0.000040  -0.000001  -0.000001   0.000000
     7  O    0.000873   0.004930  -0.000033   0.000002  -0.000001   0.000000
     8  H    0.000007  -0.000232   0.000984  -0.000053   0.000138   0.000010
     9  C   -0.000216  -0.000008  -0.020870   0.004831   0.314536  -0.048762
    10  C   -0.002127  -0.000077  -0.018947  -0.000091  -0.034562   0.005581
    11  H    0.000019  -0.000000   0.005251  -0.000132  -0.037334  -0.005460
    12  H    0.004850  -0.000044  -0.000292   0.000013   0.000782  -0.000167
    13  O   -0.000001  -0.000000   0.002175  -0.000182  -0.027528   0.004621
    14  H   -0.000000   0.000000  -0.002423   0.000416  -0.010304  -0.000088
    15  C   -0.024092  -0.000003   0.000089   0.000012   0.001128  -0.000095
    16  O    0.233317   0.000000  -0.000005  -0.000000  -0.000049   0.000000
    17  H    0.006284  -0.000001  -0.000000  -0.000001  -0.000282   0.000007
    18  H   -0.006525  -0.000000   0.000012  -0.000000   0.000177  -0.000002
    19  H    0.387418  -0.000000   0.000001   0.000000  -0.000004  -0.000000
    20  H   -0.000000   0.320119   0.002042  -0.000030  -0.000035   0.000001
    21  C    0.000001   0.002042   5.222439   0.349592   0.300208  -0.043775
    22  H    0.000000  -0.000030   0.349592   0.582104  -0.038859  -0.005290
    23  C   -0.000004  -0.000035   0.300208  -0.038859   4.910746   0.368203
    24  H   -0.000000   0.000001  -0.043775  -0.005290   0.368203   0.611974
    25  O   -0.000000  -0.000039   0.128300  -0.023729  -0.036877   0.002645
    26  H    0.000000   0.000002  -0.014930  -0.009623   0.000822   0.001799
    27  O   -0.000000   0.000003  -0.039985   0.003874   0.222062  -0.037320
    28  H    0.000001  -0.000051  -0.010511   0.000023  -0.033250   0.005966
    29  O    0.000000   0.104173  -0.045108   0.004229   0.000227  -0.000082
    30  H   -0.000008  -0.007166  -0.100816   0.004948   0.002983  -0.000303
              25         26         27         28         29         30
     1  C   -0.035002   0.005802   0.004546   0.004941   0.407598   0.349823
     2  O    0.000503  -0.000105  -0.021692   0.028230  -0.084717  -0.040316
     3  H   -0.000000   0.000000   0.000000  -0.000001   0.000060   0.000026
     4  H   -0.000000   0.000000   0.000000   0.000000   0.003087  -0.000042
     5  O    0.000000  -0.000000  -0.000000   0.000002  -0.052519   0.001890
     6  H   -0.000000   0.000000   0.000000  -0.000004   0.001758  -0.000095
     7  O    0.000000  -0.000000  -0.000003  -0.000021  -0.001769  -0.000031
     8  H   -0.000009   0.000001   0.000122   0.000805   0.012012   0.000605
     9  C   -0.000281  -0.000419  -0.042251  -0.006178   0.000301   0.000000
    10  C    0.000664   0.000013   0.005784   0.001695   0.002607  -0.000897
    11  H   -0.000215   0.000011   0.002965  -0.000082   0.000003   0.000018
    12  H   -0.000106  -0.000003  -0.000220   0.000502   0.000223   0.010706
    13  O   -0.014281   0.000901   0.001826  -0.000019  -0.000000   0.000226
    14  H    0.042235  -0.001611   0.000050   0.000027   0.000004   0.000508
    15  C    0.000004  -0.000001  -0.000459  -0.000708  -0.000185   0.000116
    16  O   -0.000000   0.000000   0.000001   0.000001   0.000001  -0.000018
    17  H   -0.000000   0.000000   0.000573   0.000907  -0.000011   0.000006
    18  H   -0.000000   0.000000  -0.000014   0.000024   0.000002   0.000013
    19  H   -0.000000   0.000000  -0.000000   0.000001   0.000000  -0.000008
    20  H   -0.000039   0.000002   0.000003  -0.000051   0.104173  -0.007166
    21  C    0.128300  -0.014930  -0.039985  -0.010511  -0.045108  -0.100816
    22  H   -0.023729  -0.009623   0.003874   0.000023   0.004229   0.004948
    23  C   -0.036877   0.000822   0.222062  -0.033250   0.000227   0.002983
    24  H    0.002645   0.001799  -0.037320   0.005966  -0.000082  -0.000303
    25  O    8.340598   0.231168   0.001877   0.000071   0.000847   0.011044
    26  H    0.231168   0.380380  -0.000061   0.000005  -0.000158  -0.000448
    27  O    0.001877  -0.000061   8.323633   0.230037  -0.000575  -0.000070
    28  H    0.000071   0.000005   0.230037   0.363058   0.003858   0.000624
    29  O    0.000847  -0.000158  -0.000575   0.003858   8.301470  -0.047855
    30  H    0.011044  -0.000448  -0.000070   0.000624  -0.047855   0.700496
 Mulliken charges:
               1
     1  C    0.379772
     2  O   -0.669104
     3  H    0.428561
     4  H    0.403676
     5  O   -0.827772
     6  H    0.444062
     7  O   -0.828930
     8  H    0.471965
     9  C    0.090015
    10  C    0.151435
    11  H    0.146018
    12  H    0.129620
    13  O   -0.668386
    14  H    0.409434
    15  C   -0.090215
    16  O   -0.638875
    17  H    0.182897
    18  H    0.158116
    19  H    0.402483
    20  H    0.440869
    21  C    0.028578
    22  H    0.159442
    23  C    0.142928
    24  H    0.136479
    25  O   -0.649416
    26  H    0.406454
    27  O   -0.654703
    28  H    0.410046
    29  O   -0.609480
    30  H    0.114033
 Sum of Mulliken charges =  -0.00000
 Mulliken charges with hydrogens summed into heavy atoms:
               1
     1  C    0.493804
     2  O   -0.197139
     5  O    0.016773
     7  O    0.043693
     9  C    0.236032
    10  C    0.281055
    13  O   -0.258952
    15  C    0.250798
    16  O   -0.236392
    21  C    0.188020
    23  C    0.279407
    25  O   -0.242962
    27  O   -0.244657
    29  O   -0.609480
 APT charges:
               1
     1  C   -0.277274
     2  O   -0.382592
     3  H    0.562493
     4  H    0.863459
     5  O   -1.113157
     6  H    0.490018
     7  O   -0.953647
     8  H    0.436227
     9  C   -0.394823
    10  C   -0.127909
    11  H    0.541050
    12  H    0.296934
    13  O   -0.680331
    14  H    0.505052
    15  C   -0.768750
    16  O   -0.877510
    17  H    0.390858
    18  H    0.574512
    19  H    0.731837
    20  H    0.252174
    21  C   -0.280472
    22  H    0.540269
    23  C   -0.474346
    24  H    0.616834
    25  O   -1.153472
    26  H    0.936462
    27  O   -0.513587
    28  H    0.360172
    29  O   -0.394112
    30  H    0.293634
 Sum of APT charges =  -0.00000
 APT charges with hydrogens summed into heavy atoms:
               1
     1  C    0.016360
     2  O    0.053636
     5  O    0.002476
     7  O    0.098864
     9  C    0.146226
    10  C    0.169025
    13  O   -0.175279
    15  C    0.196619
    16  O   -0.145673
    21  C    0.259796
    23  C    0.142488
    25  O   -0.217011
    27  O   -0.153415
    29  O   -0.394112
 Electronic spatial extent (au):  <R**2>=           3035.4323
 Charge=              0.0000 electrons
 Dipole moment (field-independent basis, Debye):
    X=              0.5178    Y=              1.1004    Z=             -2.1055  Tot=              2.4315
 Quadrupole moment (field-independent basis, Debye-Ang):
   XX=            -79.6570   YY=            -77.9359   ZZ=            -87.5303
   XY=              8.5853   XZ=              1.2422   YZ=             -2.8941
 Traceless Quadrupole moment (field-independent basis, Debye-Ang):
   XX=              2.0507   YY=              3.7718   ZZ=             -5.8225
   XY=              8.5853   XZ=              1.2422   YZ=             -2.8941
 Octapole moment (field-independent basis, Debye-Ang**2):
  XXX=             16.9446  YYY=              5.3292  ZZZ=            -19.8115  XYY=              4.5862
  XXY=            -50.4488  XXZ=             -0.5754  XZZ=             18.4923  YZZ=              9.3091
  YYZ=             -4.7184  XYZ=            -28.0941
 Hexadecapole moment (field-independent basis, Debye-Ang**3):
 XXXX=          -1665.2227 YYYY=          -1217.7464 ZZZZ=           -451.8407 XXXY=             44.2406
 XXXZ=             46.1922 YYYX=             14.4747 YYYZ=            -34.4782 ZZZX=             39.5526
 ZZZY=            -18.5161 XXYY=           -445.0314 XXZZ=           -402.2946 YYZZ=           -269.8696
 XXYZ=            -27.7420 YYXZ=              0.2087 ZZXY=             25.4249
 N-N= 1.122183308233D+03 E-N=-4.217321930006D+03  KE= 8.326332789365D+02
  Exact polarizability:   0.000   0.000   0.000   0.000   0.000   0.000
 Approx polarizability: 142.926  -4.894 139.769   6.480  -4.902 129.353
 Calling FoFJK, ICntrl=    100147 FMM=F ISym2X=0 I1Cent= 0 IOpClX= 0 NMat=1 NMatS=1 NMatT=0.
 ***** Axes restored to original set *****
 -------------------------------------------------------------------
 Center     Atomic                   Forces (Hartrees/Bohr)
 Number     Number              X              Y              Z
 -------------------------------------------------------------------
      1        6           0.011158876   -0.001773187    0.029906816
      2        8           0.023076143    0.028245212   -0.006705462
      3        1          -0.004680377   -0.000296890    0.008168341
      4        1           0.004728382   -0.005326225    0.005686817
      5        8          -0.010230434   -0.005602474   -0.010795791
      6        1          -0.012713248    0.010455466    0.015422606
      7        8           0.004205881   -0.013957513   -0.019289907
      8        1          -0.007663488    0.001728639   -0.002373497
      9        6          -0.017093735   -0.000728412   -0.018596757
     10        6           0.000790046   -0.004963370    0.020333459
     11        1           0.006831140   -0.012193290   -0.001498257
     12        1          -0.003914941    0.005137443    0.009609776
     13        8          -0.010972533   -0.005797205   -0.017708285
     14        1           0.004826224    0.014276982    0.018621796
     15        6           0.009701956    0.002402314   -0.007473012
     16        8           0.006569057    0.010755348   -0.009983853
     17        1          -0.010529122   -0.000221545   -0.008935482
     18        1           0.000063281   -0.004893637    0.001416176
     19        1          -0.002984599   -0.003588334    0.010278202
     20        1           0.010132711    0.009498315    0.003690035
     21        6          -0.012536979    0.002013620   -0.013047425
     22        1           0.005442131    0.010102624   -0.004717118
     23        6           0.010446920    0.003053358    0.018839982
     24        1           0.011854381    0.000750010   -0.008884547
     25        8          -0.013211759   -0.012558968   -0.008719543
     26        1           0.007673526    0.007156765    0.001529940
     27        8           0.018682612   -0.002773502    0.015052890
     28        1          -0.027768417    0.001182778   -0.007662797
     29        8           0.002348062   -0.032478207   -0.008741552
     30        1          -0.004231695    0.000393886   -0.003423550
 -------------------------------------------------------------------
 Cartesian Forces:  Max     0.032478207 RMS     0.011391241

 GradGradGradGradGradGradGradGradGradGradGradGradGradGradGradGradGradGrad
 Berny optimization.
 Search for a saddle point.
 Step number   1 out of a maximum of  180
 All quantities printed in internal units (Hartrees-Bohrs-Radians)
 Swapping is turned off.
 Second derivative matrix not updated -- analytic derivatives used.
 ITU=  0
     Eigenvalues ---   -0.06347  -0.00148  -0.00000   0.00110   0.00246
     Eigenvalues ---    0.00410   0.00547   0.00586   0.00679   0.00816
     Eigenvalues ---    0.01000   0.01120   0.01207   0.01481   0.01560
     Eigenvalues ---    0.01723   0.01775   0.02114   0.02219   0.02415
     Eigenvalues ---    0.03128   0.03274   0.03482   0.03720   0.04285
     Eigenvalues ---    0.04545   0.04715   0.04870   0.05225   0.05399
     Eigenvalues ---    0.05653   0.06007   0.06106   0.06361   0.06846
     Eigenvalues ---    0.07252   0.07390   0.07697   0.08344   0.09608
     Eigenvalues ---    0.10254   0.11158   0.11923   0.12789   0.14052
     Eigenvalues ---    0.14588   0.15344   0.15952   0.16529   0.16851
     Eigenvalues ---    0.17458   0.18620   0.19871   0.20813   0.23415
     Eigenvalues ---    0.25083   0.26487   0.29853   0.32093   0.34806
     Eigenvalues ---    0.40514   0.42255   0.48584   0.50404   0.52740
     Eigenvalues ---    0.56501   0.58925   0.59880   0.61006   0.63090
     Eigenvalues ---    0.69829   0.73063   0.74337   0.77545   0.82966
     Eigenvalues ---    0.84323   0.86083   0.89240   0.90067   0.92226
     Eigenvalues ---    0.99073   1.01422   1.07438   1.32648
 Eigenvectors required to have negative eigenvalues:
                          X8        Y6        Y1        X7        Z2
   1                    0.74341  -0.28770   0.28221  -0.25283  -0.14961
                          X20       Y2        Y5        X29       X3
   1                   -0.14793  -0.14538   0.13135   0.12012  -0.11227
 RFO step:  Lambda0=2.796107040D-03 Lambda=-3.41598004D-02.
 Linear search not attempted -- option 19 set.
 Maximum step size (   0.300) exceeded in Quadratic search.
    -- Step size scaled by   0.339
 B after Tr=    -0.000830    0.000272    0.000636
         Rot=    1.000000    0.000252    0.000173   -0.000016 Ang=   0.04 deg.
 Variable       Old X    -DE/DX   Delta X   Delta X   Delta X     New X
                                 (Linear)    (Quad)   (Total)
    X1       -0.04399   0.01116   0.00000   0.02133   0.02083  -0.02316
    Y1       -2.70811  -0.00177   0.00000  -0.00024  -0.00033  -2.70844
    Z1       -0.77731   0.02991   0.00000   0.04838   0.05037  -0.72694
    X2        0.84784   0.02308   0.00000   0.02807   0.02704   0.87488
    Y2        0.11923   0.02825   0.00000   0.01726   0.01785   0.13708
    Z2        0.56377  -0.00671   0.00000   0.00706   0.00793   0.57170
    X3        5.71884  -0.00468   0.00000  -0.01980  -0.02063   5.69822
    Y3        2.13680  -0.00030   0.00000   0.00359   0.00394   2.14074
    Z3       -0.25333   0.00817   0.00000   0.05082   0.05235  -0.20098
    X4        7.04891   0.00473   0.00000   0.06961   0.06888   7.11779
    Y4       -4.55617  -0.00533   0.00000  -0.07572  -0.07517  -4.63133
    Z4        0.30996   0.00569   0.00000  -0.19429  -0.18886   0.12110
    X5        6.18781  -0.01023   0.00000  -0.03855  -0.03892   6.14889
    Y5       -3.59201  -0.00560   0.00000   0.03573   0.03569  -3.55632
    Z5       -0.96685  -0.01080   0.00000  -0.04341  -0.03885  -1.00570
    X6        6.21252  -0.01271   0.00000  -0.03507  -0.03587   6.17665
    Y6       -0.93945   0.01046   0.00000  -0.01378  -0.01332  -0.95276
    Z6       -0.06241   0.01542   0.00000   0.05604   0.05929  -0.00312
    X7        5.52498   0.00421   0.00000  -0.02720  -0.02838   5.49660
    Y7        0.70376  -0.01396   0.00000  -0.01266  -0.01174   0.69202
    Z7        0.91907  -0.01929   0.00000   0.02679   0.02898   0.94805
    X8        3.12822  -0.00766   0.00000   0.05773   0.05661   3.18483
    Y8        0.29485   0.00173   0.00000   0.02659   0.02737   0.32222
    Z8        0.77659  -0.00237   0.00000   0.02913   0.03070   0.80729
    X9       -3.15001  -0.01709   0.00000  -0.01114  -0.01210  -3.16211
    Y9        2.11312  -0.00073   0.00000  -0.00164  -0.00138   2.11173
    Z9        0.18628  -0.01860   0.00000  -0.02068  -0.02220   0.16408
   X10       -0.32589   0.00079   0.00000   0.00361   0.00290  -0.32298
   Y10        2.28410  -0.00496   0.00000  -0.00645  -0.00647   2.27762
   Z10       -0.58473   0.02033   0.00000   0.01357   0.01295  -0.57179
   X11       -3.73765   0.00683   0.00000   0.00681   0.00538  -3.73227
   Y11        3.73372  -0.01219   0.00000  -0.01816  -0.01730   3.71641
   Z11        1.39692  -0.00150   0.00000  -0.00891  -0.01143   1.38549
   X12       -0.13602  -0.00391   0.00000  -0.00806  -0.00804  -0.14406
   Y12        2.11467   0.00514   0.00000   0.00367   0.00260   2.11727
   Z12       -2.67744   0.00961   0.00000   0.01752   0.01704  -2.66040
   X13       -4.66151  -0.01097   0.00000  -0.01028  -0.01048  -4.67199
   Y13        2.39394  -0.00580   0.00000  -0.00033  -0.00124   2.39270
   Z13       -2.01859  -0.01771   0.00000  -0.01933  -0.02151  -2.04010
   X14       -4.71759   0.00483   0.00000   0.00976   0.00994  -4.70764
   Y14        0.77730   0.01428   0.00000  -0.00361  -0.00499   0.77231
   Z14       -2.99433   0.01862   0.00000   0.01553   0.01415  -2.98018
   X15        1.04233   0.00970   0.00000   0.00526   0.00416   1.04649
   Y15        4.64865   0.00240   0.00000   0.00393   0.00442   4.65307
   Z15        0.37380  -0.00747   0.00000  -0.01800  -0.01934   0.35446
   X16        3.40873   0.00657   0.00000   0.01437   0.01371   3.42244
   Y16        4.89969   0.01076   0.00000   0.01717   0.01707   4.91676
   Z16       -0.94407  -0.00998   0.00000  -0.00001  -0.00066  -0.94474
   X17        1.63400  -0.01053   0.00000  -0.03164  -0.03343   1.60057
   Y17        4.45818  -0.00022   0.00000   0.01123   0.01274   4.47092
   Z17        2.37834  -0.00894   0.00000  -0.01645  -0.01751   2.36083
   X18       -0.08961   0.00006   0.00000  -0.00456  -0.00563  -0.09524
   Y18        6.38415  -0.00489   0.00000  -0.00865  -0.00833   6.37582
   Z18        0.13384   0.00142   0.00000  -0.02384  -0.02644   0.10739
   X19        3.13224  -0.00298   0.00000   0.00021   0.00013   3.13237
   Y19        5.53086  -0.00359   0.00000  -0.01485  -0.01582   5.51503
   Z19       -2.66394   0.01028   0.00000  -0.00172  -0.00278  -2.66671
   X20        4.29508   0.01013   0.00000  -0.02319  -0.02365   4.27143
   Y20       -4.12286   0.00950   0.00000   0.03184   0.03189  -4.09097
   Z20       -0.75267   0.00369   0.00000   0.03842   0.04259  -0.71008
   X21       -2.83660  -0.01254   0.00000   0.00153   0.00076  -2.83584
   Y21       -2.78579   0.00201   0.00000   0.01175   0.01198  -2.77381
   Z21        0.10160  -0.01305   0.00000  -0.00349  -0.00244   0.09916
   X22       -3.16890   0.00544   0.00000   0.00815   0.00703  -3.16187
   Y22       -4.51336   0.01010   0.00000   0.02382   0.02462  -4.48873
   Z22        1.25236  -0.00472   0.00000  -0.00009   0.00171   1.25408
   X23       -3.76307   0.01045   0.00000   0.00578   0.00443  -3.75864
   Y23       -0.41612   0.00305   0.00000   0.00855   0.00948  -0.40664
   Z23        1.54914   0.01884   0.00000   0.00571   0.00525   1.55439
   X24       -5.84023   0.01185   0.00000   0.01195   0.01049  -5.82974
   Y24       -0.53496   0.00075   0.00000   0.00646   0.00749  -0.52747
   Z24        1.89692  -0.00888   0.00000  -0.02900  -0.03012   1.86680
   X25       -4.21562  -0.01321   0.00000   0.01659   0.01663  -4.19899
   Y25       -2.89457  -0.01256   0.00000  -0.01454  -0.01554  -2.91011
   Z25       -2.24861  -0.00872   0.00000  -0.01239  -0.01175  -2.26036
   X26       -5.70769   0.00767   0.00000   0.01007   0.01007  -5.69761
   Y26       -3.97489   0.00716   0.00000   0.00962   0.00867  -3.96622
   Z26       -2.07637   0.00153   0.00000   0.01033   0.01099  -2.06538
   X27       -2.70515   0.01868   0.00000  -0.01022  -0.01243  -2.71758
   Y27       -0.38333  -0.00277   0.00000   0.00990   0.01211  -0.37122
   Z27        4.01099   0.01505   0.00000   0.01180   0.01169   4.02268
   X28       -0.81650  -0.02777   0.00000  -0.03105  -0.03321  -0.84970
   Y28       -0.47614   0.00118   0.00000   0.01273   0.01493  -0.46121
   Z28        3.89982  -0.00766   0.00000  -0.01498  -0.01440   3.88542
   X29        1.52683   0.00235   0.00000  -0.00704  -0.00786   1.51897
   Y29       -4.11188  -0.03248   0.00000  -0.06109  -0.06059  -4.17247
   Z29        0.32534  -0.00874   0.00000   0.01928   0.02254   0.34788
   X30        0.19651  -0.00423   0.00000   0.01141   0.01160   0.20811
   Y30       -2.20645   0.00039   0.00000  -0.00950  -0.01061  -2.21705
   Z30       -2.78525  -0.00342   0.00000   0.03793   0.03975  -2.74550
         Item               Value     Threshold  Converged?
 Maximum Force            0.032478     0.000450     NO 
 RMS     Force            0.011391     0.000300     NO 
 Maximum Displacement     0.188859     0.001800     NO 
 RMS     Displacement     0.031588     0.001200     NO 
 Predicted change in Energy=-9.471649D-03
 GradGradGradGradGradGradGradGradGradGradGradGradGradGradGradGradGradGrad

                          Input orientation:                          
 ---------------------------------------------------------------------
 Center     Atomic      Atomic             Coordinates (Angstroms)
 Number     Number       Type             X           Y           Z
 ---------------------------------------------------------------------
      1          6           0       -0.012256   -1.433247   -0.384683
      2          8           0        0.462969    0.072540    0.302531
      3          1           0        3.015367    1.132830   -0.106354
      4          1           0        3.766574   -2.450797    0.064085
      5          8           0        3.253853   -1.881924   -0.532194
      6          1           0        3.268541   -0.504180   -0.001649
      7          8           0        2.908676    0.366203    0.501685
      8          1           0        1.685340    0.170511    0.427201
      9          6           0       -1.673317    1.117481    0.086829
     10          6           0       -0.170915    1.205267   -0.302577
     11          1           0       -1.975030    1.966641    0.733167
     12          1           0       -0.076232    1.120411   -1.407824
     13          8           0       -2.472310    1.266163   -1.079575
     14          1           0       -2.491178    0.408689   -1.577043
     15          6           0        0.553777    2.462300    0.187572
     16          8           0        1.811079    2.601837   -0.499933
     17          1           0        0.846985    2.365908    1.249298
     18          1           0       -0.050397    3.373938    0.056831
     19          1           0        1.657581    2.918430   -1.411163
     20          1           0        2.260345   -2.164849   -0.375760
     21          6           0       -1.500662   -1.467835    0.052473
     22          1           0       -1.673188   -2.375334    0.663630
     23          6           0       -1.988986   -0.215182    0.822548
     24          1           0       -3.084967   -0.279124    0.987867
     25          8           0       -2.222012   -1.539965   -1.196131
     26          1           0       -3.015048   -2.098833   -1.092952
     27          8           0       -1.438084   -0.196442    2.128710
     28          1           0       -0.449644   -0.244060    2.056077
     29          8           0        0.803802   -2.207978    0.184091
     30          1           0        0.110128   -1.173214   -1.452854
 ---------------------------------------------------------------------
                    Distance matrix (angstroms):
                    1          2          3          4          5
     1  C    0.000000
     2  O    1.722061   0.000000
     3  H    3.978532   2.793946   0.000000
     4  H    3.939080   4.163879   3.665480   0.000000
     5  O    3.300081   3.507952   3.054007   0.970591   0.000000
     6  H    3.431254   2.880341   1.659778   2.010391   1.476439
     7  O    3.543375   2.471312   0.984283   2.977074   2.498425
     8  H    2.472453   1.232612   1.726183   3.366696   2.755569
     9  C    3.080205   2.387917   4.692687   6.505808   5.801433
    10  C    2.644554   1.432143   3.193140   5.385635   4.616547
    11  H    4.081827   3.117195   5.128752   7.275125   6.614666
    12  H    2.751741   2.077037   3.354394   5.448595   4.568392
    13  O    3.717736   3.456996   5.574902   7.351695   6.557364
    14  H    3.310515   3.517497   5.745376   7.073148   6.272479
    15  C    3.977833   2.394246   2.813060   5.871612   5.165341
    16  O    4.429416   2.976355   1.939895   5.447126   4.710281
    17  H    4.223951   2.510652   2.839041   5.755812   5.197192
    18  H    4.827568   3.350095   3.801066   6.963968   6.236112
    19  H    4.772746   3.530288   2.595086   5.954225   5.134595
    20  H    2.387475   2.948991   3.393719   1.594978   1.044785
    21  C    1.551662   2.508213   5.213751   5.358183   4.808192
    22  H    2.178344   3.268891   5.906152   5.473221   5.094033
    23  C    2.616973   2.522951   5.265314   6.220908   5.665749
    24  H    3.557730   3.630592   6.356493   7.246595   6.712688
    25  O    2.356451   3.472072   5.980099   6.187157   5.526557
    26  H    3.156170   4.331147   6.912519   6.888614   6.297667
    27  O    3.143217   2.649770   5.157102   6.035996   5.651153
    28  H    2.750051   2.002004   4.310247   5.158896   4.806000
    29  O    1.260818   2.308887   4.017011   2.975127   2.573349
    30  H    1.106158   2.181233   3.946050   4.159677   3.351550
                    6          7          8          9         10
     6  H    0.000000
     7  O    1.067902   0.000000
     8  H    1.773597   1.241126   0.000000
     9  C    5.201882   4.661672   3.506164   0.000000
    10  C    3.852613   3.291618   2.246993   1.554527   0.000000
    11  H    5.842940   5.144470   4.088766   1.108989   2.215240
    12  H    3.975441   3.622807   2.715283   2.187390   1.112536
    13  O    6.103558   5.680258   4.555973   1.421617   2.429785
    14  H    6.040659   5.786306   4.638645   1.984881   2.764493
    15  C    4.025637   3.168255   2.567129   2.603581   1.531521
    16  O    3.466962   2.684403   2.605136   3.832573   2.432624
    17  H    3.958056   2.967881   2.489669   3.043325   2.188955
    18  H    5.104759   4.242697   3.662226   2.779634   2.201552
    19  H    4.036853   3.426089   3.306268   4.072134   2.739943
    20  H    1.978444   2.756169   2.535604   5.144062   4.156208
    21  C    4.865887   4.796639   3.602112   2.591303   3.006619
    22  H    5.325833   5.341884   4.221011   3.540121   4.001385
    23  C    5.329578   4.942474   3.715606   1.554645   2.566897
    24  H    6.434038   6.047857   4.824142   2.180626   3.515730
    25  O    5.713651   5.730620   4.563807   3.001512   3.541431
    26  H    6.573990   6.611336   5.436399   3.679239   4.430672
    27  O    5.175466   4.675265   3.575691   2.439469   3.079230
    28  H    4.257558   3.750582   2.717216   2.688700   2.782352
    29  O    3.002060   3.340325   2.548220   4.147802   3.582898
    30  H    3.539657   3.744582   2.796694   3.286120   2.656934
                   11         12         13         14         15
    11  H    0.000000
    12  H    2.984189   0.000000
    13  O    2.005989   2.422846   0.000000
    14  H    2.833848   2.523321   0.991511   0.000000
    15  C    2.634050   2.177812   3.491935   4.074670   0.000000
    16  O    4.032200   2.565313   4.524095   4.947674   1.439771
    17  H    2.896477   3.076343   4.201287   4.791894   1.105678
    18  H    2.478332   2.687799   3.405847   4.173686   1.101455
    19  H    4.324340   2.497797   4.460486   4.851651   1.995593
    20  H    6.019745   4.161452   5.887719   5.535626   4.963892
    21  C    3.533270   3.295525   3.114543   2.675404   4.436771
    22  H    4.353010   4.365939   4.115564   3.666130   5.346841
    23  C    2.183697   3.227537   2.458874   2.529714   3.746698
    24  H    2.517994   4.092740   2.652844   2.721110   4.625617
    25  O    4.009923   3.424439   2.819680   2.003696   5.063375
    26  H    4.576508   4.370276   3.408510   2.607000   5.931289
    27  O    2.629597   4.011958   3.674498   3.899718   3.847653
    28  H    2.994009   3.741634   4.025453   4.218235   3.438393
    29  O    5.044882   3.792997   4.939577   4.561297   4.676967
    30  H    4.357209   2.301624   3.571959   3.047070   4.013077
                   16         17         18         19         20
    16  O    0.000000
    17  H    2.011206   0.000000
    18  H    2.090746   1.800943   0.000000
    19  H    0.976797   2.835559   2.297756   0.000000
    20  H    4.789421   5.016589   6.017045   5.222558   0.000000
    21  C    5.275889   4.652034   5.054310   5.599647   3.848946
    22  H    6.185970   5.401265   6.004647   6.589592   4.073980
    23  C    4.911725   3.858351   4.150449   5.301550   4.826381
    24  H    5.872372   4.746029   4.839453   6.202536   5.829905
    25  O    5.822803   5.536670   5.516545   5.913947   4.599457
    26  H    6.763096   6.351011   6.329484   6.863501   5.324330
    27  O    5.029631   3.544086   4.354994   5.640591   4.881124
    28  H    4.443330   3.023917   4.152865   5.144267   4.116710
    29  O    4.961534   4.696485   5.648330   5.436344   1.561029
    30  H    4.248800   4.513311   4.793903   4.374689   2.601327
                   21         22         23         24         25
    21  C    0.000000
    22  H    1.107625   0.000000
    23  C    1.549392   2.188890   0.000000
    24  H    2.190437   2.548008   1.110222   0.000000
    25  O    1.443801   2.111341   2.425782   2.665382   0.000000
    26  H    2.000880   2.227694   2.875775   2.765147   0.975646
    27  O    2.435388   2.636153   1.417710   2.005139   3.670717
    28  H    2.572294   2.824589   1.972815   2.843805   3.923967
    29  O    2.423982   2.528526   3.489774   4.414641   3.392168
    30  H    2.224288   3.017418   3.240611   4.118877   2.374719
                   26         27         28         29         30
    26  H    0.000000
    27  O    4.060174   0.000000
    28  H    4.465184   0.992248   0.000000
    29  O    4.028196   3.585230   2.988718   0.000000
    30  H    3.279180   4.022269   3.672774   2.057063   0.000000
 Stoichiometry    C6H16O8
 Framework group  C1[X(C6H16O8)]
 Deg. of freedom    84
 Full point group                 C1      NOp   1
 Largest Abelian subgroup         C1      NOp   1
 Largest concise Abelian subgroup C1      NOp   1
                         Standard orientation:                         
 ---------------------------------------------------------------------
 Center     Atomic      Atomic             Coordinates (Angstroms)
 Number     Number       Type             X           Y           Z
 ---------------------------------------------------------------------
      1          6           0       -0.014188   -1.433243   -0.385856
      2          8           0        0.463886    0.071292    0.302124
      3          1           0        3.018418    1.126764   -0.105896
      4          1           0        3.762572   -2.458407    0.062996
      5          8           0        3.251056   -1.888255   -0.533095
      6          1           0        3.268367   -0.510787   -0.001911
      7          8           0        2.910134    0.360067    0.501773
      8          1           0        1.686428    0.166808    0.427019
      9          6           0       -1.670316    1.120519    0.086591
     10          6           0       -0.167687    1.205538   -0.302553
     11          1           0       -1.970459    1.969969    0.733278
     12          1           0       -0.073007    1.121008   -1.407825
     13          8           0       -2.468844    1.271306   -1.079861
     14          1           0       -2.489319    0.414100   -1.577729
     15          6           0        0.559396    2.460922    0.188283
     16          8           0        1.817070    2.598311   -0.498973
     17          1           0        0.852258    2.363465    1.250007
     18          1           0       -0.042970    3.373803    0.057875
     19          1           0        1.664328    2.915625   -1.410078
     20          1           0        2.256972   -2.169304   -0.376938
     21          6           0       -1.502724   -1.465115    0.051065
     22          1           0       -1.677119   -2.372557    0.661777
     23          6           0       -1.988705   -0.211863    0.821648
     24          1           0       -3.084834   -0.273733    0.986776
     25          8           0       -2.224029   -1.535254   -1.197678
     26          1           0       -3.018175   -2.092613   -1.094873
     27          8           0       -1.437960   -0.194807    2.127899
     28          1           0       -0.449605   -0.244328    2.055389
     29          8           0        0.800265   -2.209836    0.182679
     30          1           0        0.108863   -1.172957   -1.453889
 ---------------------------------------------------------------------
 Rotational constants (GHZ):      0.7446727      0.5442539      0.3914441
 Standard basis: 6-31G(d) (6D, 7F)
 There are   242 symmetry adapted cartesian basis functions of A   symmetry.
 There are   242 symmetry adapted basis functions of A   symmetry.
   242 basis functions,   456 primitive gaussians,   242 cartesian basis functions
    58 alpha electrons       58 beta electrons
       nuclear repulsion energy      1121.8881832177 Hartrees.
 NAtoms=   30 NActive=   30 NUniq=   30 SFac= 1.00D+00 NAtFMM=   60 NAOKFM=F Big=F
 Integral buffers will be    131072 words long.
 Raffenetti 2 integral format.
 Two-electron integral symmetry is turned on.
 One-electron integrals computed using PRISM.
 NBasis=   242 RedAO= T EigKep=  1.53D-03  NBF=   242
 NBsUse=   242 1.00D-06 EigRej= -1.00D+00 NBFU=   242
 Initial guess from the checkpoint file:  "/scratch/10446939.yak.local/Gau-30349.chk"
 B after Tr=    -0.000000    0.000000   -0.000000
         Rot=    0.999999    0.000183    0.000383    0.000950 Ang=   0.12 deg.
 ExpMin= 1.61D-01 ExpMax= 5.48D+03 ExpMxC= 8.25D+02 IAcc=1 IRadAn=         1 AccDes= 0.00D+00
 Harris functional with IExCor=  402 and IRadAn=       1 diagonalized for initial guess.
 HarFok:  IExCor=  402 AccDes= 0.00D+00 IRadAn=         1 IDoV= 1 UseB2=F ITyADJ=14
 ICtDFT=  3500011 ScaDFX=  1.000000  1.000000  1.000000  1.000000
 FoFCou: FMM=F IPFlag=           0 FMFlag=      100000 FMFlg1=           0
         NFxFlg=           0 DoJE=T BraDBF=F KetDBF=T FulRan=T
         wScrn=  0.000000 ICntrl=     500 IOpCl=  0 I1Cent=   200000004 NGrid=           0
         NMat0=    1 NMatS0=      1 NMatT0=    0 NMatD0=    1 NMtDS0=    0 NMtDT0=    0
 Petite list used in FoFCou.
 Requested convergence on RMS density matrix=1.00D-08 within 128 cycles.
 Requested convergence on MAX density matrix=1.00D-06.
 Requested convergence on             energy=1.00D-06.
 No special actions if energy rises.
 Integral accuracy reduced to 1.0D-05 until final iterations.
 Initial convergence to 1.0D-05 achieved.  Increase integral accuracy.
 SCF Done:  E(RB3LYP) =  -839.953044836     A.U. after   12 cycles
            NFock= 12  Conv=0.63D-08     -V/T= 2.0087
 Calling FoFJK, ICntrl=      2127 FMM=F ISym2X=0 I1Cent= 0 IOpClX= 0 NMat=1 NMatS=1 NMatT=0.
 ***** Axes restored to original set *****
 -------------------------------------------------------------------
 Center     Atomic                   Forces (Hartrees/Bohr)
 Number     Number              X              Y              Z
 -------------------------------------------------------------------
      1        6           0.007952107   -0.002031434    0.020682729
      2        8           0.016261765    0.019761940   -0.004209367
      3        1          -0.003532162   -0.000055892    0.005955052
      4        1          -0.000528103   -0.000054129   -0.000504745
      5        8          -0.003745610   -0.008093611   -0.003958699
      6        1          -0.009159095    0.006812722    0.010655487
      7        8           0.003289958   -0.009571723   -0.013273773
      8        1          -0.005166817    0.001666676   -0.001477206
      9        6          -0.011533923   -0.000529379   -0.012646428
     10        6           0.000690214   -0.003279482    0.014061670
     11        1           0.004830798   -0.008762910   -0.000813289
     12        1          -0.003015146    0.003783815    0.007036405
     13        8          -0.007748445   -0.003567640   -0.011943082
     14        1           0.003291076    0.009423812    0.013158744
     15        6           0.006658877    0.001843867   -0.005326516
     16        8           0.004775374    0.007943388   -0.006639736
     17        1          -0.007978811    0.000203110   -0.006364754
     18        1          -0.000220271   -0.003390015    0.000505778
     19        1          -0.002234537   -0.002564330    0.006890278
     20        1           0.007621217    0.006314830    0.003006894
     21        6          -0.008192551    0.001657463   -0.009056819
     22        1           0.003958712    0.007376453   -0.003400271
     23        6           0.007273367    0.002171882    0.012714465
     24        1           0.008417121    0.000545733   -0.006653951
     25        8          -0.008680899   -0.008653939   -0.006261907
     26        1           0.005161155    0.005241123    0.001388288
     27        8           0.012194912   -0.001967102    0.010467061
     28        1          -0.018839149    0.000954106   -0.005740741
     29        8           0.000981330   -0.023641594   -0.006684145
     30        1          -0.002782465    0.000462262   -0.001567418
 -------------------------------------------------------------------
 Cartesian Forces:  Max     0.023641594 RMS     0.007886380

 GradGradGradGradGradGradGradGradGradGradGradGradGradGradGradGradGradGrad
 Berny optimization.
 Search for a saddle point.
 Step number   2 out of a maximum of  180
 All quantities printed in internal units (Hartrees-Bohrs-Radians)
 Swapping is turned off.
 Update second derivatives using D2CorN and points    1    2
 ITU=  0  0
     Eigenvalues ---   -0.06286  -0.00003   0.00091   0.00114   0.00246
     Eigenvalues ---    0.00408   0.00545   0.00588   0.00692   0.00822
     Eigenvalues ---    0.01007   0.01121   0.01208   0.01480   0.01560
     Eigenvalues ---    0.01725   0.01776   0.02113   0.02218   0.02416
     Eigenvalues ---    0.03130   0.03272   0.03483   0.03721   0.04286
     Eigenvalues ---    0.04543   0.04714   0.04873   0.05226   0.05403
     Eigenvalues ---    0.05651   0.06008   0.06105   0.06364   0.06848
     Eigenvalues ---    0.07256   0.07389   0.07696   0.08345   0.09606
     Eigenvalues ---    0.10251   0.11155   0.11920   0.12793   0.14051
     Eigenvalues ---    0.14578   0.15347   0.15953   0.16544   0.16862
     Eigenvalues ---    0.17450   0.18615   0.19865   0.20812   0.23414
     Eigenvalues ---    0.25078   0.26486   0.29854   0.32094   0.34803
     Eigenvalues ---    0.40517   0.42257   0.48587   0.50457   0.52736
     Eigenvalues ---    0.56504   0.58911   0.59880   0.61011   0.63093
     Eigenvalues ---    0.69823   0.73068   0.74326   0.77530   0.82952
     Eigenvalues ---    0.84296   0.86074   0.89251   0.90078   0.92246
     Eigenvalues ---    0.99050   1.01421   1.07628   1.32652
 Eigenvectors required to have negative eigenvalues:
                          X8        Y6        Y1        X7        Z2
   1                    0.74327  -0.28831   0.28380  -0.25164  -0.15109
                          Y2        X20       Y5        X29       X3
   1                   -0.14566  -0.14515   0.12712   0.12153  -0.11196
 RFO step:  Lambda0=1.616898399D-03 Lambda=-1.95387782D-02.
 Linear search not attempted -- option 19 set.
 Maximum step size (   0.300) exceeded in Quadratic search.
    -- Step size scaled by   0.705
 B after Tr=     0.001643   -0.003505   -0.002160
         Rot=    1.000000   -0.000390   -0.000143    0.000193 Ang=  -0.05 deg.
 Variable       Old X    -DE/DX   Delta X   Delta X   Delta X     New X
                                 (Linear)    (Quad)   (Total)
    X1       -0.02316   0.00795   0.00000   0.03017   0.03057   0.00741
    Y1       -2.70844  -0.00203   0.00000   0.00285  -0.00013  -2.70857
    Z1       -0.72694   0.02068   0.00000   0.04323   0.03896  -0.68799
    X2        0.87488   0.01626   0.00000   0.05110   0.05297   0.92786
    Y2        0.13708   0.01976   0.00000   0.02995   0.02563   0.16271
    Z2        0.57170  -0.00421   0.00000   0.01455   0.01226   0.58396
    X3        5.69822  -0.00353   0.00000  -0.04328  -0.04085   5.65736
    Y3        2.14074  -0.00006   0.00000   0.01203   0.00648   2.14722
    Z3       -0.20098   0.00596   0.00000   0.02862   0.02651  -0.17447
    X4        7.11779  -0.00053   0.00000  -0.00642  -0.00653   7.11126
    Y4       -4.63133  -0.00005   0.00000  -0.00559  -0.01193  -4.64327
    Z4        0.12110  -0.00050   0.00000   0.00210  -0.00571   0.11539
    X5        6.14889  -0.00375   0.00000  -0.00438  -0.00441   6.14448
    Y5       -3.55632  -0.00809   0.00000  -0.01965  -0.02474  -3.58106
    Z5       -1.00570  -0.00396   0.00000  -0.00516  -0.01187  -1.01758
    X6        6.17665  -0.00916   0.00000  -0.06100  -0.05973   6.11691
    Y6       -0.95276   0.00681   0.00000  -0.03719  -0.04306  -0.99582
    Z6       -0.00312   0.01066   0.00000   0.00498   0.00029  -0.00282
    X7        5.49660   0.00329   0.00000  -0.03841  -0.03625   5.46035
    Y7        0.69202  -0.00957   0.00000  -0.03081  -0.03714   0.65489
    Z7        0.94805  -0.01327   0.00000  -0.02630  -0.02951   0.91854
    X8        3.18483  -0.00517   0.00000   0.12471   0.12674   3.31157
    Y8        0.32222   0.00167   0.00000   0.05109   0.04566   0.36788
    Z8        0.80729  -0.00148   0.00000   0.02450   0.02168   0.82897
    X9       -3.16211  -0.01153   0.00000  -0.01463  -0.01213  -3.17424
    Y9        2.11173  -0.00053   0.00000  -0.00133  -0.00373   2.10800
    Z9        0.16408  -0.01265   0.00000  -0.01292  -0.01253   0.15156
   X10       -0.32298   0.00069   0.00000   0.00449   0.00685  -0.31613
   Y10        2.27762  -0.00328   0.00000  -0.00764  -0.01060   2.26702
   Z10       -0.57179   0.01406   0.00000   0.02980   0.02950  -0.54229
   X11       -3.73227   0.00483   0.00000   0.01626   0.01973  -3.71254
   Y11        3.71641  -0.00876   0.00000  -0.03522  -0.03839   3.67802
   Z11        1.38549  -0.00081   0.00000   0.01746   0.01923   1.40472
   X12       -0.14406  -0.00302   0.00000  -0.02723  -0.02552  -0.16958
[...]
    Y5       -3.57951  -0.00341   0.00000  -0.00527  -0.00335  -3.58286
    Z5       -0.99177   0.00259   0.00000   0.06702   0.05973  -0.93203
    X6        6.03192   0.00020   0.00000   0.00945   0.01038   6.04229
    Y6       -1.23542  -0.00083   0.00000   0.01027   0.01104  -1.22438
    Z6       -0.06914  -0.00002   0.00000   0.03751   0.03324  -0.03590
    X7        5.61566  -0.00196   0.00000  -0.00337  -0.00207   5.61359
    Y7        0.60933  -0.00016   0.00000   0.02126   0.02079   0.63013
    Z7        0.89359   0.00010   0.00000   0.01013   0.00848   0.90207
    X8        3.56378   0.00185   0.00000   0.00186   0.00325   3.56703
    Y8        0.47322   0.00091   0.00000   0.01410   0.01332   0.48654
    Z8        1.07647  -0.00020   0.00000   0.00452   0.00367   1.08014
    X9       -3.18517  -0.00050   0.00000   0.00745   0.00850  -3.17667
    Y9        2.07820   0.00082   0.00000  -0.00267  -0.00298   2.07522
    Z9        0.45625   0.00003   0.00000   0.03689   0.04136   0.49761
   X10       -0.37872   0.00019   0.00000  -0.00135  -0.00074  -0.37945
   Y10        2.19077   0.00037   0.00000  -0.00992  -0.00898   2.18179
   Z10       -0.39169  -0.00025   0.00000   0.01144   0.01469  -0.37701
   X11       -3.56154   0.00033   0.00000   0.02947   0.03118  -3.53036
   Y11        3.47257  -0.00101   0.00000  -0.02031  -0.02261   3.44997
   Z11        1.94756  -0.00108   0.00000   0.05878   0.06520   2.01276
   X12       -0.35730   0.00002   0.00000  -0.02225  -0.02260  -0.37991
   Y12        1.80206  -0.00011   0.00000  -0.03107  -0.02747   1.77459
   Z12       -2.44520   0.00026   0.00000   0.01294   0.01566  -2.42953
   X13       -4.82486   0.00112   0.00000  -0.00695  -0.00691  -4.83177
   Y13        2.69478  -0.00193   0.00000   0.03562   0.03785   2.73263
   Z13       -1.58748   0.00048   0.00000   0.05909   0.06521  -1.52227
   X14       -4.75248  -0.00003   0.00000  -0.01779  -0.01824  -4.77072
   Y14        1.22607   0.00136   0.00000   0.05734   0.06106   1.28713
   Z14       -2.70646   0.00072   0.00000   0.03256   0.03677  -2.66969
   X15        0.88595  -0.00015   0.00000  -0.00046   0.00022   0.88617
   Y15        4.74983  -0.00066   0.00000   0.00063   0.00117   4.75100
   Z15        0.00675  -0.00020   0.00000  -0.03559  -0.02962  -0.02287
   X16        3.33349   0.00056   0.00000  -0.01308  -0.01300   3.32049
   Y16        4.89368   0.00003   0.00000  -0.00861  -0.00640   4.88728
   Z16       -1.17709   0.00244   0.00000  -0.06261  -0.05764  -1.23473
   X17        1.21214   0.00012   0.00000   0.02205   0.02368   1.23581
   Y17        5.08091   0.00006   0.00000   0.03468   0.03263   5.11353
   Z17        2.01985   0.00052   0.00000  -0.04120  -0.03492   1.98493
   X18       -0.34953  -0.00048   0.00000  -0.01276  -0.01250  -0.36203
   Y18        6.25063   0.00037   0.00000  -0.01173  -0.01030   6.24032
   Z18       -0.71254  -0.00005   0.00000  -0.04957  -0.04106  -0.75360
   X19        3.06286  -0.00039   0.00000  -0.03925  -0.04005   3.02281
   Y19        5.09308  -0.00006   0.00000  -0.08877  -0.08420   5.00888
   Z19       -2.97376  -0.00267   0.00000  -0.08840  -0.08313  -3.05688
   X20        4.04190   0.00009   0.00000   0.01990   0.02081   4.06271
   Y20       -4.13422   0.00008   0.00000   0.01274   0.01381  -4.12042
   Z20       -0.33984   0.00000   0.00000   0.01126   0.00418  -0.33565
   X21       -2.69300  -0.00003   0.00000   0.00008   0.00104  -2.69196
   Y21       -2.71409  -0.00091   0.00000   0.00471   0.00519  -2.70891
   Z21       -0.07272  -0.00042   0.00000  -0.02576  -0.02773  -0.10045
   X22       -3.10803   0.00004   0.00000  -0.00619  -0.00473  -3.11275
   Y22       -4.53710   0.00094   0.00000  -0.00826  -0.00892  -4.54602
   Z22        0.82457  -0.00076   0.00000  -0.05624  -0.06040   0.76418
   X23       -3.74754  -0.00033   0.00000   0.00474   0.00644  -3.74111
   Y23       -0.56369   0.00008   0.00000  -0.01670  -0.01848  -0.58217
   Z23        1.59841  -0.00007   0.00000   0.00584   0.00713   1.60553
   X24       -5.80994  -0.00005   0.00000   0.00471   0.00645  -5.80349
   Y24       -0.75339   0.00006   0.00000  -0.01616  -0.01815  -0.77154
   Z24        1.68880   0.00003   0.00000   0.00498   0.00702   1.69582
   X25       -3.80036  -0.00355   0.00000  -0.00185  -0.00210  -3.80246
   Y25       -2.58278  -0.00154   0.00000   0.04989   0.05356  -2.52922
   Z25       -2.57657   0.00195   0.00000  -0.01976  -0.02097  -2.59754
   X26       -5.47746   0.00437   0.00000   0.01458   0.01439  -5.46306
   Y26       -3.34060   0.00180   0.00000   0.02954   0.03304  -3.30756
   Z26       -2.48589   0.00007   0.00000  -0.03783  -0.03925  -2.52514
   X27       -2.86277  -0.00021   0.00000   0.00657   0.00949  -2.85328
   Y27       -0.78930   0.00029   0.00000  -0.05269  -0.05769  -0.84700
   Z27        4.11464  -0.00096   0.00000   0.00204   0.00256   4.11719
   X28       -1.03312   0.00015   0.00000   0.00619   0.00903  -1.02409
   Y28       -0.62276  -0.00019   0.00000  -0.04618  -0.05093  -0.67369
   Z28        3.97905   0.00016   0.00000   0.00272   0.00259   3.98164
   X29        1.55582   0.00016   0.00000  -0.00659  -0.00525   1.55058
   Y29       -4.33307  -0.00001   0.00000  -0.01156  -0.01173  -4.34480
   Z29        0.58191   0.00003   0.00000  -0.04004  -0.04619   0.53572
   X30        0.66109  -0.00033   0.00000  -0.00055  -0.00075   0.66034
   Y30       -2.07633  -0.00020   0.00000   0.02974   0.03341  -2.04291
   Z30       -2.44063   0.00056   0.00000  -0.01365  -0.01639  -2.45702
         Item               Value     Threshold  Converged?
 Maximum Force            0.004682     0.000450     NO 
 RMS     Force            0.001354     0.000300     NO 
 Maximum Displacement     0.111256     0.001800     NO 
 RMS     Displacement     0.031473     0.001200     NO 
 Predicted change in Energy=-3.772442D-04
 GradGradGradGradGradGradGradGradGradGradGradGradGradGradGradGradGradGrad

                          Input orientation:                          
 ---------------------------------------------------------------------
 Center     Atomic      Atomic             Coordinates (Angstroms)
 Number     Number       Type             X           Y           Z
 ---------------------------------------------------------------------
      1          6           0        0.110092   -1.389941   -0.263190
      2          8           0        0.518420    0.132867    0.475356
      3          1           0        3.038157    1.103211   -0.127956
      4          1           0        3.746100   -2.471171   -0.009303
      5          8           0        3.144374   -1.895966   -0.493211
      6          1           0        3.197444   -0.647913   -0.018996
      7          8           0        2.970582    0.333449    0.477352
      8          1           0        1.887591    0.257466    0.571585
      9          6           0       -1.681023    1.098157    0.263325
     10          6           0       -0.200796    1.154553   -0.199503
     11          1           0       -1.868184    1.825644    1.065106
     12          1           0       -0.201038    0.939073   -1.285654
     13          8           0       -2.556864    1.446046   -0.805551
     14          1           0       -2.524558    0.681121   -1.412738
     15          6           0        0.468941    2.514120   -0.012103
     16          8           0        1.757128    2.586236   -0.653389
     17          1           0        0.653965    2.705965    1.050380
     18          1           0       -0.191578    3.302238   -0.398788
     19          1           0        1.599601    2.650586   -1.617633
     20          1           0        2.149894   -2.180430   -0.177620
     21          6           0       -1.424522   -1.433492   -0.053156
     22          1           0       -1.647198   -2.405651    0.404384
     23          6           0       -1.979709   -0.308070    0.849612
     24          1           0       -3.071073   -0.408281    0.897389
     25          8           0       -2.012176   -1.338405   -1.374561
     26          1           0       -2.890929   -1.750284   -1.336244
     27          8           0       -1.509890   -0.448211    2.178725
     28          1           0       -0.541924   -0.356502    2.106994
     29          8           0        0.820529   -2.299169    0.283491
     30          1           0        0.349435   -1.081063   -1.300199
 ---------------------------------------------------------------------
                    Distance matrix (angstroms):
                    1          2          3          4          5
     1  C    0.000000
     2  O    1.741013   0.000000
     3  H    3.848072   2.766699   0.000000
     4  H    3.801851   4.175383   3.645746   0.000000
     5  O    3.084775   3.456865   3.023202   0.962862   0.000000
     6  H    3.184647   2.833932   1.761726   1.904045   1.336163
     7  O    3.420655   2.460353   0.981579   2.950280   2.437722
     8  H    2.563260   1.378192   1.590108   3.352155   2.711192
     9  C    3.110617   2.411284   4.735376   6.501391   5.729011
    10  C    2.564207   1.420052   3.240150   5.362839   4.536749
    11  H    4.002241   2.984824   5.100734   7.151024   6.434630
    12  H    2.562526   2.066094   3.443775   5.370171   4.456141
    13  O    3.930602   3.580856   5.646320   7.463642   6.615944
    14  H    3.542900   3.622872   5.724738   7.157355   6.294736
    15  C    3.928550   2.431137   2.933420   5.965979   5.180565
    16  O    4.321454   2.971108   2.028911   5.472498   4.694704
    17  H    4.335633   2.640049   3.105104   6.122660   5.455509
    18  H    4.703821   3.363500   3.916664   6.999232   6.177282
    19  H    4.514312   3.447965   2.585140   5.781572   4.931712
    20  H    2.189289   2.905070   3.402025   1.631176   1.081438
    21  C    1.549533   2.551045   5.133805   5.273901   4.613278
    22  H    2.136678   3.337517   5.877759   5.409537   4.901491
    23  C    2.603083   2.564204   5.303426   6.180747   5.529992
    24  H    3.525679   3.654506   6.376412   7.179934   6.540547
    25  O    2.396211   3.462767   5.746423   6.025349   5.260956
    26  H    3.207401   4.295558   6.690026   6.806659   6.095638
    27  O    3.078010   2.711671   5.330330   6.041958   5.558543
    28  H    2.666625   2.006503   4.465730   5.228545   4.766530
    29  O    1.276823   2.458228   4.082077   2.945212   2.483161
    30  H    1.108187   2.157493   3.657106   3.890520   3.021089
                    6          7          8          9         10
     6  H    0.000000
     7  O    1.122898   0.000000
     8  H    1.698297   1.089736   0.000000
     9  C    5.189210   4.718900   3.679237   0.000000
    10  C    3.850909   3.345144   2.400147   1.551921   0.000000
    11  H    5.740587   5.097623   4.099828   1.098690   2.197676
    12  H    3.958867   3.678878   2.876855   2.148255   1.107319
    13  O    6.173766   5.782419   4.802333   1.424998   2.450166
    14  H    6.037396   5.821502   4.856344   1.922149   2.663821
    15  C    4.176509   3.354564   2.728689   2.589046   1.527118
    16  O    3.596761   2.797517   2.634531   3.856893   2.467630
    17  H    4.342966   3.365102   2.783204   2.942222   2.167881
    18  H    5.218563   4.424996   3.812506   2.741316   2.156931
    19  H    3.998605   3.411404   3.256170   4.087852   2.736904
    20  H    1.863097   2.724354   2.563874   5.061570   4.080237
    21  C    4.688376   4.766598   3.770906   2.564215   2.866513
    22  H    5.171021   5.369534   4.428869   3.506810   3.889963
    23  C    5.260503   5.005548   3.918308   1.552553   2.530699
    24  H    6.339676   6.101491   5.013753   2.145607   3.447334
    25  O    5.427198   5.572483   4.641387   2.954517   3.297984
    26  H    6.326030   6.479845   5.523145   3.483692   4.119111
    27  O    5.198928   4.855954   3.824102   2.467650   3.152546
    28  H    4.311337   3.933124   2.938874   2.610113   2.778414
    29  O    2.909960   3.404554   2.785319   4.219004   3.633812
    30  H    3.152816   3.468565   2.767879   3.363980   2.551913
                   11         12         13         14         15
    11  H    0.000000
    12  H    3.015204   0.000000
    13  O    2.029220   2.457120   0.000000
    14  H    2.807218   2.341247   0.977154   0.000000
    15  C    2.663932   2.133442   3.305426   3.779246   0.000000
    16  O    4.083455   2.635776   4.464718   4.747516   1.440789
    17  H    2.671407   3.051228   3.916797   4.502216   1.095404
    18  H    2.671015   2.524117   3.034054   3.652553   1.098608
    19  H    4.461295   2.506350   4.403022   4.574873   1.968436
    20  H    5.808437   4.060286   5.974880   5.618229   4.989168
    21  C    3.474091   2.940243   3.184342   2.744108   4.378416
    22  H    4.288269   4.016813   4.138479   3.687799   5.371746
    23  C    2.147466   3.046046   2.479837   2.528554   3.834475
    24  H    2.542733   3.849434   2.569619   2.611926   4.679669
    25  O    3.997989   2.911191   2.893722   2.083862   4.780605
    26  H    4.427161   3.804040   3.257263   2.460043   5.588132
    27  O    2.557134   3.954690   3.686497   3.899173   4.182213
    28  H    2.757944   3.647571   3.973924   4.170852   3.708489
    29  O    4.985397   3.740592   5.159402   4.790505   4.835157
    30  H    4.354474   2.093844   3.882980   3.373099   3.820839
                   16         17         18         19         20
    16  O    0.000000
    17  H    2.033257   0.000000
    18  H    2.091634   1.780610   0.000000
    19  H    0.979143   2.831182   2.262423   0.000000
    20  H    4.806426   5.255725   5.965824   5.071013   0.000000
    21  C    5.161529   4.761618   4.905787   5.317199   3.653745
    22  H    6.134106   5.642808   5.945075   6.340016   3.848034
    23  C    4.959836   4.007612   4.217847   5.258556   4.649146
    24  H    5.889276   4.857761   4.872321   6.123496   5.617353
    25  O    5.489130   5.417156   5.079594   5.386657   4.411859
    26  H    6.393444   6.174173   5.804593   6.293783   5.190119
    27  O    5.282248   3.988014   4.737867   5.803776   4.684759
    28  H    4.643820   3.453301   4.448377   5.244193   3.973922
    29  O    5.061833   5.066284   5.732855   5.359226   1.412067
    30  H    3.981085   4.467610   4.507611   3.948276   2.389653
                   21         22         23         24         25
    21  C    0.000000
    22  H    1.097280   0.000000
    23  C    1.545897   2.169940   0.000000
    24  H    2.160029   2.501992   1.096996   0.000000
    25  O    1.449307   2.106388   2.451447   2.673603   0.000000
    26  H    1.974088   2.237445   2.772773   2.612000   0.971246
    27  O    2.441180   2.645508   1.416655   2.020077   3.697375
    28  H    2.570045   2.884358   1.910649   2.804001   3.904741
    29  O    2.429606   2.472981   3.482285   4.370000   3.420004
    30  H    2.196872   2.940525   3.262533   4.120911   2.376755
                   26         27         28         29         30
    26  H    0.000000
    27  O    3.994706   0.000000
    28  H    4.395036   0.974943   0.000000
    29  O    4.086532   3.528288   2.992557   0.000000
    30  H    3.308945   3.995060   3.595618   2.052751   0.000000
 Stoichiometry    C6H16O8
 Framework group  C1[X(C6H16O8)]
 Deg. of freedom    84
 Full point group                 C1      NOp   1
 Largest Abelian subgroup         C1      NOp   1
 Largest concise Abelian subgroup C1      NOp   1
                         Standard orientation:                         
 ---------------------------------------------------------------------
 Center     Atomic      Atomic             Coordinates (Angstroms)
 Number     Number       Type             X           Y           Z
 ---------------------------------------------------------------------
      1          6           0        0.249509   -1.353347   -0.365618
      2          8           0        0.489717    0.153649    0.472469
      3          1           0        2.910928    1.402950   -0.008785
      4          1           0        3.969851   -2.084768   -0.086079
      5          8           0        3.322955   -1.542801   -0.549653
      6          1           0        3.242174   -0.327336   -0.000608
      7          8           0        2.909120    0.594304    0.547620
      8          1           0        1.837540    0.406323    0.610097
      9          6           0       -1.790713    0.908841    0.263623
     10          6           0       -0.315032    1.139306   -0.157935
     11          1           0       -2.064697    1.563342    1.102480
     12          1           0       -0.273227    0.992471   -1.254679
     13          8           0       -2.676552    1.234226   -0.804101
     14          1           0       -2.556561    0.515247   -1.454870
     15          6           0        0.211950    2.544022    0.126939
     16          8           0        1.498388    2.782226   -0.476556
     17          1           0        0.356777    2.687050    1.203265
     18          1           0       -0.516532    3.285648   -0.228372
     19          1           0        1.353479    2.890283   -1.438870
     20          1           0        2.356061   -1.942826   -0.276517
     21          6           0       -1.276783   -1.560770   -0.196915
     22          1           0       -1.409889   -2.576575    0.196080
     23          6           0       -1.958529   -0.553538    0.757288
     24          1           0       -3.035141   -0.763533    0.771751
     25          8           0       -1.845912   -1.442457   -1.524539
     26          1           0       -2.679716   -1.940475   -1.532815
     27          8           0       -1.502273   -0.728685    2.086974
     28          1           0       -0.547119   -0.537808    2.045019
     29          8           0        1.036717   -2.220244    0.143370
     30          1           0        0.476374   -0.958824   -1.376045
 ---------------------------------------------------------------------
 Rotational constants (GHZ):      0.7359752      0.5495587      0.3945767
 Standard basis: 6-31G(d) (6D, 7F)
 There are   242 symmetry adapted cartesian basis functions of A   symmetry.
 There are   242 symmetry adapted basis functions of A   symmetry.
   242 basis functions,   456 primitive gaussians,   242 cartesian basis functions
    58 alpha electrons       58 beta electrons
       nuclear repulsion energy      1122.1175979647 Hartrees.
 NAtoms=   30 NActive=   30 NUniq=   30 SFac= 1.00D+00 NAtFMM=   60 NAOKFM=F Big=F
 Integral buffers will be    131072 words long.
 Raffenetti 2 integral format.
 Two-electron integral symmetry is turned on.
 One-electron integrals computed using PRISM.
 NBasis=   242 RedAO= T EigKep=  1.55D-03  NBF=   242
 NBsUse=   242 1.00D-06 EigRej= -1.00D+00 NBFU=   242
 Initial guess from the checkpoint file:  "/scratch/10446939.yak.local/Gau-30349.chk"
 B after Tr=     0.000000    0.000000    0.000000
         Rot=    0.999988   -0.004145   -0.000637   -0.002391 Ang=  -0.55 deg.
 ExpMin= 1.61D-01 ExpMax= 5.48D+03 ExpMxC= 8.25D+02 IAcc=1 IRadAn=         1 AccDes= 0.00D+00
 Harris functional with IExCor=  402 and IRadAn=       1 diagonalized for initial guess.
 HarFok:  IExCor=  402 AccDes= 0.00D+00 IRadAn=         1 IDoV= 1 UseB2=F ITyADJ=14
 ICtDFT=  3500011 ScaDFX=  1.000000  1.000000  1.000000  1.000000
 FoFCou: FMM=F IPFlag=           0 FMFlag=      100000 FMFlg1=           0
         NFxFlg=           0 DoJE=T BraDBF=F KetDBF=T FulRan=T
         wScrn=  0.000000 ICntrl=     500 IOpCl=  0 I1Cent=   200000004 NGrid=           0
         NMat0=    1 NMatS0=      1 NMatT0=    0 NMatD0=    1 NMtDS0=    0 NMtDT0=    0
 Petite list used in FoFCou.
 Requested convergence on RMS density matrix=1.00D-08 within 128 cycles.
 Requested convergence on MAX density matrix=1.00D-06.
 Requested convergence on             energy=1.00D-06.
 No special actions if energy rises.
 Integral accuracy reduced to 1.0D-05 until final iterations.
