 Entering Gaussian System, Link 0=g09
 Initial command:
 /global/software/gaussian/g09.d01/l1.exe "/home/iawad/Gau-7778.inp" -scrdir="/home/iawad/"
 Entering Link 1 = /global/software/gaussian/g09.d01/l1.exe PID=      7779.
  
 Copyright (c) 1988,1990,1992,1993,1995,1998,2003,2009,2013,
            Gaussian, Inc.  All Rights Reserved.
  
 This is part of the Gaussian(R) 09 program.  It is based on
 the Gaussian(R) 03 system (copyright 2003, Gaussian, Inc.),
 the Gaussian(R) 98 system (copyright 1998, Gaussian, Inc.),
 the Gaussian(R) 94 system (copyright 1995, Gaussian, Inc.),
 the Gaussian 92(TM) system (copyright 1992, Gaussian, Inc.),
 the Gaussian 90(TM) system (copyright 1990, Gaussian, Inc.),
 the Gaussian 88(TM) system (copyright 1988, Gaussian, Inc.),
 the Gaussian 86(TM) system (copyright 1986, Carnegie Mellon
 University), and the Gaussian 82(TM) system (copyright 1983,
 Carnegie Mellon University). Gaussian is a federally registered
 trademark of Gaussian, Inc.
  
 This software contains proprietary and confidential information,
 including trade secrets, belonging to Gaussian, Inc.
  
 This software is provided under written license and may be
 used, copied, transmitted, or stored only in accord with that
 written license.
  
 The following legend is applicable only to US Government
 contracts under FAR:
  
                    RESTRICTED RIGHTS LEGEND
  
 Use, reproduction and disclosure by the US Government is
 subject to restrictions as set forth in subparagraphs (a)
 and (c) of the Commercial Computer Software - Restricted
 Rights clause in FAR 52.227-19.
  
 Gaussian, Inc.
 340 Quinnipiac St., Bldg. 40, Wallingford CT 06492
  
  
 ---------------------------------------------------------------
 Warning -- This program may not be used in any manner that
 competes with the business of Gaussian, Inc. or will provide
 assistance to any competitor of Gaussian, Inc.  The licensee
 of this program is prohibited from giving any competitor of
 Gaussian, Inc. access to this program.  By using this program,
 the user acknowledges that Gaussian, Inc. is engaged in the
 business of creating and licensing software in the field of
 computational chemistry and represents and warrants to the
 licensee that it is not a competitor of Gaussian, Inc. and that
 it will not use this program in any manner prohibited above.
 ---------------------------------------------------------------
  

 Cite this work as:
 Gaussian 09, Revision D.01,
 M. J. Frisch, G. W. Trucks, H. B. Schlegel, G. E. Scuseria, 
 M. A. Robb, J. R. Cheeseman, G. Scalmani, V. Barone, B. Mennucci, 
 G. A. Petersson, H. Nakatsuji, M. Caricato, X. Li, H. P. Hratchian, 
 A. F. Izmaylov, J. Bloino, G. Zheng, J. L. Sonnenberg, M. Hada, 
 M. Ehara, K. Toyota, R. Fukuda, J. Hasegawa, M. Ishida, T. Nakajima, 
 Y. Honda, O. Kitao, H. Nakai, T. Vreven, J. A. Montgomery, Jr., 
 J. E. Peralta, F. Ogliaro, M. Bearpark, J. J. Heyd, E. Brothers, 
 K. N. Kudin, V. N. Staroverov, T. Keith, R. Kobayashi, J. Normand, 
 K. Raghavachari, A. Rendell, J. C. Burant, S. S. Iyengar, J. Tomasi, 
 M. Cossi, N. Rega, J. M. Millam, M. Klene, J. E. Knox, J. B. Cross, 
 V. Bakken, C. Adamo, J. Jaramillo, R. Gomperts, R. E. Stratmann, 
 O. Yazyev, A. J. Austin, R. Cammi, C. Pomelli, J. W. Ochterski, 
 R. L. Martin, K. Morokuma, V. G. Zakrzewski, G. A. Voth, 
 P. Salvador, J. J. Dannenberg, S. Dapprich, A. D. Daniels, 
 O. Farkas, J. B. Foresman, J. V. Ortiz, J. Cioslowski, 
 and D. J. Fox, Gaussian, Inc., Wallingford CT, 2013.
 
 ******************************************
 Gaussian 09:  ES64L-G09RevD.01 24-Apr-2013
                22-Jan-2017 
 ******************************************
 %nproc=20
 Will use up to   20 processors via shared memory.
 ------------------------------------------------------
 # opt=(modredundant,MaxCycle=1000) freq B3LYP/6-31G(d)
 ------------------------------------------------------
 1/6=1000,14=-1,18=120,19=15,26=3,38=1/1,3;
 2/9=110,12=2,17=6,18=5,40=1/2;
 3/5=1,6=6,7=1,11=2,16=1,25=1,30=1,71=1,74=-5/1,2,3;
 4//1;
 5/5=2,38=5/2;
 6/7=2,8=2,9=2,10=2,28=1/1;
 7//1,2,3,16;
 1/6=1000,14=-1,18=20,19=15,26=3/3(2);
 2/9=110/2;
 99//99;
 2/9=110/2;
 3/5=1,6=6,7=1,11=2,16=1,25=1,30=1,71=1,74=-5/1,2,3;
 4/5=5,16=3,69=1/1;
 5/5=2,38=5/2;
 7//1,2,3,16;
 1/6=1000,14=-1,18=20,19=15,26=3/3(-5);
 2/9=110/2;
 6/7=2,8=2,9=2,10=2,19=2,28=1/1;
 99/9=1/99;
 -----------------------------------
 glo_2w_alpha_ircr_boat5_B3LYP_631Gd
 -----------------------------------
 Symbolic Z-matrix:
 Charge =  0 Multiplicity = 1
 O                     0.48649  -0.66801  -0.57899 
 C                    -1.24603   0.0258    1.0865 
 C                    -0.33288   1.62532  -0.82707 
 C                    -1.56889   1.26108   0.03987 
 C                     0.78332   0.7357   -0.65073 
 C                    -0.60251  -1.09945   0.28304 
 H                    -1.79661   2.1232    0.68045 
 H                    -0.18188  -1.81084   1.00938 
 H                    -2.23953  -0.32908   1.38371 
 H                    -0.63432   1.47208  -1.86713 
 C                    -1.59443  -1.83159  -0.63454 
 H                    -1.04605  -2.57807  -1.22971 
 H                    -2.0489   -1.11486  -1.32034 
 O                    -2.66398  -2.42068   0.09352 
 H                    -2.2964   -3.11908   0.65788 
 O                     0.06043   2.97987  -0.71254 
 H                     0.60779   3.02721   0.09083 
 O                    -2.63187   1.01953  -0.88737 
 H                    -3.43846   0.83938  -0.37804 
 O                    -0.55188   0.25698   2.30059 
 H                     0.36326   0.50296   2.0559 
 H                     1.5348    0.79639  -1.44512 
 O                     1.29885   1.27704   0.53993 
 H                     3.65616  -0.85625   0.07168 
 O                     2.84526  -2.1368   -0.7752 
 H                     2.78173  -2.92389  -0.21354 
 H                     1.93828  -1.75154  -0.78385 
 O                     3.88372  -0.0067    0.53271 
 H                     4.49551   0.451    -0.06298 
 H                     2.25477   0.99688   0.6345 
 
 Add virtual bond connecting atoms O25        and H24        Dist= 3.28D+00.
 Add virtual bond connecting atoms H27        and O1         Dist= 3.45D+00.
 Add virtual bond connecting atoms O28        and H30        Dist= 3.62D+00.
 The following ModRedundant input section has been read:
 D       5       1       6       2 F                                           
 D       5       3       4       2 F                                           
 

 GradGradGradGradGradGradGradGradGradGradGradGradGradGradGradGradGradGrad
 Berny optimization.
 Initialization pass.
                           ----------------------------
                           !    Initial Parameters    !
                           ! (Angstroms and Degrees)  !
 --------------------------                            --------------------------
 ! Name  Definition              Value          Derivative Info.                !
 --------------------------------------------------------------------------------
 ! R1    R(1,5)                  1.4365         estimate D2E/DX2                !
 ! R2    R(1,6)                  1.4544         estimate D2E/DX2                !
 ! R3    R(1,27)                 1.8231         estimate D2E/DX2                !
 ! R4    R(2,4)                  1.6509         estimate D2E/DX2                !
 ! R5    R(2,6)                  1.5251         estimate D2E/DX2                !
 ! R6    R(2,9)                  1.0961         estimate D2E/DX2                !
 ! R7    R(2,20)                 1.4175         estimate D2E/DX2                !
 ! R8    R(3,4)                  1.5531         estimate D2E/DX2                !
 ! R9    R(3,5)                  1.4382         estimate D2E/DX2                !
 ! R10   R(3,10)                 1.0936         estimate D2E/DX2                !
 ! R11   R(3,16)                 1.4151         estimate D2E/DX2                !
 ! R12   R(4,7)                  1.0979         estimate D2E/DX2                !
 ! R13   R(4,18)                 1.4311         estimate D2E/DX2                !
 ! R14   R(5,22)                 1.0952         estimate D2E/DX2                !
 ! R15   R(5,23)                 1.4059         estimate D2E/DX2                !
 ! R16   R(6,8)                  1.1003         estimate D2E/DX2                !
 ! R17   R(6,11)                 1.5368         estimate D2E/DX2                !
 ! R18   R(11,12)                1.101          estimate D2E/DX2                !
 ! R19   R(11,13)                1.0911         estimate D2E/DX2                !
 ! R20   R(11,14)                1.4216         estimate D2E/DX2                !
 ! R21   R(14,15)                0.9702         estimate D2E/DX2                !
 ! R22   R(16,17)                0.9733         estimate D2E/DX2                !
 ! R23   R(18,19)                0.9708         estimate D2E/DX2                !
 ! R24   R(20,21)                0.9787         estimate D2E/DX2                !
 ! R25   R(23,30)                1.0006         estimate D2E/DX2                !
 ! R26   R(24,25)                1.7363         estimate D2E/DX2                !
 ! R27   R(24,28)                0.993          estimate D2E/DX2                !
 ! R28   R(25,26)                0.969          estimate D2E/DX2                !
 ! R29   R(25,27)                0.9854         estimate D2E/DX2                !
 ! R30   R(28,29)                0.9688         estimate D2E/DX2                !
 ! R31   R(28,30)                1.916          estimate D2E/DX2                !
 ! A1    A(5,1,6)              118.307          estimate D2E/DX2                !
 ! A2    A(5,1,27)             114.2421         estimate D2E/DX2                !
 ! A3    A(6,1,27)             119.1155         estimate D2E/DX2                !
 ! A4    A(4,2,6)              107.4935         estimate D2E/DX2                !
 ! A5    A(4,2,9)              103.7039         estimate D2E/DX2                !
 ! A6    A(4,2,20)             121.1129         estimate D2E/DX2                !
 ! A7    A(6,2,9)              106.6453         estimate D2E/DX2                !
 ! A8    A(6,2,20)             111.4037         estimate D2E/DX2                !
 ! A9    A(9,2,20)             105.3331         estimate D2E/DX2                !
 ! A10   A(4,3,5)              113.8382         estimate D2E/DX2                !
 ! A11   A(4,3,10)             106.1795         estimate D2E/DX2                !
 ! A12   A(4,3,16)             113.6101         estimate D2E/DX2                !
 ! A13   A(5,3,10)             104.1136         estimate D2E/DX2                !
 ! A14   A(5,3,16)             111.4968         estimate D2E/DX2                !
 ! A15   A(10,3,16)            106.7194         estimate D2E/DX2                !
 ! A16   A(2,4,3)              111.9459         estimate D2E/DX2                !
 ! A17   A(2,4,7)              104.9643         estimate D2E/DX2                !
 ! A18   A(2,4,18)             115.4503         estimate D2E/DX2                !
 ! A19   A(3,4,7)              107.8536         estimate D2E/DX2                !
 ! A20   A(3,4,18)             105.6074         estimate D2E/DX2                !
 ! A21   A(7,4,18)             110.8855         estimate D2E/DX2                !
 ! A22   A(1,5,3)              116.7554         estimate D2E/DX2                !
 ! A23   A(1,5,22)             103.4239         estimate D2E/DX2                !
 ! A24   A(1,5,23)             114.1876         estimate D2E/DX2                !
 ! A25   A(3,5,22)             114.1625         estimate D2E/DX2                !
 ! A26   A(3,5,23)              98.6418         estimate D2E/DX2                !
 ! A27   A(22,5,23)            109.9589         estimate D2E/DX2                !
 ! A28   A(1,6,2)              114.1633         estimate D2E/DX2                !
 ! A29   A(1,6,8)              107.2678         estimate D2E/DX2                !
 ! A30   A(1,6,11)             105.7076         estimate D2E/DX2                !
 ! A31   A(2,6,8)              106.8924         estimate D2E/DX2                !
 ! A32   A(2,6,11)             113.1849         estimate D2E/DX2                !
 ! A33   A(8,6,11)             109.4434         estimate D2E/DX2                !
 ! A34   A(6,11,12)            108.9216         estimate D2E/DX2                !
 ! A35   A(6,11,13)            109.3391         estimate D2E/DX2                !
 ! A36   A(6,11,14)            112.1616         estimate D2E/DX2                !
 ! A37   A(12,11,13)           108.2433         estimate D2E/DX2                !
 ! A38   A(12,11,14)           111.7541         estimate D2E/DX2                !
 ! A39   A(13,11,14)           106.3031         estimate D2E/DX2                !
 ! A40   A(11,14,15)           108.1279         estimate D2E/DX2                !
 ! A41   A(3,16,17)            105.6447         estimate D2E/DX2                !
 ! A42   A(4,18,19)            107.9699         estimate D2E/DX2                !
 ! A43   A(2,20,21)            106.5435         estimate D2E/DX2                !
 ! A44   A(5,23,30)            108.8171         estimate D2E/DX2                !
 ! A45   A(25,24,28)           164.6814         estimate D2E/DX2                !
 ! A46   A(24,25,26)           110.302          estimate D2E/DX2                !
 ! A47   A(24,25,27)            98.3833         estimate D2E/DX2                !
 ! A48   A(26,25,27)           105.2068         estimate D2E/DX2                !
 ! A49   A(1,27,25)            164.6411         estimate D2E/DX2                !
 ! A50   A(24,28,29)           105.2738         estimate D2E/DX2                !
 ! A51   A(24,28,30)           106.1377         estimate D2E/DX2                !
 ! A52   A(29,28,30)           108.7891         estimate D2E/DX2                !
 ! A53   A(23,30,28)           162.5263         estimate D2E/DX2                !
 ! D1    D(6,1,5,3)            -46.7723         estimate D2E/DX2                !
 ! D2    D(6,1,5,22)          -173.0437         estimate D2E/DX2                !
 ! D3    D(6,1,5,23)            67.4901         estimate D2E/DX2                !
 ! D4    D(27,1,5,3)           165.1638         estimate D2E/DX2                !
 ! D5    D(27,1,5,22)           38.8924         estimate D2E/DX2                !
 ! D6    D(27,1,5,23)          -80.5738         estimate D2E/DX2                !
 ! D7    D(5,1,6,2)             -3.7306         Frozen                          !
 ! D8    D(5,1,6,8)           -121.9581         estimate D2E/DX2                !
 ! D9    D(5,1,6,11)           121.3284         estimate D2E/DX2                !
 ! D10   D(27,1,6,2)           142.7589         estimate D2E/DX2                !
 ! D11   D(27,1,6,8)            24.5315         estimate D2E/DX2                !
 ! D12   D(27,1,6,11)          -92.182          estimate D2E/DX2                !
 ! D13   D(5,1,27,25)           32.5156         estimate D2E/DX2                !
 ! D14   D(6,1,27,25)         -115.2708         estimate D2E/DX2                !
 ! D15   D(6,2,4,3)            -49.9521         estimate D2E/DX2                !
 ! D16   D(6,2,4,7)           -166.6852         estimate D2E/DX2                !
 ! D17   D(6,2,4,18)            70.9115         estimate D2E/DX2                !
 ! D18   D(9,2,4,3)           -162.6573         estimate D2E/DX2                !
 ! D19   D(9,2,4,7)             80.6096         estimate D2E/DX2                !
 ! D20   D(9,2,4,18)           -41.7938         estimate D2E/DX2                !
 ! D21   D(20,2,4,3)            79.6271         estimate D2E/DX2                !
 ! D22   D(20,2,4,7)           -37.106          estimate D2E/DX2                !
 ! D23   D(20,2,4,18)         -159.5093         estimate D2E/DX2                !
 ! D24   D(4,2,6,1)             48.6987         estimate D2E/DX2                !
 ! D25   D(4,2,6,8)            167.1401         estimate D2E/DX2                !
 ! D26   D(4,2,6,11)           -72.2952         estimate D2E/DX2                !
 ! D27   D(9,2,6,1)            159.3994         estimate D2E/DX2                !
 ! D28   D(9,2,6,8)            -82.1592         estimate D2E/DX2                !
 ! D29   D(9,2,6,11)            38.4055         estimate D2E/DX2                !
 ! D30   D(20,2,6,1)           -86.1676         estimate D2E/DX2                !
 ! D31   D(20,2,6,8)            32.2738         estimate D2E/DX2                !
 ! D32   D(20,2,6,11)          152.8385         estimate D2E/DX2                !
 ! D33   D(4,2,20,21)          -67.7451         estimate D2E/DX2                !
 ! D34   D(6,2,20,21)           60.1113         estimate D2E/DX2                !
 ! D35   D(9,2,20,21)          175.3566         estimate D2E/DX2                !
 ! D36   D(5,3,4,2)              6.24           Frozen                          !
 ! D37   D(5,3,4,7)            121.2171         estimate D2E/DX2                !
 ! D38   D(5,3,4,18)          -120.1724         estimate D2E/DX2                !
 ! D39   D(10,3,4,2)           120.1799         estimate D2E/DX2                !
 ! D40   D(10,3,4,7)          -124.843          estimate D2E/DX2                !
 ! D41   D(10,3,4,18)           -6.2325         estimate D2E/DX2                !
 ! D42   D(16,3,4,2)          -122.8366         estimate D2E/DX2                !
 ! D43   D(16,3,4,7)            -7.8595         estimate D2E/DX2                !
 ! D44   D(16,3,4,18)          110.751          estimate D2E/DX2                !
 ! D45   D(4,3,5,1)             42.3688         estimate D2E/DX2                !
 ! D46   D(4,3,5,22)           163.1084         estimate D2E/DX2                !
 ! D47   D(4,3,5,23)           -80.3656         estimate D2E/DX2                !
 ! D48   D(10,3,5,1)           -72.7954         estimate D2E/DX2                !
 ! D49   D(10,3,5,22)           47.9442         estimate D2E/DX2                !
 ! D50   D(10,3,5,23)          164.4702         estimate D2E/DX2                !
 ! D51   D(16,3,5,1)           172.5061         estimate D2E/DX2                !
 ! D52   D(16,3,5,22)          -66.7543         estimate D2E/DX2                !
 ! D53   D(16,3,5,23)           49.7717         estimate D2E/DX2                !
 ! D54   D(4,3,16,17)           82.8528         estimate D2E/DX2                !
 ! D55   D(5,3,16,17)          -47.4032         estimate D2E/DX2                !
 ! D56   D(10,3,16,17)        -160.479          estimate D2E/DX2                !
 ! D57   D(2,4,18,19)           59.064          estimate D2E/DX2                !
 ! D58   D(3,4,18,19)         -176.6944         estimate D2E/DX2                !
 ! D59   D(7,4,18,19)          -60.1238         estimate D2E/DX2                !
 ! D60   D(1,5,23,30)           75.7138         estimate D2E/DX2                !
 ! D61   D(3,5,23,30)         -159.7143         estimate D2E/DX2                !
 ! D62   D(22,5,23,30)         -39.9999         estimate D2E/DX2                !
 ! D63   D(1,6,11,12)           50.436          estimate D2E/DX2                !
 ! D64   D(1,6,11,13)          -67.6654         estimate D2E/DX2                !
 ! D65   D(1,6,11,14)          174.6769         estimate D2E/DX2                !
 ! D66   D(2,6,11,12)          176.0995         estimate D2E/DX2                !
 ! D67   D(2,6,11,13)           57.9981         estimate D2E/DX2                !
 ! D68   D(2,6,11,14)          -59.6596         estimate D2E/DX2                !
 ! D69   D(8,6,11,12)          -64.7956         estimate D2E/DX2                !
 ! D70   D(8,6,11,13)          177.103          estimate D2E/DX2                !
 ! D71   D(8,6,11,14)           59.4453         estimate D2E/DX2                !
 ! D72   D(6,11,14,15)         -65.4098         estimate D2E/DX2                !
 ! D73   D(12,11,14,15)         57.2415         estimate D2E/DX2                !
 ! D74   D(13,11,14,15)        175.1389         estimate D2E/DX2                !
 ! D75   D(5,23,30,28)         -31.4038         estimate D2E/DX2                !
 ! D76   D(28,24,25,26)       -115.3765         estimate D2E/DX2                !
 ! D77   D(28,24,25,27)         -5.669          estimate D2E/DX2                !
 ! D78   D(25,24,28,29)       -110.5316         estimate D2E/DX2                !
 ! D79   D(25,24,28,30)          4.7197         estimate D2E/DX2                !
 ! D80   D(24,25,27,1)           2.3108         estimate D2E/DX2                !
 ! D81   D(26,25,27,1)         116.108          estimate D2E/DX2                !
 ! D82   D(24,28,30,23)         -1.0168         estimate D2E/DX2                !
 ! D83   D(29,28,30,23)        111.8205         estimate D2E/DX2                !
 --------------------------------------------------------------------------------
 Trust Radius=3.00D-01 FncErr=1.00D-07 GrdErr=1.00D-06
 Number of steps in this run=    180 maximum allowed number of steps=    180.
 GradGradGradGradGradGradGradGradGradGradGradGradGradGradGradGradGradGrad

                          Input orientation:                          
 ---------------------------------------------------------------------
 Center     Atomic      Atomic             Coordinates (Angstroms)
 Number     Number       Type             X           Y           Z
 ---------------------------------------------------------------------
      1          8           0        0.486488   -0.668011   -0.578989
      2          6           0       -1.246026    0.025796    1.086497
      3          6           0       -0.332882    1.625319   -0.827068
      4          6           0       -1.568891    1.261075    0.039872
      5          6           0        0.783318    0.735702   -0.650731
      6          6           0       -0.602507   -1.099454    0.283035
      7          1           0       -1.796607    2.123204    0.680449
      8          1           0       -0.181882   -1.810841    1.009379
      9          1           0       -2.239533   -0.329084    1.383713
     10          1           0       -0.634315    1.472083   -1.867129
     11          6           0       -1.594431   -1.831593   -0.634539
     12          1           0       -1.046052   -2.578068   -1.229707
     13          1           0       -2.048895   -1.114861   -1.320337
     14          8           0       -2.663977   -2.420677    0.093518
     15          1           0       -2.296401   -3.119080    0.657876
     16          8           0        0.060432    2.979868   -0.712540
     17          1           0        0.607794    3.027209    0.090825
     18          8           0       -2.631874    1.019530   -0.887370
     19          1           0       -3.438460    0.839380   -0.378039
     20          8           0       -0.551879    0.256978    2.300591
     21          1           0        0.363258    0.502957    2.055899
     22          1           0        1.534804    0.796395   -1.445116
     23          8           0        1.298849    1.277041    0.539935
     24          1           0        3.656156   -0.856247    0.071679
     25          8           0        2.845255   -2.136799   -0.775198
     26          1           0        2.781732   -2.923885   -0.213541
     27          1           0        1.938284   -1.751542   -0.783852
     28          8           0        3.883724   -0.006699    0.532706
     29          1           0        4.495512    0.451004   -0.062983
     30          1           0        2.254773    0.996875    0.634502
 ---------------------------------------------------------------------
                    Distance matrix (angstroms):
                    1          2          3          4          5
     1  O    0.000000
     2  C    2.501363   0.000000
     3  C    2.447912   2.655944   0.000000
     4  C    2.885991   1.650933   1.553054   0.000000
     5  C    1.436546   2.764085   1.438199   2.507157   0.000000
     6  C    1.454352   1.525076   2.954558   2.562250   2.481981
     7  H    3.819632   2.206158   2.159395   1.097934   3.217641
     8  H    2.067775   2.124049   3.899043   3.507193   3.189429
     9  H    3.376131   1.096053   3.513198   2.187299   3.796098
    10  H    2.737792   3.345122   1.093650   2.134153   2.007876
    11  C    2.384792   2.556021   3.684944   3.165451   3.499280
    12  H    2.533856   3.490687   4.282428   4.077279   3.829214
    13  H    2.679074   2.781824   3.270566   2.779504   3.448824
    14  O    3.667361   2.996970   4.759367   3.841535   4.732915
    15  H    3.909225   3.343239   5.345071   4.482963   5.104553
    16  O    3.675103   3.697284   1.415139   2.484969   2.358531
    17  H    3.757395   3.665582   1.921639   2.803530   2.414895
    18  O    3.559083   2.608493   2.378230   1.431103   3.435126
    19  H    4.209255   2.759266   3.234802   1.961572   4.231846
    20  O    3.197779   1.417501   3.420902   2.674579   3.274481
    21  H    2.885999   1.938355   3.171089   2.893495   2.748903
    22  H    1.998406   3.838737   2.134795   3.471893   1.095200
    23  O    2.386451   2.888033   2.156975   2.911057   1.405882
    24  H    3.241234   5.083232   4.783131   5.637835   3.362942
    25  O    2.785609   4.988117   4.925117   5.629793   3.538126
    26  H    3.238930   5.158833   5.547296   6.042022   4.192538
    27  H    1.823107   4.098410   4.069798   4.696239   2.745551
    28  O    3.635163   5.159659   4.721465   5.619711   3.400617
    29  H    4.194130   5.870892   5.027547   6.119132   3.769202
    30  H    2.715002   3.660996   3.037612   3.878633   1.971094
                    6          7          8          9         10
     6  C    0.000000
     7  H    3.459673   0.000000
     8  H    1.100260   4.265236   0.000000
     9  H    2.117738   2.589302   2.563134   0.000000
    10  H    3.352166   2.874897   4.388232   4.048321   0.000000
    11  C    1.536842   4.172588   2.167531   2.597504   3.654501
    12  H    2.161347   5.129716   2.519709   3.648601   4.120625
    13  H    2.159416   3.814690   3.065567   2.822352   2.998716
    14  O    2.455852   4.663012   2.715050   2.493896   4.808040
    15  H    2.662456   5.266103   2.511221   2.883427   5.496995
    16  O    4.251062   2.474447   5.096530   4.542388   2.022169
    17  H    4.304779   2.635531   4.987390   4.587323   2.791923
    18  O    3.158840   2.091369   4.196560   2.670302   2.270456
    19  H    3.498389   2.337581   4.421979   2.430331   3.237426
    20  O    2.431667   2.767130   2.465766   2.008061   4.342023
    21  H    2.577493   3.030195   2.597315   2.814010   4.162272
    22  H    3.338989   4.168543   3.971050   4.849185   2.310785
    23  O    3.054322   3.212100   3.456582   3.976399   3.093400
    24  H    4.270835   6.243425   4.064612   6.062877   5.252451
    25  O    3.752733   6.466329   3.529097   5.812383   5.130668
    26  H    3.876624   6.872664   3.393731   5.873441   5.807604
    27  H    2.831799   5.577387   2.777463   4.916897   4.264213
    28  O    4.624145   6.068317   4.473399   6.190510   5.325287
    29  H    5.339798   6.552839   5.305084   6.932698   5.532872
    30  H    3.561204   4.205283   3.736454   4.745342   3.851079
                   11         12         13         14         15
    11  C    0.000000
    12  H    1.100985   0.000000
    13  H    1.091129   1.776199   0.000000
    14  O    1.421624   2.096039   2.020512   0.000000
    15  H    1.954666   2.327882   2.826920   0.970246   0.000000
    16  O    5.088695   5.690556   4.646018   6.102297   6.680559
    17  H    5.383671   5.991506   5.119191   6.354838   6.821493
    18  O    3.044522   3.946484   2.254539   3.577457   4.430397
    19  H    3.255816   4.257688   2.576407   3.383809   4.248155
    20  O    3.750204   4.554635   4.151400   4.062262   4.140005
    21  H    4.064619   4.719542   4.453627   4.643569   4.706103
    22  H    4.165989   4.253729   4.063418   5.508785   5.867848
    23  O    4.406139   4.846860   4.515440   5.438419   5.680282
    24  H    5.386901   5.173880   5.878112   6.510914   6.395074
    25  O    4.452386   3.942533   5.029338   5.584523   5.427264
    26  H    4.530027   3.975439   5.275654   5.477522   5.156055
    27  H    3.536775   3.128609   4.073178   4.732687   4.677744
    28  O    5.890915   5.832729   6.313300   6.992322   6.920731
    29  H    6.528731   6.422262   6.845592   7.715525   7.706829
    30  H    4.942375   5.210656   5.177102   6.013853   6.136352
                   16         17         18         19         20
    16  O    0.000000
    17  H    0.973263   0.000000
    18  O    3.334967   3.934856   0.000000
    19  H    4.115317   4.623700   0.970801   0.000000
    20  O    4.107069   3.728550   3.882134   3.980779   0.000000
    21  H    3.727070   3.208296   4.230898   4.526621   0.978701
    22  H    2.734593   2.862691   4.209760   5.086635   4.321520
    23  O    2.449896   1.934515   4.189761   4.845237   2.750570
    24  H    5.316014   4.937015   6.631564   7.308281   4.890284
    25  O    5.825757   5.694138   6.322494   6.964227   5.170219
    26  H    6.519876   6.343041   6.731396   7.271865   5.248972
    27  H    5.090939   5.037036   5.345643   5.982219   4.443968
    28  O    5.008770   4.486823   6.747057   7.426957   4.782208
    29  H    5.146553   4.666352   7.197393   7.949718   5.576763
    30  H    3.249910   2.670277   5.118195   5.784717   3.346729
                   21         22         23         24         25
    21  H    0.000000
    22  H    3.703476   0.000000
    23  O    1.942340   2.055996   0.000000
    24  H    4.077713   3.087398   3.213577   0.000000
    25  O    4.598231   3.281722   3.971807   1.736253   0.000000
    26  H    4.768922   4.112431   4.518235   2.262984   0.969019
    27  H    3.953183   2.663090   3.366542   2.117680   0.985441
    28  O    3.869566   3.173982   2.886108   0.993008   2.706724
    29  H    4.644123   3.285632   3.356263   1.559345   3.150765
    30  H    2.417055   2.209832   1.000613   2.390545   3.486522
                   26         27         28         29         30
    26  H    0.000000
    27  H    1.552755   0.000000
    28  O    3.206438   2.926182   0.000000
    29  H    3.788085   3.451127   0.968825   0.000000
    30  H    4.045890   3.108969   1.915987   2.409434   0.000000
 Stoichiometry    C6H16O8
 Framework group  C1[X(C6H16O8)]
 Deg. of freedom    84
 Full point group                 C1      NOp   1
 Largest Abelian subgroup         C1      NOp   1
 Largest concise Abelian subgroup C1      NOp   1
                         Standard orientation:                         
 ---------------------------------------------------------------------
 Center     Atomic      Atomic             Coordinates (Angstroms)
 Number     Number       Type             X           Y           Z
 ---------------------------------------------------------------------
      1          8           0       -0.495601    0.679521   -0.587059
      2          6           0        1.226123    0.012563    1.100439
      3          6           0        0.320061   -1.619676   -0.788710
      4          6           0        1.552050   -1.242283    0.078327
      5          6           0       -0.795130   -0.724638   -0.634852
      6          6           0        0.589553    1.124322    0.273018
      7          1           0        1.774308   -2.093060    0.735776
      8          1           0        0.166484    1.849727    0.983913
      9          1           0        2.218750    0.370711    1.396674
     10          1           0        0.627589   -1.486076   -1.829694
     11          6           0        1.588160    1.837506   -0.652203
     12          1           0        1.044738    2.574153   -1.263933
     13          1           0        2.044832    1.107424   -1.322274
     14          8           0        2.654956    2.437518    0.070947
     15          1           0        2.285803    3.146874    0.620419
     16          8           0       -0.076875   -2.971078   -0.651701
     17          1           0       -0.628781   -3.002600    0.149327
     18          8           0        2.620685   -1.019937   -0.847220
     19          1           0        3.424833   -0.832226   -0.336766
     20          8           0        0.524751   -0.194966    2.314655
     21          1           0       -0.389558   -0.443439    2.069387
     22          1           0       -1.542337   -0.798228   -1.432179
     23          8           0       -1.318445   -1.243076    0.562591
     24          1           0       -3.668401    0.886280    0.042375
     25          8           0       -2.849993    2.149456   -0.823171
     26          1           0       -2.787843    2.946522   -0.275612
     27          1           0       -1.943841    1.762193   -0.819740
     28          8           0       -3.900396    0.045766    0.517537
     29          1           0       -4.509885   -0.421438   -0.073112
     30          1           0       -2.274256   -0.959217    0.646699
 ---------------------------------------------------------------------
 Rotational constants (GHZ):      0.7169733      0.5115185      0.3797085
 Standard basis: 6-31G(d) (6D, 7F)
 There are   242 symmetry adapted cartesian basis functions of A   symmetry.
 There are   242 symmetry adapted basis functions of A   symmetry.
   242 basis functions,   456 primitive gaussians,   242 cartesian basis functions
    58 alpha electrons       58 beta electrons
       nuclear repulsion energy      1111.2428932234 Hartrees.
 NAtoms=   30 NActive=   30 NUniq=   30 SFac= 1.00D+00 NAtFMM=   60 NAOKFM=F Big=F
 Integral buffers will be    131072 words long.
 Raffenetti 2 integral format.
 Two-electron integral symmetry is turned on.
 One-electron integrals computed using PRISM.
 NBasis=   242 RedAO= T EigKep=  1.24D-03  NBF=   242
 NBsUse=   242 1.00D-06 EigRej= -1.00D+00 NBFU=   242
 ExpMin= 1.61D-01 ExpMax= 5.48D+03 ExpMxC= 8.25D+02 IAcc=1 IRadAn=         1 AccDes= 0.00D+00
 Harris functional with IExCor=  402 and IRadAn=       1 diagonalized for initial guess.
 HarFok:  IExCor=  402 AccDes= 0.00D+00 IRadAn=         1 IDoV= 1 UseB2=F ITyADJ=14
 ICtDFT=  3500011 ScaDFX=  1.000000  1.000000  1.000000  1.000000
 FoFCou: FMM=F IPFlag=           0 FMFlag=      100000 FMFlg1=           0
         NFxFlg=           0 DoJE=T BraDBF=F KetDBF=T FulRan=T
         wScrn=  0.000000 ICntrl=     500 IOpCl=  0 I1Cent=   200000004 NGrid=           0
         NMat0=    1 NMatS0=      1 NMatT0=    0 NMatD0=    1 NMtDS0=    0 NMtDT0=    0
 Petite list used in FoFCou.
 Requested convergence on RMS density matrix=1.00D-08 within 128 cycles.
 Requested convergence on MAX density matrix=1.00D-06.
 Requested convergence on             energy=1.00D-06.
 No special actions if energy rises.
 Integral accuracy reduced to 1.0D-05 until final iterations.
 Initial convergence to 1.0D-05 achieved.  Increase integral accuracy.
 SCF Done:  E(RB3LYP) =  -839.973614998     A.U. after   14 cycles
            NFock= 14  Conv=0.35D-08     -V/T= 2.0085

 **********************************************************************

            Population analysis using the SCF density.

 **********************************************************************

 Orbital symmetries:
       Occupied  (A) (A) (A) (A) (A) (A) (A) (A) (A) (A) (A) (A)
                 (A) (A) (A) (A) (A) (A) (A) (A) (A) (A) (A) (A)
                 (A) (A) (A) (A) (A) (A) (A) (A) (A) (A) (A) (A)
                 (A) (A) (A) (A) (A) (A) (A) (A) (A) (A) (A) (A)
                 (A) (A) (A) (A) (A) (A) (A) (A) (A) (A)
       Virtual   (A) (A) (A) (A) (A) (A) (A) (A) (A) (A) (A) (A)
                 (A) (A) (A) (A) (A) (A) (A) (A) (A) (A) (A) (A)
                 (A) (A) (A) (A) (A) (A) (A) (A) (A) (A) (A) (A)
                 (A) (A) (A) (A) (A) (A) (A) (A) (A) (A) (A) (A)
                 (A) (A) (A) (A) (A) (A) (A) (A) (A) (A) (A) (A)
                 (A) (A) (A) (A) (A) (A) (A) (A) (A) (A) (A) (A)
                 (A) (A) (A) (A) (A) (A) (A) (A) (A) (A) (A) (A)
                 (A) (A) (A) (A) (A) (A) (A) (A) (A) (A) (A) (A)
                 (A) (A) (A) (A) (A) (A) (A) (A) (A) (A) (A) (A)
                 (A) (A) (A) (A) (A) (A) (A) (A) (A) (A) (A) (A)
                 (A) (A) (A) (A) (A) (A) (A) (A) (A) (A) (A) (A)
                 (A) (A) (A) (A) (A) (A) (A) (A) (A) (A) (A) (A)
                 (A) (A) (A) (A) (A) (A) (A) (A) (A) (A) (A) (A)
                 (A) (A) (A) (A) (A) (A) (A) (A) (A) (A) (A) (A)
                 (A) (A) (A) (A) (A) (A) (A) (A) (A) (A) (A) (A)
                 (A) (A) (A) (A)
 The electronic state is 1-A.
 Alpha  occ. eigenvalues --  -19.18715 -19.17043 -19.16582 -19.16173 -19.15718
 Alpha  occ. eigenvalues --  -19.14846 -19.14177 -19.13646 -10.29685 -10.24911
 Alpha  occ. eigenvalues --  -10.24468 -10.24335 -10.23335 -10.23012  -1.08990
 Alpha  occ. eigenvalues --   -1.03574  -1.03122  -1.02618  -1.02339  -1.01292
 Alpha  occ. eigenvalues --   -1.00372  -0.99759  -0.78320  -0.77367  -0.68956
 Alpha  occ. eigenvalues --   -0.66014  -0.63334  -0.58546  -0.55566  -0.55006
 Alpha  occ. eigenvalues --   -0.53660  -0.52735  -0.51954  -0.51398  -0.49552
 Alpha  occ. eigenvalues --   -0.48589  -0.46418  -0.44525  -0.43005  -0.42189
 Alpha  occ. eigenvalues --   -0.41163  -0.40927  -0.40356  -0.38690  -0.37801
 Alpha  occ. eigenvalues --   -0.36690  -0.35930  -0.35372  -0.33958  -0.33114
 Alpha  occ. eigenvalues --   -0.32220  -0.31004  -0.30614  -0.30395  -0.29590
 Alpha  occ. eigenvalues --   -0.26885  -0.26775  -0.24587
 Alpha virt. eigenvalues --    0.03665   0.05405   0.06204   0.07650   0.09475
 Alpha virt. eigenvalues --    0.10594   0.11132   0.12259   0.13747   0.14215
 Alpha virt. eigenvalues --    0.15258   0.16037   0.17031   0.17620   0.19269
 Alpha virt. eigenvalues --    0.19302   0.20648   0.21370   0.22180   0.22301
 Alpha virt. eigenvalues --    0.23688   0.25054   0.25928   0.26763   0.29205
 Alpha virt. eigenvalues --    0.31548   0.34168   0.35725   0.52187   0.52738
 Alpha virt. eigenvalues --    0.53898   0.56048   0.56130   0.56977   0.58123
 Alpha virt. eigenvalues --    0.60038   0.61053   0.62990   0.65094   0.66308
 Alpha virt. eigenvalues --    0.68876   0.71391   0.71514   0.74101   0.76546
 Alpha virt. eigenvalues --    0.77175   0.79029   0.79260   0.79681   0.80917
 Alpha virt. eigenvalues --    0.81877   0.82770   0.84452   0.85024   0.85769
 Alpha virt. eigenvalues --    0.86186   0.86456   0.87367   0.88370   0.89962
 Alpha virt. eigenvalues --    0.91010   0.91606   0.92788   0.94411   0.95737
 Alpha virt. eigenvalues --    0.96487   0.98275   0.99292   1.01346   1.03069
 Alpha virt. eigenvalues --    1.03308   1.04283   1.05576   1.06151   1.07122
 Alpha virt. eigenvalues --    1.08675   1.09330   1.10935   1.13397   1.14776
 Alpha virt. eigenvalues --    1.15114   1.16590   1.19444   1.21851   1.26442
 Alpha virt. eigenvalues --    1.27817   1.30601   1.31582   1.35221   1.37007
 Alpha virt. eigenvalues --    1.39255   1.42041   1.44086   1.45500   1.49691
 Alpha virt. eigenvalues --    1.51350   1.52086   1.54246   1.56797   1.58803
 Alpha virt. eigenvalues --    1.60592   1.61807   1.64637   1.69702   1.69734
 Alpha virt. eigenvalues --    1.70647   1.71287   1.71964   1.72291   1.73099
 Alpha virt. eigenvalues --    1.75142   1.75212   1.76782   1.78313   1.78974
 Alpha virt. eigenvalues --    1.79960   1.80758   1.82934   1.84249   1.84643
 Alpha virt. eigenvalues --    1.87802   1.88307   1.90360   1.93829   1.94790
 Alpha virt. eigenvalues --    1.98350   2.00810   2.02340   2.03519   2.04396
 Alpha virt. eigenvalues --    2.05852   2.08576   2.11994   2.15230   2.17657
 Alpha virt. eigenvalues --    2.20358   2.24305   2.26452   2.29115   2.30798
 Alpha virt. eigenvalues --    2.32125   2.35937   2.36762   2.38567   2.38667
 Alpha virt. eigenvalues --    2.41200   2.44289   2.46152   2.50053   2.50535
 Alpha virt. eigenvalues --    2.51064   2.53184   2.55204   2.56552   2.58607
 Alpha virt. eigenvalues --    2.59853   2.61448   2.63590   2.66407   2.71293
 Alpha virt. eigenvalues --    2.76310   2.78110   2.82240   2.86634   2.88920
 Alpha virt. eigenvalues --    2.92992   2.97248   2.98456   3.03811   3.09445
 Alpha virt. eigenvalues --    3.71110   3.72519   3.81568   3.83202   3.85894
 Alpha virt. eigenvalues --    3.92696   3.99602   4.16006   4.27613   4.33400
 Alpha virt. eigenvalues --    4.51648   4.58671   4.70444   4.88863
          Condensed to atoms (all electrons):
               1          2          3          4          5          6
     1  O    8.403250  -0.027610  -0.023284  -0.010804   0.180085   0.140033
     2  C   -0.027610   4.953908  -0.031852   0.255969   0.004940   0.321273
     3  C   -0.023284  -0.031852   4.944827   0.284637   0.287942  -0.021130
     4  C   -0.010804   0.255969   0.284637   5.088838  -0.011086  -0.028125
     5  C    0.180085   0.004940   0.287942  -0.011086   4.790951  -0.015021
     6  C    0.140033   0.321273  -0.021130  -0.028125  -0.015021   5.080898
     7  H    0.000173  -0.047258  -0.043045   0.347765   0.001106   0.005374
     8  H   -0.039110  -0.051823   0.000007   0.005645   0.001744   0.354870
     9  H    0.003299   0.360852   0.004219  -0.042994  -0.000330  -0.049755
    10  H    0.003248   0.003846   0.374652  -0.054712  -0.055749   0.000137
    11  C   -0.034336  -0.024869   0.000778  -0.002108   0.000511   0.297881
    12  H    0.005001   0.005201  -0.000024  -0.000397  -0.000103  -0.049307
    13  H    0.003677  -0.010576  -0.001114  -0.000388   0.000194  -0.034737
    14  O    0.001547  -0.007193  -0.000009  -0.000092  -0.000003  -0.041543
    15  H    0.000016  -0.000963   0.000002   0.000048   0.000000  -0.003359
    16  O    0.001168   0.002332   0.272015  -0.046992  -0.026271   0.000014
    17  H    0.000408  -0.000001  -0.037612  -0.002140  -0.018418   0.000058
    18  O   -0.000066  -0.024033  -0.037085   0.193238   0.000796  -0.000150
    19  H    0.000027  -0.003629   0.007182  -0.022500  -0.000376  -0.000432
    20  O    0.000372   0.253080   0.001431  -0.025102   0.000907  -0.044929
    21  H    0.000782  -0.038878   0.001401  -0.002793  -0.003668  -0.002103
    22  H   -0.050877  -0.000145  -0.045130   0.006919   0.383789   0.004892
    23  O   -0.048447   0.004028  -0.076146  -0.008087   0.185050  -0.000728
    24  H    0.000679  -0.000006   0.000039   0.000000   0.000497   0.000012
    25  O   -0.020521  -0.000017  -0.000001  -0.000001   0.001722   0.000963
    26  H    0.000679   0.000007  -0.000002   0.000000  -0.000046   0.000126
    27  H    0.057187   0.000595   0.000483  -0.000012  -0.002581  -0.003220
    28  O   -0.000582   0.000000   0.000145  -0.000001   0.003483  -0.000024
    29  H    0.000009   0.000000   0.000004   0.000000   0.000073   0.000001
    30  H    0.002680  -0.000211   0.008364  -0.000171  -0.013469  -0.000141
               7          8          9         10         11         12
     1  O    0.000173  -0.039110   0.003299   0.003248  -0.034336   0.005001
     2  C   -0.047258  -0.051823   0.360852   0.003846  -0.024869   0.005201
     3  C   -0.043045   0.000007   0.004219   0.374652   0.000778  -0.000024
     4  C    0.347765   0.005645  -0.042994  -0.054712  -0.002108  -0.000397
     5  C    0.001106   0.001744  -0.000330  -0.055749   0.000511  -0.000103
     6  C    0.005374   0.354870  -0.049755   0.000137   0.297881  -0.049307
     7  H    0.611948  -0.000233  -0.002531   0.003626  -0.000045   0.000012
     8  H   -0.000233   0.650774  -0.000515   0.000054  -0.053359  -0.007263
     9  H   -0.002531  -0.000515   0.593435  -0.000254  -0.007616   0.000702
    10  H    0.003626   0.000054  -0.000254   0.588274   0.000099  -0.000011
    11  C   -0.000045  -0.053359  -0.007616   0.000099   4.983700   0.347439
    12  H    0.000012  -0.007263   0.000702  -0.000011   0.347439   0.644632
    13  H    0.000366   0.005283  -0.000287   0.001169   0.362074  -0.033827
    14  O   -0.000010   0.002298   0.018344   0.000004   0.236304  -0.031618
    15  H   -0.000001   0.005789  -0.000076   0.000000  -0.032419  -0.006889
    16  O    0.004671   0.000006  -0.000041  -0.035234   0.000001   0.000000
    17  H    0.001288  -0.000003   0.000003   0.006996   0.000000   0.000000
    18  O   -0.029857  -0.000188   0.001120   0.003311  -0.011240   0.000526
    19  H   -0.005182  -0.000004   0.005667  -0.000019   0.001046  -0.000002
    20  O    0.004599   0.004731  -0.038064  -0.000055   0.003875  -0.000075
    21  H   -0.000302  -0.000880   0.006595  -0.000028   0.000118   0.000000
    22  H   -0.000251  -0.000157   0.000014  -0.008948  -0.000161  -0.000005
    23  O    0.000467   0.000163   0.000068   0.006528   0.000100   0.000002
    24  H    0.000000  -0.000011   0.000000  -0.000001   0.000002  -0.000002
    25  O    0.000000   0.000873   0.000000   0.000000  -0.000097   0.000016
    26  H    0.000000   0.000183   0.000000   0.000000  -0.000012   0.000030
    27  H    0.000001  -0.001302  -0.000011  -0.000021  -0.000125   0.001083
    28  O    0.000000   0.000007   0.000000   0.000001   0.000000   0.000000
    29  H    0.000000   0.000000   0.000000  -0.000001   0.000000   0.000000
    30  H    0.000017  -0.000063   0.000000  -0.000342   0.000007   0.000000
              13         14         15         16         17         18
     1  O    0.003677   0.001547   0.000016   0.001168   0.000408  -0.000066
     2  C   -0.010576  -0.007193  -0.000963   0.002332  -0.000001  -0.024033
     3  C   -0.001114  -0.000009   0.000002   0.272015  -0.037612  -0.037085
     4  C   -0.000388  -0.000092   0.000048  -0.046992  -0.002140   0.193238
     5  C    0.000194  -0.000003   0.000000  -0.026271  -0.018418   0.000796
     6  C   -0.034737  -0.041543  -0.003359   0.000014   0.000058  -0.000150
     7  H    0.000366  -0.000010  -0.000001   0.004671   0.001288  -0.029857
     8  H    0.005283   0.002298   0.005789   0.000006  -0.000003  -0.000188
     9  H   -0.000287   0.018344  -0.000076  -0.000041   0.000003   0.001120
    10  H    0.001169   0.000004   0.000000  -0.035234   0.006996   0.003311
    11  C    0.362074   0.236304  -0.032419   0.000001   0.000000  -0.011240
    12  H   -0.033827  -0.031618  -0.006889   0.000000   0.000000   0.000526
    13  H    0.519821  -0.032521   0.006731   0.000009   0.000000   0.024864
    14  O   -0.032521   8.231801   0.234576   0.000000   0.000000  -0.000107
    15  H    0.006731   0.234576   0.405187   0.000000   0.000000  -0.000032
    16  O    0.000009   0.000000   0.000000   8.253065   0.236291   0.001373
    17  H    0.000000   0.000000   0.000000   0.236291   0.366740  -0.000081
    18  O    0.024864  -0.000107  -0.000032   0.001373  -0.000081   8.265696
    19  H   -0.002037   0.000407  -0.000002  -0.000185   0.000019   0.229449
    20  O   -0.000002   0.000004  -0.000058  -0.000022   0.000146   0.000755
    21  H    0.000002  -0.000006   0.000003  -0.000001   0.000085  -0.000004
    22  H   -0.000069   0.000001   0.000000   0.003588   0.000085  -0.000106
    23  O    0.000024   0.000000   0.000000  -0.028076   0.039675   0.000044
    24  H    0.000000   0.000000   0.000000   0.000000  -0.000001   0.000000
    25  O    0.000002   0.000000   0.000000   0.000000   0.000000   0.000000
    26  H    0.000000   0.000000   0.000000   0.000000   0.000000   0.000000
    27  H   -0.000037  -0.000001  -0.000001  -0.000004  -0.000003   0.000000
    28  O    0.000000   0.000000   0.000000  -0.000001   0.000010   0.000000
    29  H    0.000000   0.000000   0.000000   0.000000  -0.000002   0.000000
    30  H    0.000000   0.000000   0.000000   0.000391  -0.001029   0.000001
              19         20         21         22         23         24
     1  O    0.000027   0.000372   0.000782  -0.050877  -0.048447   0.000679
     2  C   -0.003629   0.253080  -0.038878  -0.000145   0.004028  -0.000006
     3  C    0.007182   0.001431   0.001401  -0.045130  -0.076146   0.000039
     4  C   -0.022500  -0.025102  -0.002793   0.006919  -0.008087   0.000000
     5  C   -0.000376   0.000907  -0.003668   0.383789   0.185050   0.000497
     6  C   -0.000432  -0.044929  -0.002103   0.004892  -0.000728   0.000012
     7  H   -0.005182   0.004599  -0.000302  -0.000251   0.000467   0.000000
     8  H   -0.000004   0.004731  -0.000880  -0.000157   0.000163  -0.000011
     9  H    0.005667  -0.038064   0.006595   0.000014   0.000068   0.000000
    10  H   -0.000019  -0.000055  -0.000028  -0.008948   0.006528  -0.000001
    11  C    0.001046   0.003875   0.000118  -0.000161   0.000100   0.000002
    12  H   -0.000002  -0.000075   0.000000  -0.000005   0.000002  -0.000002
    13  H   -0.002037  -0.000002   0.000002  -0.000069   0.000024   0.000000
    14  O    0.000407   0.000004  -0.000006   0.000001   0.000000   0.000000
    15  H   -0.000002  -0.000058   0.000003   0.000000   0.000000   0.000000
    16  O   -0.000185  -0.000022  -0.000001   0.003588  -0.028076   0.000000
    17  H    0.000019   0.000146   0.000085   0.000085   0.039675  -0.000001
    18  O    0.229449   0.000755  -0.000004  -0.000106   0.000044   0.000000
    19  H    0.387606   0.000015   0.000010   0.000010   0.000001   0.000000
    20  O    0.000015   8.278343   0.227919  -0.000075  -0.019113   0.000000
    21  H    0.000010   0.227919   0.352874   0.000532   0.044685   0.000014
    22  H    0.000010  -0.000075   0.000532   0.605572  -0.043864  -0.000139
    23  O    0.000001  -0.019113   0.044685  -0.043864   8.451085   0.001360
    24  H    0.000000   0.000000   0.000014  -0.000139   0.001360   0.314351
    25  O    0.000000   0.000000   0.000001   0.000888  -0.000154   0.079793
    26  H    0.000000   0.000000   0.000001  -0.000028   0.000002  -0.003965
    27  H    0.000000  -0.000028  -0.000022  -0.001741   0.000566  -0.006737
    28  O    0.000000  -0.000002   0.000016   0.002191  -0.018728   0.203624
    29  H    0.000000   0.000000  -0.000002   0.000231   0.000918  -0.015278
    30  H    0.000000   0.000627  -0.000366  -0.005914   0.192359  -0.004232
              25         26         27         28         29         30
     1  O   -0.020521   0.000679   0.057187  -0.000582   0.000009   0.002680
     2  C   -0.000017   0.000007   0.000595   0.000000   0.000000  -0.000211
     3  C   -0.000001  -0.000002   0.000483   0.000145   0.000004   0.008364
     4  C   -0.000001   0.000000  -0.000012  -0.000001   0.000000  -0.000171
     5  C    0.001722  -0.000046  -0.002581   0.003483   0.000073  -0.013469
     6  C    0.000963   0.000126  -0.003220  -0.000024   0.000001  -0.000141
     7  H    0.000000   0.000000   0.000001   0.000000   0.000000   0.000017
     8  H    0.000873   0.000183  -0.001302   0.000007   0.000000  -0.000063
     9  H    0.000000   0.000000  -0.000011   0.000000   0.000000   0.000000
    10  H    0.000000   0.000000  -0.000021   0.000001  -0.000001  -0.000342
    11  C   -0.000097  -0.000012  -0.000125   0.000000   0.000000   0.000007
    12  H    0.000016   0.000030   0.001083   0.000000   0.000000   0.000000
    13  H    0.000002   0.000000  -0.000037   0.000000   0.000000   0.000000
    14  O    0.000000   0.000000  -0.000001   0.000000   0.000000   0.000000
    15  H    0.000000   0.000000  -0.000001   0.000000   0.000000   0.000000
    16  O    0.000000   0.000000  -0.000004  -0.000001   0.000000   0.000391
    17  H    0.000000   0.000000  -0.000003   0.000010  -0.000002  -0.001029
    18  O    0.000000   0.000000   0.000000   0.000000   0.000000   0.000001
    19  H    0.000000   0.000000   0.000000   0.000000   0.000000   0.000000
    20  O    0.000000   0.000000  -0.000028  -0.000002   0.000000   0.000627
    21  H    0.000001   0.000001  -0.000022   0.000016  -0.000002  -0.000366
    22  H    0.000888  -0.000028  -0.001741   0.002191   0.000231  -0.005914
    23  O   -0.000154   0.000002   0.000566  -0.018728   0.000918   0.192359
    24  H    0.079793  -0.003965  -0.006737   0.203624  -0.015278  -0.004232
    25  O    8.329929   0.241842   0.209045  -0.031953   0.001294   0.000322
    26  H    0.241842   0.373289  -0.014116   0.001590  -0.000041  -0.000002
    27  H    0.209045  -0.014116   0.316872   0.003615  -0.000107   0.000326
    28  O   -0.031953   0.001590   0.003615   8.353255   0.240322   0.070963
    29  H    0.001294  -0.000041  -0.000107   0.240322   0.382663  -0.003798
    30  H    0.000322  -0.000002   0.000326   0.070963  -0.003798   0.319162
 Mulliken charges:
               1
     1  O   -0.548683
     2  C    0.103031
     3  C    0.128302
     4  C    0.075445
     5  C    0.303332
     6  C    0.088171
     7  H    0.147304
     8  H    0.122484
     9  H    0.148156
    10  H    0.163426
    11  C   -0.067548
    12  H    0.124880
    13  H    0.191380
    14  O   -0.612184
    15  H    0.391449
    16  O   -0.638098
    17  H    0.407486
    18  O   -0.618226
    19  H    0.402927
    20  O   -0.649281
    21  H    0.414015
    22  H    0.148896
    23  O   -0.683783
    24  H    0.430000
    25  O   -0.813945
    26  H    0.400465
    27  H    0.440297
    28  O   -0.827933
    29  H    0.393715
    30  H    0.434519
 Sum of Mulliken charges =   0.00000
 Mulliken charges with hydrogens summed into heavy atoms:
               1
     1  O   -0.548683
     2  C    0.251187
     3  C    0.291729
     4  C    0.222749
     5  C    0.452227
     6  C    0.210655
    11  C    0.248711
    14  O   -0.220735
    16  O   -0.230612
    18  O   -0.215298
    20  O   -0.235266
    23  O   -0.249263
    25  O    0.026817
    28  O   -0.004218
 Electronic spatial extent (au):  <R**2>=           3160.9636
 Charge=              0.0000 electrons
 Dipole moment (field-independent basis, Debye):
    X=             -1.6792    Y=              2.9530    Z=              0.1438  Tot=              3.4001
 Quadrupole moment (field-independent basis, Debye-Ang):
   XX=            -79.4311   YY=            -79.3826   ZZ=            -92.4197
   XY=              0.8137   XZ=              4.4524   YZ=              0.6286
 Traceless Quadrupole moment (field-independent basis, Debye-Ang):
   XX=              4.3134   YY=              4.3618   ZZ=             -8.6752
   XY=              0.8137   XZ=              4.4524   YZ=              0.6286
 Octapole moment (field-independent basis, Debye-Ang**2):
  XXX=            -33.0633  YYY=             70.6954  ZZZ=            -15.2172  XYY=            -25.1881
  XXY=            -27.7241  XXZ=             -2.0315  XZZ=             -5.9617  YZZ=              1.7725
  YYZ=             32.6262  XYZ=             -7.1455
 Hexadecapole moment (field-independent basis, Debye-Ang**3):
 XXXX=          -1680.9141 YYYY=          -1180.4962 ZZZZ=           -544.7766 XXXY=            -18.3236
 XXXZ=             99.0538 YYYX=            -10.5999 YYYZ=            -13.5883 ZZZX=            -22.5879
 ZZZY=              5.5988 XXYY=           -503.5458 XXZZ=           -434.7076 YYZZ=           -306.6632
 XXYZ=             30.5882 YYXZ=              0.8698 ZZXY=             25.8509
 N-N= 1.111242893223D+03 E-N=-4.194761587391D+03  KE= 8.329351759492D+02
 Calling FoFJK, ICntrl=      2127 FMM=F ISym2X=0 I1Cent= 0 IOpClX= 0 NMat=1 NMatS=1 NMatT=0.
 ***** Axes restored to original set *****
 -------------------------------------------------------------------
 Center     Atomic                   Forces (Hartrees/Bohr)
 Number     Number              X              Y              Z
 -------------------------------------------------------------------
      1        8           0.000143617    0.011963410    0.001512442
      2        6          -0.018394261    0.002366094   -0.023332446
      3        6          -0.058117499    0.021763707   -0.037903333
      4        6           0.019139349   -0.001362221    0.025797483
      5        6           0.041724112   -0.019986915    0.022275502
      6        6          -0.003064550   -0.005656362   -0.002555344
      7        1          -0.000425101    0.001124593   -0.001874247
      8        1           0.002096950   -0.000202280   -0.001431270
      9        1           0.001619091   -0.002001143    0.002014829
     10        1          -0.009446983    0.007198778   -0.002067749
     11        6           0.000450592   -0.002523876   -0.000915415
     12        1           0.000177679   -0.000243416    0.000448777
     13        1           0.000344563   -0.001346749    0.000405466
     14        8          -0.000847781   -0.000246083    0.000064047
     15        1          -0.000128249   -0.000038785   -0.000018548
     16        8          -0.003243445    0.001227676   -0.005195977
     17        1          -0.000896115   -0.001878295   -0.001643814
     18        8           0.004308630   -0.004996712    0.012144630
     19        1          -0.001185593   -0.000428273    0.000146838
     20        8          -0.003339249    0.011339626   -0.010056233
     21        1          -0.004183782    0.003556061   -0.001604636
     22        1          -0.001900348    0.000381763   -0.000818084
     23        8           0.045496461   -0.022249157    0.023714603
     24        1          -0.000429401    0.002769554    0.000633743
     25        8          -0.001286945   -0.000855403   -0.000707173
     26        1          -0.000002102    0.000048103   -0.000000040
     27        1           0.001637968    0.000035234    0.000192139
     28        8          -0.004936380    0.004555404    0.000183385
     29        1           0.000521955   -0.001419670   -0.000210094
     30        1          -0.005833183   -0.002894662    0.000800518
 -------------------------------------------------------------------
 Cartesian Forces:  Max     0.058117499 RMS     0.012457233

 GradGradGradGradGradGradGradGradGradGradGradGradGradGradGradGradGradGrad
 Berny optimization.
 FormGI is forming the generalized inverse of G from B-inverse, IUseBI=4.
 Internal  Forces:  Max     0.073575168 RMS     0.008999647
 Search for a local minimum.
 Step number   1 out of a maximum of  180
 All quantities printed in internal units (Hartrees-Bohrs-Radians)
 Mixed Optimization -- RFO/linear search
 Second derivative matrix not updated -- first step.
 ITU=  0
     Eigenvalues ---    0.00279   0.00393   0.00656   0.00705   0.00888
     Eigenvalues ---    0.01280   0.01406   0.01457   0.01460   0.01492
     Eigenvalues ---    0.01677   0.02296   0.02362   0.02896   0.03694
     Eigenvalues ---    0.04341   0.04763   0.04824   0.05008   0.05188
     Eigenvalues ---    0.05351   0.05743   0.05860   0.05947   0.06117
     Eigenvalues ---    0.06333   0.06611   0.06735   0.06848   0.07321
     Eigenvalues ---    0.07338   0.07426   0.08669   0.10320   0.10846
     Eigenvalues ---    0.11198   0.11563   0.12305   0.12921   0.13933
     Eigenvalues ---    0.14599   0.16000   0.16000   0.16000   0.16000
     Eigenvalues ---    0.16053   0.17209   0.17479   0.17840   0.19767
     Eigenvalues ---    0.20197   0.20419   0.20924   0.22068   0.22736
     Eigenvalues ---    0.26100   0.27917   0.28801   0.33573   0.33653
     Eigenvalues ---    0.33912   0.34122   0.34219   0.34394   0.34682
     Eigenvalues ---    0.35518   0.36657   0.38351   0.40831   0.42217
     Eigenvalues ---    0.42839   0.43201   0.43834   0.46657   0.48128
     Eigenvalues ---    0.49747   0.51638   0.52716   0.53214   0.53327
     Eigenvalues ---    0.53578   0.536181000.000001000.000001000.00000
     Eigenvalues --- 1000.000001000.000001000.000001000.000001000.00000
     Eigenvalues --- 1000.000001000.000001000.000001000.000001000.00000
     Eigenvalues --- 1000.000001000.000001000.000001000.000001000.00000
     Eigenvalues --- 1000.000001000.000001000.000001000.000001000.00000
     Eigenvalues --- 1000.000001000.000001000.000001000.000001000.00000
     Eigenvalues --- 1000.000001000.000001000.000001000.000001000.00000
     Eigenvalues --- 1000.000001000.000001000.000001000.000001000.00000
     Eigenvalues --- 1000.000001000.000001000.000001000.000001000.00000
     Eigenvalues --- 1000.000001000.000001000.000001000.000001000.00000
     Eigenvalues --- 1000.000001000.000001000.000001000.000001000.00000
     Eigenvalues --- 1000.000001000.000001000.000001000.000001000.00000
     Eigenvalues --- 1000.000001000.000001000.000001000.000001000.00000
     Eigenvalues --- 1000.000001000.000001000.000001000.000001000.00000
     Eigenvalues --- 1000.000001000.000001000.000001000.000001000.00000
     Eigenvalues --- 1000.000001000.000001000.000001000.000001000.00000
     Eigenvalues --- 1000.000001000.000001000.000001000.000001000.00000
     Eigenvalues --- 1000.000001000.00000
 RFO step:  Lambda=-4.78811381D-02 EMin= 2.78604185D-03
 Linear search not attempted -- first point.
 Maximum step size (   0.300) exceeded in Quadratic search.
    -- Step size scaled by   0.821
 Iteration  1 RMS(Cart)=  0.08222758 RMS(Int)=  0.00217010
 Iteration  2 RMS(Cart)=  0.00273226 RMS(Int)=  0.00044030
 Iteration  3 RMS(Cart)=  0.00000828 RMS(Int)=  0.00044028
 Iteration  4 RMS(Cart)=  0.00000001 RMS(Int)=  0.00044028
 Iteration  1 RMS(Cart)=  0.00002820 RMS(Int)=  0.00001997
 Iteration  2 RMS(Cart)=  0.00002062 RMS(Int)=  0.00002174
 Iteration  3 RMS(Cart)=  0.00001509 RMS(Int)=  0.00002499
 Iteration  4 RMS(Cart)=  0.00001107 RMS(Int)=  0.00002815
 Iteration  5 RMS(Cart)=  0.00000813 RMS(Int)=  0.00003082
 Iteration  6 RMS(Cart)=  0.00000598 RMS(Int)=  0.00003296
 Iteration  7 RMS(Cart)=  0.00000441 RMS(Int)=  0.00003464
 Iteration  8 RMS(Cart)=  0.00000326 RMS(Int)=  0.00003595
 Iteration  9 RMS(Cart)=  0.00000242 RMS(Int)=  0.00003696
 Iteration 10 RMS(Cart)=  0.00000180 RMS(Int)=  0.00003775
 Iteration 11 RMS(Cart)=  0.00000135 RMS(Int)=  0.00003836
 Iteration 12 RMS(Cart)=  0.00000101 RMS(Int)=  0.00003884
 Iteration 13 RMS(Cart)=  0.00000076 RMS(Int)=  0.00003921
 Variable       Old X    -DE/DX   Delta X   Delta X   Delta X     New X
                                 (Linear)    (Quad)   (Total)
    R1        2.71468  -0.00426   0.00000  -0.01349  -0.01272   2.70196
    R2        2.74833   0.00272   0.00000   0.00431   0.00462   2.75295
    R3        3.44517   0.00281   0.00000   0.01552   0.01578   3.46095
    R4        3.11981  -0.02566   0.00000  -0.09642  -0.09649   3.02332
    R5        2.88198   0.00567   0.00000   0.02079   0.02061   2.90258
    R6        2.07124  -0.00027   0.00000  -0.00058  -0.00058   2.07066
    R7        2.67869  -0.01124   0.00000  -0.01937  -0.01937   2.65931
    R8        2.93485  -0.00095   0.00000  -0.00018  -0.00049   2.93435
    R9        2.71780   0.07358   0.00000   0.14252   0.14240   2.86020
   R10        2.06670   0.00356   0.00000   0.00746   0.00746   2.07416
   R11        2.67422  -0.00233   0.00000  -0.00398  -0.00398   2.67024
   R12        2.07480  -0.00012   0.00000  -0.00026  -0.00026   2.07453
   R13        2.70439  -0.00936   0.00000  -0.01684  -0.01684   2.68755
   R14        2.06963  -0.00069   0.00000  -0.00145  -0.00145   2.06818
   R15        2.65673   0.02832   0.00000   0.04718   0.04756   2.70429
   R16        2.07919  -0.00001   0.00000  -0.00003  -0.00003   2.07916
   R17        2.90421   0.00210   0.00000   0.00514   0.00514   2.90935
   R18        2.08056   0.00001   0.00000   0.00002   0.00002   2.08058
   R19        2.06194  -0.00128   0.00000  -0.00267  -0.00267   2.05927
   R20        2.68648   0.00088   0.00000   0.00153   0.00153   2.68801
   R21        1.83350  -0.00003   0.00000  -0.00004  -0.00004   1.83346
   R22        1.83920  -0.00196   0.00000  -0.00279  -0.00279   1.83641
   R23        1.83455   0.00114   0.00000   0.00161   0.00161   1.83616
   R24        1.84948  -0.00262   0.00000  -0.00381  -0.00381   1.84567
   R25        1.89088  -0.01213   0.00000  -0.01776  -0.01784   1.87305
   R26        3.28104  -0.00180   0.00000  -0.01309  -0.01351   3.26753
   R27        1.87651  -0.00477   0.00000  -0.00705  -0.00751   1.86900
   R28        1.83118  -0.00004   0.00000  -0.00005  -0.00005   1.83113
   R29        1.86221   0.00066   0.00000  -0.00023  -0.00008   1.86213
   R30        1.83081  -0.00021   0.00000  -0.00030  -0.00030   1.83051
   R31        3.62069  -0.00908   0.00000  -0.06957  -0.06978   3.55091
    A1        2.06485   0.00542   0.00000   0.00309   0.00285   2.06770
    A2        1.99390  -0.00610   0.00000   0.01208   0.01245   2.00635
    A3        2.07896   0.00110   0.00000   0.00883   0.00776   2.08672
    A4        1.87612   0.00718   0.00000   0.00345   0.00374   1.87986
    A5        1.80998   0.00174   0.00000   0.01698   0.01690   1.82688
    A6        2.11382  -0.01710   0.00000  -0.06910  -0.06881   2.04501
    A7        1.86131  -0.00325   0.00000  -0.01354  -0.01370   1.84761
    A8        1.94436   0.00879   0.00000   0.05388   0.05378   1.99814
    A9        1.83841   0.00290   0.00000   0.00986   0.00956   1.84797
   A10        1.98685  -0.00949   0.00000  -0.01838  -0.01885   1.96800
   A11        1.85318   0.00100   0.00000  -0.02475  -0.02426   1.82892
   A12        1.98287   0.00100   0.00000   0.00938   0.00942   1.99229
   A13        1.81712   0.00837   0.00000   0.03982   0.03986   1.85698
   A14        1.94599   0.00510   0.00000   0.02043   0.02062   1.96660
   A15        1.86260  -0.00533   0.00000  -0.02768  -0.02824   1.83436
   A16        1.95382   0.00977   0.00000   0.01895   0.01869   1.97251
   A17        1.83197   0.00192   0.00000   0.00635   0.00632   1.83829
   A18        2.01499  -0.01308   0.00000  -0.04232  -0.04241   1.97257
   A19        1.88240  -0.00237   0.00000  -0.01278  -0.01261   1.86979
   A20        1.84320   0.00236   0.00000   0.02976   0.03016   1.87336
   A21        1.93532   0.00190   0.00000   0.00036   0.00010   1.93542
   A22        2.03777  -0.01730   0.00000  -0.03527  -0.03438   2.00339
   A23        1.80509   0.00655   0.00000   0.00408   0.00232   1.80741
   A24        1.99295  -0.01622   0.00000  -0.07420  -0.07335   1.91960
   A25        1.99251  -0.00232   0.00000  -0.01755  -0.01834   1.97417
   A26        1.72162   0.03575   0.00000   0.14257   0.14217   1.86380
   A27        1.91914  -0.00763   0.00000  -0.02363  -0.02544   1.89370
   A28        1.99253  -0.00059   0.00000  -0.00205  -0.00216   1.99037
   A29        1.87218  -0.00524   0.00000  -0.02768  -0.02773   1.84445
   A30        1.84495   0.00676   0.00000   0.01947   0.01936   1.86430
   A31        1.86562   0.00714   0.00000   0.00412   0.00410   1.86972
   A32        1.97545  -0.00646   0.00000   0.01276   0.01244   1.98789
   A33        1.91015  -0.00195   0.00000  -0.00973  -0.00957   1.90058
   A34        1.90104  -0.00065   0.00000  -0.00265  -0.00265   1.89839
   A35        1.90833   0.00060   0.00000   0.00332   0.00332   1.91165
   A36        1.95759   0.00080   0.00000   0.00247   0.00247   1.96006
   A37        1.88920   0.00003   0.00000  -0.00014  -0.00014   1.88906
   A38        1.95048  -0.00012   0.00000  -0.00064  -0.00064   1.94984
   A39        1.85534  -0.00067   0.00000  -0.00227  -0.00227   1.85307
   A40        1.88719   0.00022   0.00000   0.00087   0.00087   1.88806
   A41        1.84385  -0.00316   0.00000  -0.01246  -0.01246   1.83139
   A42        1.88443   0.00098   0.00000   0.00388   0.00388   1.88831
   A43        1.85953  -0.00405   0.00000  -0.01598  -0.01598   1.84355
   A44        1.89922   0.01368   0.00000   0.05886   0.06001   1.95923
   A45        2.87423  -0.00261   0.00000  -0.00734  -0.00809   2.86614
   A46        1.92513  -0.00120   0.00000   0.00102   0.00136   1.92649
   A47        1.71711   0.00275   0.00000   0.00314   0.00312   1.72023
   A48        1.83621   0.00029   0.00000   0.00223   0.00193   1.83814
   A49        2.87353   0.00927   0.00000   0.01872   0.01958   2.89311
   A50        1.83737   0.00166   0.00000   0.00069   0.00072   1.83809
   A51        1.85245  -0.00690   0.00000  -0.02259  -0.02346   1.82899
   A52        1.89873   0.00310   0.00000   0.01124   0.01111   1.90983
   A53        2.83662   0.00583   0.00000   0.02155   0.02218   2.85880
    D1       -0.81633  -0.00527   0.00000   0.00760   0.00780  -0.80853
    D2       -3.02018   0.00404   0.00000   0.05069   0.05119  -2.96900
    D3        1.17792   0.01762   0.00000   0.11596   0.11540   1.29333
    D4        2.88265  -0.00619   0.00000  -0.03688  -0.03677   2.84588
    D5        0.67880   0.00311   0.00000   0.00621   0.00662   0.68542
    D6       -1.40628   0.01670   0.00000   0.07148   0.07083  -1.33545
    D7       -0.06511   0.01360   0.00000   0.00000   0.00000  -0.06511
    D8       -2.12857   0.00859   0.00000   0.01479   0.01451  -2.11406
    D9        2.11758   0.00999   0.00000   0.02948   0.02937   2.14695
   D10        2.49161   0.01236   0.00000   0.04760   0.04806   2.53967
   D11        0.42816   0.00735   0.00000   0.06239   0.06257   0.49073
   D12       -1.60888   0.00875   0.00000   0.07707   0.07743  -1.53145
   D13        0.56750   0.00204   0.00000   0.01198   0.01177   0.57927
   D14       -2.01185  -0.00035   0.00000  -0.03093  -0.03166  -2.04352
   D15       -0.87183   0.00131   0.00000  -0.02039  -0.02012  -0.89195
   D16       -2.90921  -0.00191   0.00000  -0.01842  -0.01836  -2.92756
   D17        1.23764   0.00237   0.00000   0.00265   0.00246   1.24010
   D18       -2.83891   0.00134   0.00000  -0.01411  -0.01381  -2.85271
   D19        1.40690  -0.00188   0.00000  -0.01215  -0.01205   1.39486
   D20       -0.72944   0.00240   0.00000   0.00893   0.00878  -0.72066
   D21        1.38976   0.00627   0.00000   0.00018   0.00053   1.39028
   D22       -0.64762   0.00306   0.00000   0.00214   0.00229  -0.64533
   D23       -2.78396   0.00734   0.00000   0.02322   0.02311  -2.76085
   D24        0.84995   0.00164   0.00000   0.03722   0.03731   0.88726
   D25        2.91715  -0.00041   0.00000   0.00436   0.00444   2.92159
   D26       -1.26179  -0.00192   0.00000   0.00276   0.00290  -1.25889
   D27        2.78204   0.00530   0.00000   0.05193   0.05194   2.83398
   D28       -1.43395   0.00325   0.00000   0.01907   0.01907  -1.41488
   D29        0.67030   0.00174   0.00000   0.01748   0.01752   0.68782
   D30       -1.50391   0.01135   0.00000   0.08326   0.08329  -1.42062
   D31        0.56328   0.00930   0.00000   0.05040   0.05043   0.61371
   D32        2.66753   0.00779   0.00000   0.04880   0.04888   2.71641
   D33       -1.18237  -0.00048   0.00000   0.03297   0.03359  -1.14878
   D34        1.04914   0.00327   0.00000   0.02907   0.02822   1.07736
   D35        3.06055   0.00536   0.00000   0.04494   0.04518   3.10573
   D36        0.10891  -0.00692   0.00000   0.00000   0.00001   0.10892
   D37        2.11564  -0.00070   0.00000   0.01036   0.01018   2.12582
   D38       -2.09740   0.00155   0.00000   0.01991   0.01962  -2.07779
   D39        2.09754  -0.00107   0.00000   0.02351   0.02376   2.12130
   D40       -2.17892   0.00515   0.00000   0.03386   0.03393  -2.14499
   D41       -0.10878   0.00740   0.00000   0.04341   0.04337  -0.06541
   D42       -2.14390  -0.00639   0.00000  -0.02095  -0.02070  -2.16460
   D43       -0.13717  -0.00017   0.00000  -0.01059  -0.01053  -0.14770
   D44        1.93297   0.00208   0.00000  -0.00104  -0.00109   1.93188
   D45        0.73947   0.00606   0.00000   0.00886   0.00905   0.74853
   D46        2.84678  -0.00104   0.00000  -0.02943  -0.02931   2.81747
   D47       -1.40265   0.00980   0.00000   0.01843   0.01881  -1.38383
   D48       -1.27052   0.00439   0.00000   0.02325   0.02360  -1.24692
   D49        0.83678  -0.00271   0.00000  -0.01505  -0.01476   0.82202
   D50        2.87055   0.00813   0.00000   0.03282   0.03336   2.90391
   D51        3.01080   0.00369   0.00000   0.02436   0.02421   3.03501
   D52       -1.16508  -0.00341   0.00000  -0.01394  -0.01415  -1.17923
   D53        0.86868   0.00743   0.00000   0.03393   0.03397   0.90265
   D54        1.44605  -0.00176   0.00000   0.01865   0.01838   1.46443
   D55       -0.82734   0.00608   0.00000   0.01766   0.01756  -0.80978
   D56       -2.80089  -0.00339   0.00000  -0.02416  -0.02379  -2.82468
   D57        1.03086  -0.00376   0.00000  -0.01471  -0.01420   1.01666
   D58       -3.08390   0.00200   0.00000   0.00453   0.00404  -3.07986
   D59       -1.04936   0.00148   0.00000   0.00644   0.00642  -1.04294
   D60        1.32145  -0.00084   0.00000  -0.01878  -0.01626   1.30520
   D61       -2.78754  -0.00641   0.00000  -0.00515  -0.00624  -2.79378
   D62       -0.69813   0.00610   0.00000   0.03795   0.03763  -0.66050
   D63        0.88027  -0.00088   0.00000  -0.01127  -0.01145   0.86883
   D64       -1.18098  -0.00090   0.00000  -0.01147  -0.01165  -1.19263
   D65        3.04869  -0.00095   0.00000  -0.01230  -0.01249   3.03620
   D66        3.07352  -0.00093   0.00000   0.00866   0.00885   3.08236
   D67        1.01226  -0.00094   0.00000   0.00846   0.00865   1.02090
   D68       -1.04126  -0.00099   0.00000   0.00763   0.00781  -1.03345
   D69       -1.13090   0.00260   0.00000   0.01539   0.01539  -1.11551
   D70        3.09103   0.00259   0.00000   0.01518   0.01519   3.10622
   D71        1.03752   0.00254   0.00000   0.01435   0.01435   1.05187
   D72       -1.14162   0.00034   0.00000   0.00162   0.00162  -1.13999
   D73        0.99905   0.00000   0.00000  -0.00050  -0.00050   0.99855
   D74        3.05675  -0.00043   0.00000  -0.00239  -0.00239   3.05436
   D75       -0.54810  -0.00593   0.00000  -0.03594  -0.03539  -0.58349
   D76       -2.01370   0.00061   0.00000   0.00824   0.00787  -2.00583
   D77       -0.09894   0.00180   0.00000   0.01240   0.01180  -0.08714
   D78       -1.92914  -0.00001   0.00000   0.00479   0.00463  -1.92451
   D79        0.08237   0.00121   0.00000   0.00790   0.00727   0.08964
   D80        0.04033   0.00143   0.00000  -0.00504  -0.00575   0.03458
   D81        2.02647   0.00122   0.00000  -0.00218  -0.00260   2.02386
   D82       -0.01775  -0.00262   0.00000  -0.01502  -0.01451  -0.03226
   D83        1.95164  -0.00267   0.00000  -0.02018  -0.02027   1.93137
         Item               Value     Threshold  Converged?
 Maximum Force            0.070206     0.000450     NO 
 RMS     Force            0.008661     0.000300     NO 
 Maximum Displacement     0.411000     0.001800     NO 
 RMS     Displacement     0.081866     0.001200     NO 
 Predicted change in Energy=-2.711859D-02
 GradGradGradGradGradGradGradGradGradGradGradGradGradGradGradGradGradGrad

                          Input orientation:                          
 ---------------------------------------------------------------------
 Center     Atomic      Atomic             Coordinates (Angstroms)
 Number     Number       Type             X           Y           Z
 ---------------------------------------------------------------------
      1          8           0        0.512307   -0.630944   -0.551157
      2          6           0       -1.274919    0.064083    1.069747
      3          6           0       -0.380093    1.668063   -0.811737
      4          6           0       -1.603997    1.250081    0.047633
      5          6           0        0.816753    0.765072   -0.604351
      6          6           0       -0.606604   -1.066782    0.273673
      7          1           0       -1.866548    2.110690    0.676578
      8          1           0       -0.180773   -1.769978    1.004922
      9          1           0       -2.254948   -0.321410    1.372405
     10          1           0       -0.703369    1.520434   -1.850209
     11          6           0       -1.570279   -1.832217   -0.651363
     12          1           0       -0.995712   -2.577562   -1.222792
     13          1           0       -2.025698   -1.138273   -1.357419
     14          8           0       -2.643964   -2.430975    0.064186
     15          1           0       -2.275793   -3.113629    0.647080
     16          8           0       -0.050536    3.039070   -0.720136
     17          1           0        0.499478    3.111608    0.077732
     18          8           0       -2.662782    0.934681   -0.847979
     19          1           0       -3.452695    0.725575   -0.322220
     20          8           0       -0.611742    0.408825    2.262097
     21          1           0        0.273115    0.720449    1.990372
     22          1           0        1.553543    0.836437   -1.410473
     23          8           0        1.438570    1.176936    0.616966
     24          1           0        3.711291   -0.941311    0.053597
     25          8           0        2.838487   -2.163670   -0.803049
     26          1           0        2.754481   -2.961695   -0.259867
     27          1           0        1.946893   -1.744291   -0.789177
     28          8           0        3.971629   -0.113850    0.528694
     29          1           0        4.579563    0.344526   -0.070157
     30          1           0        2.380107    0.873632    0.679741
 ---------------------------------------------------------------------
                    Distance matrix (angstroms):
                    1          2          3          4          5
     1  O    0.000000
     2  C    2.510890   0.000000
     3  C    2.479861   2.629344   0.000000
     4  C    2.894053   1.599875   1.552793   0.000000
     5  C    1.429817   2.769311   1.513552   2.553497   0.000000
     6  C    1.456798   1.535980   2.951068   2.532536   2.480435
     7  H    3.831820   2.166381   2.149547   1.097795   3.263675
     8  H    2.049180   2.136619   3.893598   3.473143   3.164063
     9  H    3.384317   1.095748   3.499081   2.156001   3.810952
    10  H    2.791744   3.312668   1.097600   2.118024   2.105589
    11  C    2.406297   2.577869   3.700571   3.160742   3.527895
    12  H    2.552359   3.508843   4.309673   4.078582   3.852363
    13  H    2.710888   2.810777   3.298683   2.802898   3.502765
    14  O    3.685214   3.018402   4.763871   3.825176   4.757964
    15  H    3.920842   3.358311   5.346626   4.455627   5.116077
    16  O    3.716766   3.681486   1.413032   2.490621   2.436527
    17  H    3.795044   3.663330   1.910137   2.809056   2.464169
    18  O    3.552531   2.522257   2.397881   1.422190   3.492175
    19  H    4.196879   2.667930   3.250968   1.956932   4.278941
    20  O    3.202968   1.407249   3.329835   2.568294   3.222427
    21  H    2.888398   1.916970   3.029269   2.752870   2.651438
    22  H    1.993941   3.840341   2.188386   3.502460   1.094433
    23  O    2.343268   2.967571   2.364304   3.096240   1.431051
    24  H    3.270406   5.187068   4.929204   5.749306   3.423885
    25  O    2.797108   5.038884   5.004149   5.666834   3.564326
    26  H    3.247244   5.211456   5.618254   6.068768   4.214529
    27  H    1.831456   4.135926   4.130318   4.719674   2.758311
    28  O    3.660652   5.277373   4.889729   5.760150   3.465478
    29  H    4.210163   5.971012   5.186508   6.250624   3.823736
    30  H    2.695837   3.763867   3.236407   4.051464   2.026020
                    6          7          8          9         10
     6  C    0.000000
     7  H    3.441819   0.000000
     8  H    1.100246   4.243729   0.000000
     9  H    2.116561   2.559324   2.556482   0.000000
    10  H    3.348720   2.843597   4.387675   4.023063   0.000000
    11  C    1.539562   4.171057   2.162841   2.616667   3.664565
    12  H    2.161774   5.132803   2.505798   3.662096   4.156043
    13  H    2.163193   3.836435   3.063243   2.858630   3.010003
    14  O    2.460842   4.648238   2.718310   2.512575   4.800464
    15  H    2.667435   5.240407   2.514470   2.884964   5.493953
    16  O    4.260856   2.471962   5.110747   4.531113   2.002377
    17  H    4.326748   2.637903   5.015207   4.587881   2.774100
    18  O    3.080881   2.083569   4.112031   2.583448   2.277470
    19  H    3.415826   2.330666   4.323721   2.324335   3.244278
    20  O    2.476141   2.642869   2.552138   2.006220   4.260884
    21  H    2.629668   2.870015   2.716496   2.803294   4.042717
    22  H    3.335389   4.204346   3.954160   4.856915   2.398931
[...]
 0047709,-0.00043653,0.00004414,-0.00022431,-0.00030749,-0.00010442,-0.
 00004975,0.00008754,0.00001763,-0.00071846,-0.00065273,-0.00004283,0.0
 0084754,0.00047736,-0.00061778,0.00008507,-0.00020126,0.00045785,-0.00
 719654,0.00088282,-0.00115080,0.08558647,0.33140760,0.00079435,-0.0013
 5176,-0.00084429,0.00028791,0.00025608,0.00030596,-0.00001632,0.000203
 36,-0.00023169,0.00002954,-0.00003986,0.00003429,0.00070619,0.00145931
 ,0.00204986,-0.00022748,-0.00044327,0.00036293,0.00002929,-0.00003083,
 -0.00002028,0.00000726,0.00012553,-0.00000592,0.00001004,-0.00004642,-
 0.00004671,-0.00007723,0.00004804,-0.00003272,-0.00017326,0.00012201,0
 .00007139,-0.00000212,-0.00011838,-0.00006067,-0.00001947,-0.00000261,
 -0.00001765,0.00017872,-0.00000043,-0.00013058,-0.00002641,0.00001621,
 0.00005138,-0.00011114,-0.00024653,-0.00014579,0.00013283,-0.00008982,
 0.00007939,-0.00001274,-0.00006740,-0.00008133,-0.00000834,0.00002982,
 0.00001007,-0.00035778,-0.00010528,-0.00026003,0.00030013,-0.00003619,
 0.00001430,0.00011847,0.00017133,-0.00032394,-0.00242619,0.00049308,-0
 .00117816,0.01651534,0.12307507,0.10945835,-0.01019281,0.01324660,0.00
 198719,-0.00095450,-0.00126627,-0.00055110,0.00113089,0.00017404,0.000
 31794,0.00045369,-0.00032200,0.00012790,-0.00681501,-0.00647832,-0.001
 12059,0.00274863,0.00332029,-0.00242777,-0.00005951,0.00016807,-0.0000
 1117,0.00014187,-0.00040772,-0.00001644,-0.00025020,0.00034313,0.00024
 841,0.00007643,-0.00008176,0.00000668,0.00086117,0.00008283,0.00006456
 ,0.00013085,0.00031954,0.00021306,-0.00002798,0.00000744,0.00004031,-0
 .00112227,-0.00050109,0.00023181,0.00021832,0.00017639,-0.00008576,-0.
 00009206,0.00151737,0.00018988,-0.00018596,-0.00020440,-0.00016032,-0.
 00033714,0.00033744,-0.00009853,0.00017706,-0.00017184,0.00007126,0.00
 042917,0.00064219,0.00065764,-0.00033374,-0.00036689,-0.00016985,0.000
 16129,0.00030962,-0.00027521,0.00489854,0.00111111,0.00195482,-0.00563
 458,0.00973491,-0.00216538,0.44248207,0.01053841,-0.00132177,-0.002232
 51,0.00061885,0.00044356,-0.00034626,-0.00049545,0.00009843,-0.0000901
 8,-0.00057027,-0.00003154,-0.00004684,-0.00042547,0.00133944,-0.000796
 12,-0.00167879,-0.00322420,0.00208225,0.00008202,0.00002062,-0.0000268
 1,0.00009007,0.00028018,-0.00054533,0.00024655,-0.00023092,-0.00020732
 ,0.00006987,-0.00006065,0.00004768,0.00032694,-0.00101401,-0.00103260,
 0.00000005,0.00043931,0.00032694,-0.00007791,0.00002098,-0.00000520,0.
 00027459,0.00074993,0.00043636,0.00002358,-0.00026296,-0.00017162,0.00
 054476,-0.00052198,0.00003010,-0.00030388,0.00045788,0.00005345,0.0004
 4081,0.00019474,0.00022867,-0.00004851,-0.00002565,-0.00008219,0.00045
 250,0.00022052,-0.00015385,-0.00062043,-0.00009404,0.00057337,-0.00004
 866,0.00023174,-0.00024269,0.00255552,-0.00119730,-0.00006285,0.008000
 09,-0.00278822,0.00070537,-0.13741441,0.40912827,0.00081978,-0.0003583
 0,0.00383548,-0.00045226,-0.00029771,-0.00017955,-0.00017474,-0.000186
 98,0.00001814,-0.00018218,-0.00000641,-0.00014159,-0.00042587,-0.00055
 035,-0.00220778,-0.00107334,0.00079416,-0.00002020,0.00000032,-0.00000
 312,0.00004305,-0.00039257,-0.00014676,0.00029661,0.00002390,0.0000459
 9,0.00002796,0.00008950,-0.00005877,0.00006138,0.00031221,-0.00058650,
 -0.00042434,-0.00002420,0.00030936,0.00005294,0.00009324,0.00001852,0.
 00006099,-0.00009969,0.00021466,0.00035831,-0.00005274,-0.00011019,-0.
 00011845,0.00021383,-0.00006827,0.00017254,-0.00016074,0.00022368,-0.0
 0006393,0.00017035,0.00008773,0.00019854,-0.00002864,-0.00001371,-0.00
 004040,0.00054434,-0.00002238,0.00027238,-0.00039605,0.00018600,0.0000
 6654,-0.00018849,-0.00032200,0.00026609,0.00213126,-0.00088462,0.00135
 941,0.00248541,0.00643206,-0.01098771,-0.03720239,-0.25165948,0.256243
 54,-0.00173208,-0.00041190,0.00121291,-0.00016057,-0.00000547,0.000365
 79,-0.00001097,0.00007738,-0.00007001,0.00000924,-0.00000386,-0.000100
 52,0.00035873,0.00033723,0.00005669,-0.00028117,0.00082914,-0.00045424
 ,0.00001135,-0.00006175,0.00001857,-0.00009443,-0.00009861,0.00040841,
 -0.00000652,0.00003081,0.00002472,-0.00000711,0.00000377,0.00000308,-0
 .00037563,0.00011767,0.00027668,-0.00001557,-0.00014923,-0.00019357,0.
 00008271,-0.00001078,0.00000648,0.00027874,-0.00002650,-0.00014513,-0.
 00013405,-0.00000768,0.00006145,-0.00002281,-0.00018803,-0.00000862,0.
 00001278,0.00005859,0.00001523,0.00006734,-0.00012464,0.00002241,-0.00
 005554,0.00005901,-0.00000713,-0.00001415,-0.00019979,-0.00015428,0.00
 004372,0.00011226,0.00003225,-0.00002003,-0.00006206,0.00001128,-0.000
 23938,-0.00019111,-0.00008481,0.00187508,-0.00064978,0.00467469,-0.048
 99008,-0.03128185,0.03815191,0.04575259,-0.00040786,0.00070179,-0.0006
 2115,0.00006833,0.00000528,-0.00002021,0.00011613,-0.00001505,0.000028
 33,0.00011253,0.00001189,0.00008121,-0.00015657,-0.00033517,0.00047907
 ,0.00066917,-0.00007155,0.00001578,-0.00001719,0.00002056,-0.00001181,
 0.00013399,0.00009581,-0.00015861,-0.00005255,0.00002189,0.00001921,-0
 .00001384,0.00001310,-0.00001478,0.00007940,0.00029040,0.00007599,0.00
 003743,-0.00003076,-0.00002714,-0.00002385,-0.00003684,-0.00002779,-0.
 00016596,-0.00020032,-0.00005650,0.00002523,0.00010714,0.00004964,-0.0
 0009755,0.00017220,-0.00002137,0.00005487,-0.00011687,-0.00000128,-0.0
 0012753,-0.00001004,-0.00008538,0.00003364,-0.00000746,0.00002548,-0.0
 0020315,0.00006815,-0.00002551,0.00016814,-0.00012745,-0.00006862,0.00
 004425,-0.00001808,-0.00006774,-0.00032727,0.00041496,-0.00022917,-0.0
 0059151,-0.00412600,0.00375027,0.01015296,-0.28580935,0.23433845,-0.00
 262104,0.30309787,0.00028177,-0.00042945,-0.00035508,0.00009576,0.0000
 8425,0.00007860,-0.00004141,0.00001417,-0.00000729,0.00004291,0.000010
 56,0.00006692,0.00018179,0.00021709,0.00026182,0.00018261,-0.00026292,
 0.00034377,-0.00000265,0.00000006,-0.00001269,0.00007960,0.00010353,-0
 .00008443,-0.00000526,-0.00000239,-0.00000507,-0.00000865,0.00001031,-
 0.00001141,-0.00018894,0.00029798,0.00015824,0.00000812,-0.00013278,-0
 .00007613,-0.00001283,-0.00003787,-0.00004575,0.00010100,-0.00008940,-
 0.00016348,0.00001000,0.00005159,0.00007902,-0.00001402,-0.00001291,-0
 .00003150,0.00001836,-0.00002854,0.00001840,-0.00004803,-0.00003972,-0
 .00007134,0.00000851,0.00001095,0.00001613,-0.00016549,0.00005373,-0.0
 0016739,0.00008385,-0.00011351,0.00006081,0.00001752,-0.00001247,-0.00
 005846,-0.00014992,0.00011024,-0.00026494,0.00166234,-0.00009750,0.003
 38099,0.00307194,0.25504191,-0.22079004,-0.00975002,-0.25151680,0.2210
 0107,-0.00443586,-0.00575283,-0.00061134,0.00150347,0.00160573,0.00046
 391,-0.00175581,-0.00054215,-0.00031887,-0.00069109,0.00041011,-0.0001
 2316,0.01025983,0.00820954,0.00012199,-0.00453684,-0.00468052,0.003287
 95,0.00006855,-0.00017582,0.00001241,0.00044760,0.00060460,-0.00037586
 ,0.00038683,-0.00049890,-0.00036767,-0.00004814,0.00007127,0.00001087,
 -0.00102088,-0.00030463,-0.00036519,-0.00016845,-0.00036453,-0.0001248
 9,-0.00000417,-0.00001406,-0.00007176,0.00134015,0.00077097,-0.0001625
 8,-0.00016978,-0.00029135,0.00003312,0.00030467,-0.00190779,-0.0001842
 9,0.00015079,0.00027354,0.00019248,0.00045774,-0.00028841,0.00015847,-
 0.00018902,0.00016456,-0.00010367,-0.00049274,-0.00056955,-0.00076149,
 0.00032365,0.00027866,0.00030948,-0.00038717,-0.00067870,0.00058215,-0
 .00461928,-0.00153020,-0.00233820,-0.00781827,-0.00553452,-0.00269036,
 -0.37460030,0.16218226,0.00252415,0.00450060,-0.00693798,0.00557758,0.
 37639329,-0.00496194,-0.00504495,0.00292878,-0.00152501,-0.00134994,0.
 00018048,0.00070898,-0.00021247,0.00050163,0.00069777,-0.00011502,0.00
 004198,-0.00109799,-0.00767067,-0.00105704,0.00271329,0.00650386,-0.00
 361632,-0.00012112,0.00004524,0.00004365,-0.00042583,-0.00058090,0.001
 01829,-0.00041067,0.00050378,0.00039343,0.00002140,-0.00000705,-0.0000
 1111,-0.00035690,0.00139117,0.00157546,0.00000343,-0.00059475,-0.00044
 563,0.00014595,-0.00003962,0.00002094,-0.00056321,-0.00106360,-0.00051
 625,-0.00000831,0.00031183,0.00016963,-0.00038897,0.00118413,0.0000959
 8,0.00008684,-0.00041427,-0.00013440,-0.00051688,-0.00007461,-0.000236
 01,0.00009939,-0.00003287,0.00010830,-0.00000406,0.00008906,0.00044196
 ,0.00026714,-0.00008862,-0.00056043,-0.00003998,-0.00025653,0.00031686
 ,0.00178602,0.00155435,0.00163701,-0.00371208,0.00825649,0.00119931,0.
 11981226,-0.10123144,0.02254338,0.03519888,-0.01453954,-0.00169611,-0.
 14670475,0.11819047,-0.00022283,0.00212718,-0.00483640,0.00052384,0.00
 029819,-0.00017892,0.00050861,0.00034032,0.00022641,0.00018739,-0.0000
 0695,0.00014077,-0.00115135,-0.00127879,0.00160661,0.00220759,-0.00128
 084,-0.00081018,-0.00001092,0.00003600,-0.00005320,0.00032937,0.000081
 81,-0.00033595,-0.00002140,-0.00006561,-0.00001858,-0.00004166,0.00001
 865,-0.00006516,-0.00040816,0.00071322,0.00062006,0.00004762,-0.000371
 93,-0.00001204,-0.00014777,-0.00000646,-0.00005227,0.00002881,-0.00026
 764,-0.00039166,0.00008732,0.00010420,0.00008823,-0.00020931,0.0003977
 1,-0.00011700,0.00006371,-0.00019897,0.00000554,-0.00016276,-0.0000520
 8,-0.00016809,0.00003306,-0.00000502,0.00003285,-0.00038100,0.00013694
 ,-0.00011708,0.00021515,-0.00026246,-0.00008028,0.00017222,0.00064858,
 -0.00029924,-0.00033745,0.00079375,-0.00093157,-0.00378928,0.00019185,
 0.00042061,0.03973870,0.00689915,-0.03068004,-0.03237471,0.01560505,-0
 .00142601,-0.00588548,-0.02356481,0.03773014,-0.00248005,-0.00293958,-
 0.00025714,0.00036256,0.00021011,0.00030742,0.00013093,-0.00072489,-0.
 00091102,0.00084172,0.00019031,0.00002842,0.00430708,0.00496580,0.0073
 4508,0.00150047,0.00083201,-0.00108504,-0.00012629,0.00000662,0.000063
 74,-0.00015748,-0.00018141,0.00019931,-0.00021005,-0.00000985,0.000060
 18,-0.00040906,0.00038335,-0.00013058,0.00040009,0.00041703,0.00025992
 ,0.00001429,-0.00006792,-0.00003513,-0.00000113,0.00002783,0.00003758,
 -0.00068819,-0.00055808,-0.00003596,0.00014189,0.00019833,0.00001659,-
 0.00093037,0.00092783,-0.00061279,0.00054493,-0.00186184,0.00025258,-0
 .00071700,-0.00005461,-0.00027741,0.00012578,-0.00008030,0.00008824,-0
 .00142657,-0.00058729,0.00090387,0.00152306,0.00065730,-0.00208255,0.0
 0018537,-0.00052161,-0.00015177,-0.02782388,0.01191442,0.00092487,-0.0
 5462828,-0.09425063,-0.02883482,0.00121442,-0.01067569,-0.00375619,-0.
 00132887,-0.00022673,-0.00106678,0.00095081,0.00194252,0.00087908,0.25
 814637,-0.00069245,0.00505624,0.00042479,-0.00036843,-0.00061012,-0.00
 049964,-0.00010293,0.00000523,0.00081150,-0.00044663,-0.00023572,0.000
 07344,-0.00346566,-0.00670709,-0.00514406,-0.00001173,0.00007016,0.000
 23192,0.00003054,0.00010631,-0.00002966,0.00017893,0.00016139,-0.00027
 819,0.00004652,0.00011580,0.00001507,0.00029609,-0.00024336,0.00010879
 ,0.00020433,-0.00027721,-0.00031493,-0.00000327,0.00023832,0.00015338,
 -0.00003698,-0.00005588,-0.00004047,-0.00009107,0.00023731,0.00021366,
 0.00005156,-0.00009064,-0.00007495,0.00083111,0.00049539,0.00022695,-0
 .00076904,0.00066276,-0.00008492,0.00033928,0.00034095,0.00013742,0.00
 003269,-0.00007840,-0.00003461,0.00099340,0.00096303,-0.00035963,-0.00
 096352,-0.00092148,0.00123823,-0.00045803,0.00003957,0.00002592,0.0182
 8124,0.00281522,0.00051983,-0.06844076,-0.31191001,-0.16240113,-0.0154
 8082,-0.01650606,-0.00940856,-0.00092867,0.00062656,-0.00148401,0.0044
 3074,-0.00466125,0.00007695,0.21473144,0.47662310,-0.00097951,0.001079
 11,0.00107218,-0.00034106,-0.00029151,-0.00043760,0.00002543,-0.000304
 85,0.00090192,-0.00002795,0.00017312,-0.00008515,0.00099920,-0.0017045
 8,-0.00382291,0.00043187,0.00041100,-0.00041652,-0.00007106,0.00003570
 ,0.00004615,-0.00004386,-0.00014806,0.00004456,-0.00001194,0.00004743,
 0.00006562,0.00019132,-0.00012583,0.00004758,0.00017041,-0.00005371,-0
 .00002518,-0.00000004,0.00010381,0.00004983,0.00002595,0.00000112,0.00
 001788,-0.00022943,-0.00004964,0.00012765,0.00003422,-0.00000194,-0.00
 004975,0.00003129,0.00038282,0.00032088,-0.00012441,0.00013665,-0.0002
 8170,-0.00004000,0.00004286,0.00010887,0.00000321,-0.00003014,-0.00001
 699,0.00038611,0.00013952,0.00042895,-0.00041602,0.00001391,-0.0001686
 5,0.00018246,-0.00013146,0.00158330,0.00698369,-0.00239647,0.00627204,
 -0.00618002,-0.11588785,-0.11323127,-0.00412168,-0.00822672,0.00442899
 ,-0.00225455,-0.00182236,-0.00217881,0.00180052,-0.00080357,-0.0007937
 0,-0.17715985,0.01987555,0.36209239,0.00046643,0.00044666,-0.00032946,
 0.00004538,0.00001795,0.00006593,-0.00002242,0.00019676,-0.00029813,-0
 .00010010,-0.00012771,0.00002606,-0.00104157,-0.00051193,0.00104407,-0
 .00031871,-0.00014123,0.00020889,0.00004867,-0.00000280,-0.00002777,0.
 00005134,0.00006538,-0.00005187,0.00003267,-0.00000241,-0.00002872,-0.
 00002703,0.00001473,0.00000427,-0.00009148,-0.00008105,-0.00004706,-0.
 00000334,0.00000151,0.00000259,-0.00000806,-0.00000677,-0.00000996,0.0
 0015660,0.00011509,-0.00000925,-0.00003098,-0.00003905,0.00000049,0.00
 020809,-0.00013391,-0.00012856,-0.00016614,0.00008132,0.00014105,0.000
 15448,0.00002713,0.00002401,-0.00001726,0.00001349,-0.00001118,0.00009
 866,0.00003836,-0.00016227,-0.00012548,-0.00006123,0.00022387,-0.00016
 821,0.00002297,-0.00073400,-0.00074700,0.00203199,-0.00116726,-0.00675
 582,-0.00255728,0.01065715,0.00003790,0.00058382,-0.00061611,0.0002664
 8,0.00002916,0.00003120,-0.00015452,-0.00032785,0.00025157,-0.17756181
 ,-0.13873851,0.18562182,0.18680301,0.00015825,-0.00020516,0.00006392,-
 0.00004619,0.00002420,-0.00002853,0.00010115,0.00028544,0.00013062,-0.
 00002877,0.00000673,-0.00000050,0.00011129,0.00004371,-0.00059531,-0.0
 0009572,-0.00006748,0.00005661,0.00001047,-0.00001112,-0.00001020,-0.0
 0000321,-0.00001308,0.00000768,0.00001480,-0.00000984,0.00000340,0.000
 04160,-0.00005000,0.00000597,-0.00004518,0.00000098,0.00001246,0.00000
 390,-0.00001722,-0.00000782,0.00000199,0.00000795,0.00000437,0.0000522
 2,0.00000998,-0.00001841,-0.00001331,-0.00000194,0.00000620,-0.0001304
 7,-0.00028793,0.00011726,0.00013969,0.00023824,-0.00011908,0.00001832,
 -0.00005439,0.00001568,-0.00001795,0.00002205,-0.00000415,0.00010069,-
 0.00004720,-0.00002594,-0.00012183,0.00004423,0.00008693,0.00005663,0.
 00015469,0.00014725,0.00317329,-0.00266374,0.00085800,-0.02500918,-0.0
 1422632,0.03532508,-0.00007517,-0.00140374,-0.00243755,0.00015983,0.00
 029665,0.00012392,-0.00012956,0.00020227,0.00015855,-0.11824136,-0.133
 25920,0.10678226,0.14343351,0.14531094,0.00009726,0.00006643,-0.000222
 22,0.00003243,0.00002734,0.00005155,0.00006221,0.00013896,-0.00002863,
 -0.00002020,-0.00004309,0.00001923,-0.00009717,-0.00018591,0.00079544,
 -0.00009567,-0.00002856,0.00004980,0.00002253,-0.00000548,-0.00001587,
 0.00001585,0.00001740,-0.00001947,0.00000749,-0.00000066,-0.00000978,-
 0.00002126,-0.00000760,-0.00001290,-0.00003379,-0.00002414,0.00000417,
 0.00000367,-0.00000806,0.00000081,-0.00000707,0.00000329,-0.00000049,0
 .00005356,0.00002961,-0.00002067,-0.00000957,-0.00000805,0.00000482,0.
 00001660,-0.00010507,-0.00008253,0.00004057,0.00005235,0.00006571,0.00
 003286,-0.00000416,-0.00001408,-0.00000448,0.00000823,-0.00000023,-0.0
 0001094,-0.00004011,-0.00005776,-0.00003187,0.00004029,0.00004645,-0.0
 0003045,0.00001488,-0.00021169,-0.00113816,0.00041343,0.00000492,-0.01
 195649,-0.01110667,0.01157795,-0.00095205,-0.00131690,-0.00184894,0.00
 020750,0.00015770,0.00008090,0.00013542,-0.00006792,0.00031517,0.21158
 517,0.15051919,-0.24734980,-0.19864968,-0.13834989,0.23807639,0.002956
 25,0.00764735,0.00204255,-0.00087249,-0.00069587,-0.00080437,0.0006617
 5,-0.00004056,-0.00010838,-0.00115610,-0.00033279,-0.00002933,-0.02201
 536,-0.00509800,-0.01523456,-0.00215281,-0.00086149,0.00150072,0.00016
 966,0.00005659,-0.00008867,0.00031865,0.00025938,-0.00039200,0.0003039
 4,0.00005430,-0.00005122,0.00058269,-0.00039869,0.00038988,-0.00034503
 ,-0.00066300,-0.00054164,-0.00001846,0.00023907,0.00014024,-0.00000841
 ,-0.00005514,-0.00006220,0.00079169,0.00081572,0.00018941,-0.00013891,
 -0.00029100,-0.00006653,0.00227912,-0.00168373,0.00206691,-0.00149447,
 0.00424894,-0.00094088,0.00103671,0.00020532,0.00048130,-0.00014072,0.
 00006971,-0.00012753,0.00300701,0.00125317,-0.00118519,-0.00431471,-0.
 00121144,0.00407983,0.00212298,0.00060965,0.00408810,-0.31876324,0.111
 21851,-0.00151616,0.00968130,0.00972255,0.00270712,-0.00556618,-0.0033
 8938,-0.00233400,0.00022963,0.00024537,-0.00000088,0.00400433,-0.00231
 829,-0.00012997,-0.00190071,-0.00944934,-0.00488613,-0.00102977,-0.003
 61974,0.00074572,0.33177166,0.00008035,-0.00458578,-0.00066941,0.00066
 833,0.00068526,0.00057165,0.00060876,-0.00148237,-0.00262020,0.0006731
 4,0.00001336,-0.00011611,-0.01275677,0.01037641,0.00434062,-0.00027411
 ,-0.00001934,-0.00009081,-0.00003496,-0.00005617,0.00005690,-0.0001941
 3,-0.00023874,0.00016600,-0.00005849,-0.00010300,-0.00000255,-0.000496
 45,0.00047879,-0.00022584,0.00005922,0.00009398,0.00013669,-0.00001328
 ,-0.00011272,-0.00006780,0.00003325,0.00006438,0.00004451,-0.00004676,
 -0.00016171,-0.00008885,-0.00000805,0.00006342,0.00002678,0.00056692,0
 .00003627,0.00168087,0.00060946,0.00112981,-0.00061891,-0.00031368,-0.
 00017526,-0.00014218,0.00001126,0.00002449,0.00004771,-0.00218700,-0.0
 0136041,0.00161983,0.00116989,0.00135225,-0.00291769,0.00013928,-0.000
 85076,-0.00207851,0.12512101,-0.07345413,-0.01453127,0.00473422,-0.005
 92090,-0.00199994,0.00131448,0.00209822,0.00192766,0.00003820,-0.00049
 979,-0.00017392,-0.00209570,-0.00025456,-0.00126653,-0.00642309,-0.013
 00091,0.00275385,-0.00438810,0.00567031,-0.00018683,-0.10653718,0.0801
 8960,0.00162801,-0.00104549,-0.00023345,-0.00054720,-0.00019947,-0.000
 49091,-0.00270755,-0.00270625,-0.00613544,0.00003850,0.00013351,-0.000
 29412,-0.03779327,0.01499223,-0.00185113,0.00009301,-0.00024877,0.0002
 4123,-0.00005777,0.00002389,0.00005324,0.00005133,0.00011360,-0.000075
 99,0.00006202,-0.00002069,0.00005082,-0.00131763,0.00108549,0.00001022
 ,-0.00008869,0.00008683,-0.00007384,0.00001257,-0.00002274,0.00001316,
 -0.00001836,0.00000207,-0.00000305,0.00007276,0.00002089,-0.00002140,-
 0.00000192,-0.00000022,0.00002075,0.00031968,-0.00058267,0.00021672,0.
 00010655,0.00040006,-0.00020471,-0.00009097,-0.00010216,0.00010621,-0.
 00005455,-0.00002572,0.00004145,0.00193824,0.00153803,-0.00190895,0.00
 001201,-0.00243513,0.00333036,-0.00025541,0.00054227,-0.00018381,0.029
 52980,-0.02637414,-0.04752399,0.00182976,-0.00325590,-0.00021874,0.000
 43614,0.00082021,-0.00025992,0.00004752,0.00015002,0.00020314,-0.00072
 571,-0.00050746,0.00018098,-0.00655502,0.00550219,-0.00875075,0.003968
 29,-0.00230875,-0.00119824,0.01006786,0.01442428,0.06496015\\0.0037509
 3,-0.00072122,0.00514164,0.00282592,0.00203778,0.00521904,0.00216815,0
 .00409868,0.00532151,-0.00191881,-0.00439929,-0.00512312,-0.00329380,-
 0.00189431,-0.00583266,-0.00351969,0.00086906,-0.00473630,0.00000269,-
 0.00000135,-0.00000008,0.00000176,0.00000340,0.00000131,0.00000302,0.0
 0000400,0.00000506,-0.00000321,-0.00000026,0.00000127,-0.00000135,0.00
 000029,0.00000333,-0.00000560,0.00000024,0.00000441,-0.00000382,0.0000
 0134,0.00000543,-0.00000246,0.00000296,0.00000666,-0.00000074,0.000002
 82,0.00000648,0.00000321,-0.00000431,-0.00000375,0.00000202,0.00000088
 ,-0.00000228,-0.00001277,-0.00000034,-0.00000175,-0.00000275,0.0000004
 1,0.00000797,0.00000811,0.00000782,0.00001604,0.00000503,0.00000160,-0
 .00000574,-0.00000013,0.00000203,-0.00000361,0.00000484,0.00001119,0.0
 0000870,0.00000293,-0.00001410,-0.00000124,-0.00000030,-0.00001788,-0.
 00000600,-0.00000299,-0.00000364,-0.00000530,-0.00000921,0.00002151,0.
 00000170,-0.00000616,0.00000267,-0.00001383,-0.00000143,-0.00000268,-0
 .00000955,0.00000663,-0.00000932,-0.00000534\\\@


 ALL PAPERS THAT YOU SAVE WILL NEVER BE NEEDED UNTIL
 SUCH TIME AS THEY ARE DISPOSED OF, WHEN THEY BECOME
 ESSENTIAL.

           -- JOHN CORCORAN IN
              PAUL DICKSON'S "THE OFFICIAL RULES"
 Job cpu time:       0 days  1 hours 18 minutes 55.7 seconds.
 File lengths (MBytes):  RWF=    334 Int=      0 D2E=      0 Chk=      7 Scr=      2
 Normal termination of Gaussian 09 at Sun Jan 22 20:13:02 2017.
