Entering Gaussian System, Link 0=g09
 Initial command:
 /global/software/gaussian/g09.e01/l1.exe "//home/aalrawas/scratch/Gau-15496.inp" -scrdir="//home/aalrawas/scratch/"
 Entering Link 1 = /global/software/gaussian/g09.e01/l1.exe PID=     15497.

 Copyright (c) 1988,1990,1992,1993,1995,1998,2003,2009,2015,
            Gaussian, Inc.  All Rights Reserved.

 This is part of the Gaussian(R) 09 program.  It is based on
 the Gaussian(R) 03 system (copyright 2003, Gaussian, Inc.),
 the Gaussian(R) 98 system (copyright 1998, Gaussian, Inc.),
 the Gaussian(R) 94 system (copyright 1995, Gaussian, Inc.),
 the Gaussian 92(TM) system (copyright 1992, Gaussian, Inc.),
 the Gaussian 90(TM) system (copyright 1990, Gaussian, Inc.),
 the Gaussian 88(TM) system (copyright 1988, Gaussian, Inc.),
 the Gaussian 86(TM) system (copyright 1986, Carnegie Mellon
 University), and the Gaussian 82(TM) system (copyright 1983,
 Carnegie Mellon University). Gaussian is a federally registered
 trademark of Gaussian, Inc.

 This software contains proprietary and confidential information,
 including trade secrets, belonging to Gaussian, Inc.

 This software is provided under written license and may be
 used, copied, transmitted, or stored only in accord with that
 written license.

 The following legend is applicable only to US Government
 contracts under FAR:

                    RESTRICTED RIGHTS LEGEND

 Use, reproduction and disclosure by the US Government is
 subject to restrictions as set forth in subparagraphs (a)
 and (c) of the Commercial Computer Software - Restricted
 Rights clause in FAR 52.227-19.

 Gaussian, Inc.
 340 Quinnipiac St., Bldg. 40, Wallingford CT 06492


 ---------------------------------------------------------------
 Warning -- This program may not be used in any manner that
 competes with the business of Gaussian, Inc. or will provide
 assistance to any competitor of Gaussian, Inc.  The licensee
 of this program is prohibited from giving any competitor of
 Gaussian, Inc. access to this program.  By using this program,
 the user acknowledges that Gaussian, Inc. is engaged in the
 business of creating and licensing software in the field of
 computational chemistry and represents and warrants to the
 licensee that it is not a competitor of Gaussian, Inc. and that
 it will not use this program in any manner prohibited above.
 ---------------------------------------------------------------


 Cite this work as:
 Gaussian 09, Revision E.01,
 M. J. Frisch, G. W. Trucks, H. B. Schlegel, G. E. Scuseria,
 M. A. Robb, J. R. Cheeseman, G. Scalmani, V. Barone, B. Mennucci,
 G. A. Petersson, H. Nakatsuji, M. Caricato, X. Li, H. P. Hratchian,
 A. F. Izmaylov, J. Bloino, G. Zheng, J. L. Sonnenberg, M. Hada,
 M. Ehara, K. Toyota, R. Fukuda, J. Hasegawa, M. Ishida, T. Nakajima,
 Y. Honda, O. Kitao, H. Nakai, T. Vreven, J. A. Montgomery, Jr.,
 J. E. Peralta, F. Ogliaro, M. Bearpark, J. J. Heyd, E. Brothers,
 K. N. Kudin, V. N. Staroverov, T. Keith, R. Kobayashi, J. Normand,
 K. Raghavachari, A. Rendell, J. C. Burant, S. S. Iyengar, J. Tomasi,
 M. Cossi, N. Rega, J. M. Millam, M. Klene, J. E. Knox, J. B. Cross,
 V. Bakken, C. Adamo, J. Jaramillo, R. Gomperts, R. E. Stratmann,
 O. Yazyev, A. J. Austin, R. Cammi, C. Pomelli, J. W. Ochterski,
 R. L. Martin, K. Morokuma, V. G. Zakrzewski, G. A. Voth,
 P. Salvador, J. J. Dannenberg, S. Dapprich, A. D. Daniels,
 O. Farkas, J. B. Foresman, J. V. Ortiz, J. Cioslowski,
 and D. J. Fox, Gaussian, Inc., Wallingford CT, 2013.

 ******************************************
 Gaussian 09:  ES64L-G09RevE.01 30-Nov-2015
                16-Jan-2017
 ******************************************
 %NPROCS=16
 Will use up to   16 processors via shared memory.
 ------------------------------------------------------
 # opt=(modredundant,MaxCycle=1000) freq B3LYP/6-31G(d)
 ------------------------------------------------------
 1/6=1000,14=-1,18=120,19=15,26=3,38=1/1,3;
 2/9=110,12=2,17=6,18=5,40=1/2;
 3/5=1,6=6,7=1,11=2,16=1,25=1,30=1,71=1,74=-5/1,2,3;
 4//1;
 5/5=2,38=5/2;
 6/7=2,8=2,9=2,10=2,28=1/1;
 7//1,2,3,16;
 1/6=1000,14=-1,18=20,19=15,26=3/3(2);
 2/9=110/2;
 99//99;
 2/9=110/2;
 3/5=1,6=6,7=1,11=2,16=1,25=1,30=1,71=1,74=-5/1,2,3;
 4/5=5,16=3,69=1/1;
 5/5=2,38=5/2;
 7//1,2,3,16;
 1/6=1000,14=-1,18=20,19=15,26=3/3(-5);
 2/9=110/2;
 6/7=2,8=2,9=2,10=2,19=2,28=1/1;
 99/9=1/99;
 -------------------
 Title Card Required
 -------------------
 Symbolic Z-matrix:
 Charge =  0 Multiplicity = 1
 H                    -1.7263    0.21099   1.53249
 C                    -1.17536  -0.15066   0.65528
 C                     1.01099   1.01964   0.16145
 C                     0.92302  -1.49816   0.35774
 C                     1.59572  -0.29894  -0.32924
 O                    -0.20388  -1.10649   1.17824
 C                    -0.50266   1.04857  -0.03169
 H                     1.63488  -2.01433   1.01161
 H                     1.49388  -0.3753   -1.41886
 H                    -0.71972   1.0625   -1.10713
 C                    -2.18696  -0.84006  -0.26503
 H                    -2.63174  -1.70411   0.23997
 H                    -1.71463  -1.19773  -1.18484
 O                     0.46175  -2.43027  -0.61078
 H                     0.48086  -3.29324  -0.16324
 H                     1.27507   1.19506   1.21195
 O                    -3.22221   0.07518  -0.61718
 H                    -3.86227  -0.42418  -1.15628
 O                     3.01406  -0.29628  -0.08215
 H                     3.31832   0.5787   -0.39902
 O                     1.61733   2.10157  -0.57104
 H                     1.08337   2.88772  -0.33377
 O                    -1.00373   2.29609   0.47406
 H                    -1.9695    2.27871   0.32175
 O                    -1.11625  -3.53205   2.27334
 H                    -0.863    -2.622     1.98717
 H                    -0.70308  -3.65309   3.14158
 O                     0.05226  -5.02755   0.12757
 H                    -0.47233  -4.54321   0.81423
 H                    -0.61006  -5.43208  -0.45224

 Add virtual bond connecting atoms O28        and H15        Dist= 3.42D+00.
 Add virtual bond connecting atoms H29        and H15        Dist= 3.50D+00.
 Add virtual bond connecting atoms O25        and H29        Dist= 3.57D+00.
 Add virtual bond connecting atoms H26        and O6         Dist= 3.48D+00.
 The following ModRedundant input section has been read:
 D       6       4       5       3 F
 D       6       2       7       3 F


 GradGradGradGradGradGradGradGradGradGradGradGradGradGradGradGradGradGrad
 Berny optimization.
 Initialization pass.
                           ----------------------------
                           !    Initial Parameters    !
                           ! (Angstroms and Degrees)  !
 --------------------------                            --------------------------
 ! Name  Definition              Value          Derivative Info.                !
 --------------------------------------------------------------------------------
 ! R1    R(1,2)                  1.0972         estimate D2E/DX2                !
 ! R2    R(2,6)                  1.4597         estimate D2E/DX2                !
 ! R3    R(2,7)                  1.5371         estimate D2E/DX2                !
 ! R4    R(2,11)                 1.5315         estimate D2E/DX2                !
 ! R5    R(3,5)                  1.5236         estimate D2E/DX2                !
 ! R6    R(3,7)                  1.5262         estimate D2E/DX2                !
 ! R7    R(3,16)                 1.0973         estimate D2E/DX2                !
 ! R8    R(3,21)                 1.4404         estimate D2E/DX2                !
 ! R9    R(4,5)                  1.5371         estimate D2E/DX2                !
 ! R10   R(4,6)                  1.4479         estimate D2E/DX2                !
 ! R11   R(4,8)                  1.0958         estimate D2E/DX2                !
 ! R12   R(4,14)                 1.4211         estimate D2E/DX2                !
 ! R13   R(5,9)                  1.097          estimate D2E/DX2                !
 ! R14   R(5,19)                 1.4397         estimate D2E/DX2                !
 ! R15   R(6,26)                 1.84           estimate D2E/DX2                !
 ! R16   R(7,10)                 1.0972         estimate D2E/DX2                !
 ! R17   R(7,23)                 1.4364         estimate D2E/DX2                !
 ! R18   R(11,12)                1.0952         estimate D2E/DX2                !
 ! R19   R(11,13)                1.0941         estimate D2E/DX2                !
 ! R20   R(11,17)                1.426          estimate D2E/DX2                !
 ! R21   R(14,15)                0.9723         estimate D2E/DX2                !
 ! R22   R(15,28)                1.81           estimate D2E/DX2                !
 ! R23   R(15,29)                1.8511         estimate D2E/DX2                !
 ! R24   R(17,18)                0.9745         estimate D2E/DX2                !
 ! R25   R(19,20)                0.9791         estimate D2E/DX2                !
 ! R26   R(21,22)                0.9795         estimate D2E/DX2                !
 ! R27   R(23,24)                0.9779         estimate D2E/DX2                !
 ! R28   R(25,26)                0.987          estimate D2E/DX2                !
 ! R29   R(25,27)                0.9691         estimate D2E/DX2                !
 ! R30   R(25,29)                1.8884         estimate D2E/DX2                !
 ! R31   R(28,29)                0.9906         estimate D2E/DX2                !
 ! R32   R(28,30)                0.9688         estimate D2E/DX2                !
 ! A1    A(1,2,6)              105.2828         estimate D2E/DX2                !
 ! A2    A(1,2,7)              108.6583         estimate D2E/DX2                !
 ! A3    A(1,2,11)             107.2854         estimate D2E/DX2                !
 ! A4    A(6,2,7)              112.3164         estimate D2E/DX2                !
 ! A5    A(6,2,11)             111.1071         estimate D2E/DX2                !
 ! A6    A(7,2,11)             111.8209         estimate D2E/DX2                !
 ! A7    A(5,3,7)              110.8717         estimate D2E/DX2                !
 ! A8    A(5,3,16)             110.7517         estimate D2E/DX2                !
 ! A9    A(5,3,21)             108.949          estimate D2E/DX2                !
 ! A10   A(7,3,16)             110.9043         estimate D2E/DX2                !
 ! A11   A(7,3,21)             109.8098         estimate D2E/DX2                !
 ! A12   A(16,3,21)            105.3939         estimate D2E/DX2                !
 ! A13   A(5,4,6)              112.509          estimate D2E/DX2                !
 ! A14   A(5,4,8)              110.4811         estimate D2E/DX2                !
 ! A15   A(5,4,14)             110.4376         estimate D2E/DX2                !
 ! A16   A(6,4,8)              107.1498         estimate D2E/DX2                !
 ! A17   A(6,4,14)             108.1197         estimate D2E/DX2                !
 ! A18   A(8,4,14)             107.9733         estimate D2E/DX2                !
 ! A19   A(3,5,4)              111.3037         estimate D2E/DX2                !
 ! A20   A(3,5,9)              110.1513         estimate D2E/DX2                !
 ! A21   A(3,5,19)             108.7366         estimate D2E/DX2                !
 ! A22   A(4,5,9)              110.4251         estimate D2E/DX2                !
 ! A23   A(4,5,19)             110.8482         estimate D2E/DX2                !
 ! A24   A(9,5,19)             105.1914         estimate D2E/DX2                !
 ! A25   A(2,6,4)              119.4764         estimate D2E/DX2                !
 ! A26   A(2,6,26)             117.2852         estimate D2E/DX2                !
 ! A27   A(4,6,26)             107.7654         estimate D2E/DX2                !
 ! A28   A(2,7,3)              111.2664         estimate D2E/DX2                !
 ! A29   A(2,7,10)             111.1857         estimate D2E/DX2                !
 ! A30   A(2,7,23)             111.5668         estimate D2E/DX2                !
 ! A31   A(3,7,10)             108.692          estimate D2E/DX2                !
 ! A32   A(3,7,23)             108.5346         estimate D2E/DX2                !
 ! A33   A(10,7,23)            105.3715         estimate D2E/DX2                !
 ! A34   A(2,11,12)            110.2613         estimate D2E/DX2                !
 ! A35   A(2,11,13)            111.542          estimate D2E/DX2                !
 ! A36   A(2,11,17)            109.8167         estimate D2E/DX2                !
 ! A37   A(12,11,13)           107.762          estimate D2E/DX2                !
 ! A38   A(12,11,17)           108.9905         estimate D2E/DX2                !
 ! A39   A(13,11,17)           108.398          estimate D2E/DX2                !
 ! A40   A(4,14,15)            105.1927         estimate D2E/DX2                !
 ! A41   A(14,15,28)           156.8875         estimate D2E/DX2                !
 ! A42   A(14,15,29)           146.3332         estimate D2E/DX2                !
 ! A43   A(11,17,18)           106.5327         estimate D2E/DX2                !
 ! A44   A(5,19,20)            104.6112         estimate D2E/DX2                !
 ! A45   A(3,21,22)            104.4892         estimate D2E/DX2                !
 ! A46   A(7,23,24)            105.9171         estimate D2E/DX2                !
 ! A47   A(26,25,27)           105.3979         estimate D2E/DX2                !
 ! A48   A(26,25,29)           100.4974         estimate D2E/DX2                !
 ! A49   A(27,25,29)           118.6838         estimate D2E/DX2                !
 ! A50   A(15,28,30)           117.765          estimate D2E/DX2                !
 ! A51   A(29,28,30)           104.8917         estimate D2E/DX2                !
 ! A52   A(15,29,25)           102.828          estimate D2E/DX2                !
 ! A53   L(6,26,25,12,-1)      180.195          estimate D2E/DX2                !
 ! A54   L(25,29,28,3,-1)      174.9571         estimate D2E/DX2                !
 ! A55   L(6,26,25,12,-2)      167.44           estimate D2E/DX2                !
 ! A56   L(25,29,28,3,-2)      168.5322         estimate D2E/DX2                !
 ! D1    D(1,2,6,4)           -163.0567         estimate D2E/DX2                !
 ! D2    D(1,2,6,26)            63.6355         estimate D2E/DX2                !
 ! D3    D(7,2,6,4)            -44.9796         estimate D2E/DX2                !
 ! D4    D(7,2,6,26)          -178.2873         estimate D2E/DX2                !
 ! D5    D(11,2,6,4)            81.1165         estimate D2E/DX2                !
 ! D6    D(11,2,6,26)          -52.1913         estimate D2E/DX2                !
 ! D7    D(1,2,7,3)            108.9719         estimate D2E/DX2                !
 ! D8    D(1,2,7,10)          -129.7175         estimate D2E/DX2                !
 ! D9    D(1,2,7,23)           -12.4021         estimate D2E/DX2                !
 ! D10   D(6,2,7,3)             -7.0892         Frozen                          !
 ! D11   D(6,2,7,10)           114.2214         estimate D2E/DX2                !
 ! D12   D(6,2,7,23)          -128.4632         estimate D2E/DX2                !
 ! D13   D(11,2,7,3)          -132.7976         estimate D2E/DX2                !
 ! D14   D(11,2,7,10)          -11.487          estimate D2E/DX2                !
 ! D15   D(11,2,7,23)          105.8284         estimate D2E/DX2                !
 ! D16   D(1,2,11,12)          -62.3685         estimate D2E/DX2                !
 ! D17   D(1,2,11,13)          177.94           estimate D2E/DX2                !
 ! D18   D(1,2,11,17)           57.7461         estimate D2E/DX2                !
 ! D19   D(6,2,11,12)           52.2153         estimate D2E/DX2                !
 ! D20   D(6,2,11,13)          -67.4761         estimate D2E/DX2                !
 ! D21   D(6,2,11,17)          172.3299         estimate D2E/DX2                !
 ! D22   D(7,2,11,12)          178.5855         estimate D2E/DX2                !
 ! D23   D(7,2,11,13)           58.894          estimate D2E/DX2                !
 ! D24   D(7,2,11,17)          -61.2999         estimate D2E/DX2                !
 ! D25   D(7,3,5,4)            -55.5743         estimate D2E/DX2                !
 ! D26   D(7,3,5,9)             67.2526         estimate D2E/DX2                !
 ! D27   D(7,3,5,19)          -177.9619         estimate D2E/DX2                !
 ! D28   D(16,3,5,4)            67.9872         estimate D2E/DX2                !
 ! D29   D(16,3,5,9)          -169.1859         estimate D2E/DX2                !
 ! D30   D(16,3,5,19)          -54.4004         estimate D2E/DX2                !
 ! D31   D(21,3,5,4)          -176.5311         estimate D2E/DX2                !
 ! D32   D(21,3,5,9)           -53.7042         estimate D2E/DX2                !
 ! D33   D(21,3,5,19)           61.0813         estimate D2E/DX2                !
 ! D34   D(5,3,7,2)             55.5531         estimate D2E/DX2                !
 ! D35   D(5,3,7,10)           -67.2034         estimate D2E/DX2                !
 ! D36   D(5,3,7,23)           178.6813         estimate D2E/DX2                !
 ! D37   D(16,3,7,2)           -67.9208         estimate D2E/DX2                !
 ! D38   D(16,3,7,10)          169.3227         estimate D2E/DX2                !
 ! D39   D(16,3,7,23)           55.2074         estimate D2E/DX2                !
 ! D40   D(21,3,7,2)           176.0            estimate D2E/DX2                !
 ! D41   D(21,3,7,10)           53.2434         estimate D2E/DX2                !
 ! D42   D(21,3,7,23)          -60.8719         estimate D2E/DX2                !
 ! D43   D(5,3,21,22)          169.563          estimate D2E/DX2                !
 ! D44   D(7,3,21,22)           47.9583         estimate D2E/DX2                !
 ! D45   D(16,3,21,22)         -71.5495         estimate D2E/DX2                !
 ! D46   D(6,4,5,3)              6.941          Frozen                          !
 ! D47   D(6,4,5,9)           -115.7286         estimate D2E/DX2                !
 ! D48   D(6,4,5,19)           128.1016         estimate D2E/DX2                !
 ! D49   D(8,4,5,3)           -112.7621         estimate D2E/DX2                !
 ! D50   D(8,4,5,9)            124.5683         estimate D2E/DX2                !
 ! D51   D(8,4,5,19)             8.3985         estimate D2E/DX2                !
 ! D52   D(14,4,5,3)           127.8507         estimate D2E/DX2                !
 ! D53   D(14,4,5,9)             5.1811         estimate D2E/DX2                !
 ! D54   D(14,4,5,19)         -110.9887         estimate D2E/DX2                !
 ! D55   D(5,4,6,2)             45.059          estimate D2E/DX2                !
 ! D56   D(5,4,6,26)          -177.7142         estimate D2E/DX2                !
 ! D57   D(8,4,6,2)            166.6771         estimate D2E/DX2                !
 ! D58   D(8,4,6,26)           -56.0961         estimate D2E/DX2                !
 ! D59   D(14,4,6,2)           -77.1702         estimate D2E/DX2                !
 ! D60   D(14,4,6,26)           60.0565         estimate D2E/DX2                !
 ! D61   D(5,4,14,15)          151.9492         estimate D2E/DX2                !
 ! D62   D(6,4,14,15)          -84.56           estimate D2E/DX2                !
 ! D63   D(8,4,14,15)           31.0555         estimate D2E/DX2                !
 ! D64   D(3,5,19,20)          -46.4852         estimate D2E/DX2                !
 ! D65   D(4,5,19,20)         -169.1481         estimate D2E/DX2                !
 ! D66   D(9,5,19,20)           71.4876         estimate D2E/DX2                !
 ! D67   D(2,6,25,27)         -129.9386         estimate D2E/DX2                !
 ! D68   D(2,6,25,29)          108.472          estimate D2E/DX2                !
 ! D69   D(4,6,25,27)           94.1001         estimate D2E/DX2                !
 ! D70   D(4,6,25,29)          -27.4894         estimate D2E/DX2                !
 ! D71   D(2,7,23,24)          -57.7445         estimate D2E/DX2                !
 ! D72   D(3,7,23,24)          179.3085         estimate D2E/DX2                !
 ! D73   D(10,7,23,24)          63.0309         estimate D2E/DX2                !
 ! D74   D(2,11,17,18)        -176.7591         estimate D2E/DX2                !
 ! D75   D(12,11,17,18)        -55.8751         estimate D2E/DX2                !
 ! D76   D(13,11,17,18)         61.1558         estimate D2E/DX2                !
 ! D77   D(4,14,15,28)         159.4845         estimate D2E/DX2                !
 ! D78   D(4,14,15,29)          93.4345         estimate D2E/DX2                !
 ! D79   D(14,15,28,30)         -3.3246         estimate D2E/DX2                !
 ! D80   D(14,15,29,25)        -54.8639         estimate D2E/DX2                !
 ! D81   D(26,25,28,30)       -110.9296         estimate D2E/DX2                !
 ! D82   D(27,25,28,30)        137.0084         estimate D2E/DX2                !
 ! D83   D(26,25,29,15)          8.4639         estimate D2E/DX2                !
 ! D84   D(27,25,29,15)       -105.6902         estimate D2E/DX2                !
 --------------------------------------------------------------------------------
 Trust Radius=3.00D-01 FncErr=1.00D-07 GrdErr=1.00D-06
 Number of steps in this run=    180 maximum allowed number of steps=    180.
 GradGradGradGradGradGradGradGradGradGradGradGradGradGradGradGradGradGrad

                          Input orientation:
 ---------------------------------------------------------------------
 Center     Atomic      Atomic             Coordinates (Angstroms)
 Number     Number       Type             X           Y           Z
 ---------------------------------------------------------------------
      1          1           0       -1.726303    0.210990    1.532492
      2          6           0       -1.175361   -0.150659    0.655284
      3          6           0        1.010987    1.019640    0.161454
      4          6           0        0.923018   -1.498163    0.357735
      5          6           0        1.595719   -0.298936   -0.329237
      6          8           0       -0.203882   -1.106486    1.178242
      7          6           0       -0.502660    1.048567   -0.031687
      8          1           0        1.634876   -2.014330    1.011615
      9          1           0        1.493882   -0.375297   -1.418864
     10          1           0       -0.719719    1.062497   -1.107133
     11          6           0       -2.186962   -0.840061   -0.265027
     12          1           0       -2.631737   -1.704107    0.239971
     13          1           0       -1.714625   -1.197731   -1.184843
     14          8           0        0.461751   -2.430274   -0.610784
     15          1           0        0.480860   -3.293242   -0.163244
     16          1           0        1.275065    1.195061    1.211949
     17          8           0       -3.222206    0.075179   -0.617182
     18          1           0       -3.862273   -0.424181   -1.156279
     19          8           0        3.014060   -0.296275   -0.082151
     20          1           0        3.318315    0.578702   -0.399017
     21          8           0        1.617328    2.101575   -0.571035
     22          1           0        1.083365    2.887719   -0.333773
     23          8           0       -1.003728    2.296092    0.474061
     24          1           0       -1.969503    2.278709    0.321747
     25          8           0       -1.116252   -3.532046    2.273342
     26          1           0       -0.863003   -2.622002    1.987174
     27          1           0       -0.703081   -3.653092    3.141575
     28          8           0        0.052255   -5.027551    0.127567
     29          1           0       -0.472334   -4.543210    0.814235
     30          1           0       -0.610062   -5.432081   -0.452245
 ---------------------------------------------------------------------
                    Distance matrix (angstroms):
                    1          2          3          4          5
     1  H    0.000000
     2  C    1.097188   0.000000
     3  C    3.166452   2.528554   0.000000
     4  C    3.364545   2.511473   2.526974   0.000000
     5  C    3.842120   2.944512   1.523592   1.537076   0.000000
     6  O    2.044261   1.459747   2.651448   1.447946   2.482578
     7  C    2.155341   1.537075   1.526194   2.944493   2.511473
     8  H    4.064589   3.390822   3.212006   1.095778   2.177612
     9  H    4.407247   3.387833   2.162508   2.177847   1.097036
    10  H    2.950575   2.187572   2.146274   3.376596   2.796404
    11  C    2.132602   1.531530   3.723876   3.239276   3.821729
    12  H    2.481535   2.169497   4.549110   3.562663   4.491090
    13  H    3.060807   2.184773   3.762740   3.070337   3.535289
    14  O    4.044439   3.078914   3.577697   1.421136   2.430587
    15  H    4.475123   3.645392   4.357455   1.920737   3.199427
    16  H    3.174800   2.850513   1.097292   2.847292   2.170277
    17  O    2.622455   2.420691   4.406609   4.539686   4.840999
    18  H    3.492177   3.252087   5.250686   5.132707   5.521717
    19  O    5.033431   4.256320   2.408999   2.451630   1.439705
    20  H    5.414251   4.672969   2.415019   3.259369   1.934543
    21  O    4.379384   3.791507   1.440407   3.781903   2.412755
    22  H    4.306049   3.913032   1.933962   4.442956   3.227584
    23  O    2.447456   2.459449   2.405437   4.257024   3.759865
    24  H    2.408425   2.577545   3.239486   4.757387   4.447341
    25  O    3.864109   3.749051   5.450052   3.459025   4.957944
    26  H    2.996308   2.824718   4.484044   2.666075   4.099721
    27  H    4.308975   4.321080   5.801170   3.877845   5.346156
    28  O    5.707836   5.056639   6.122812   3.642497   4.995072
    29  H    4.968979   4.451294   5.794106   3.380489   4.857801
    30  H    6.085181   5.425828   6.680504   4.299083   5.588361
                    6          7          8          9         10
     6  O    0.000000
     7  C    2.489468   0.000000
     8  H    2.057420   3.877999   0.000000
     9  H    3.187789   2.817415   2.934883   0.000000
    10  H    3.192728   1.097220   4.415889   2.657905   0.000000
    11  C    2.467106   2.541306   4.197043   3.885352   2.545913
    12  H    2.670577   3.490556   4.346914   4.640927   3.622789
    13  H    2.806215   2.800800   4.087838   3.320494   2.470730
    14  O    2.322950   3.656197   2.044850   2.437461   3.720441
    15  H    2.655251   4.453754   2.085105   3.334246   4.615710
    16  H    2.735971   2.174488   3.235705   3.071658   3.061842
    17  O    3.705423   2.947239   5.532655   4.804905   2.734463
    18  H    4.393103   3.836756   6.119394   5.362811   3.476819
    19  O    3.549674   3.765430   2.459712   2.025830   4.103408
    20  H    4.211113   3.867241   3.398185   2.297555   4.128099
    21  O    4.082699   2.427771   4.409735   2.620868   2.613211
    22  H    4.460591   2.447287   5.113151   3.463123   2.679670
    23  O    3.565552   1.436373   5.082414   4.117953   2.025486
    24  H    3.912869   1.946739   5.647800   4.697713   2.254513
    25  O    2.813362   5.164462   3.385871   5.514549   5.717926
    26  H    1.840000   4.204607   2.749615   4.712079   4.813606
    27  H    3.254087   5.675858   3.562066   6.030605   6.347328
    28  O    4.067465   6.103482   3.516494   5.110108   6.261718
    29  H    3.466358   5.655482   3.297655   5.120960   5.931003
    30  H    4.640501   6.495168   4.343231   5.561655   6.528434
                   11         12         13         14         15
    11  C    0.000000
    12  H    1.095182   0.000000
    13  H    1.094117   1.768504   0.000000
    14  O    3.108698   3.289494   2.566188   0.000000
    15  H    3.625704   3.517981   3.202340   0.972302   0.000000
    16  H    4.278880   4.961151   4.517556   4.138465   4.760964
    17  O    1.425976   2.061364   2.053129   4.455208   5.026432
    18  H    1.942667   2.258748   2.282890   4.797828   5.299097
    19  O    5.232569   5.827588   4.938524   3.368633   3.924983
    20  H    5.686732   6.404892   5.394787   4.154364   4.806110
    21  O    4.818660   5.761554   4.729069   4.677028   5.528282
    22  H    4.959446   5.934310   5.024338   5.361361   6.212598
    23  O    3.432455   4.325136   3.932447   5.065871   5.818145
    24  H    3.180930   4.038324   3.797422   5.380997   6.106237
    25  O    3.851820   3.126124   4.214988   3.467301   2.923139
    26  H    3.162371   2.650221   3.579874   2.922520   2.623133
    27  H    4.660471   3.992188   5.076408   4.114890   3.528886
    28  O    4.764797   4.273374   4.417217   2.731061   1.810000
    29  H    4.221145   3.612936   4.090456   2.714349   1.851071
    30  H    4.858839   4.296990   4.436945   3.191358   2.418319
                   16         17         18         19         20
    16  H    0.000000
    17  O    4.982500   0.000000
    18  H    5.884105   0.974511   0.000000
    19  O    2.631137   6.270187   6.960896   0.000000
    20  H    2.673945   6.563501   7.289723   0.979061   0.000000
    21  O    2.029272   5.246856   6.062011   2.817721   2.289561
    22  H    2.300238   5.150596   6.008705   3.732119   3.214159
    23  O    2.636218   3.323388   4.269564   4.813768   4.731992
    24  H    3.534682   2.703035   3.615626   5.624018   5.600941
    25  O    5.402823   5.079591   5.381613   5.751351   6.610986
    26  H    4.443228   4.429819   4.869018   4.972196   5.781162
    27  H    5.580422   5.862956   6.235216   5.956321   6.827554
    28  O    6.433665   6.108567   6.177605   5.585807   6.509570
    29  H    6.011600   5.562398   5.686916   5.567307   6.486523
    30  H    7.088178   6.097575   6.012621   6.296645   7.180842
                   21         22         23         24         25
    21  O    0.000000
    22  H    0.979506   0.000000
    23  O    2.828427   2.314860   0.000000
    24  H    3.700513   3.181289   0.977867   0.000000
    25  O    6.877545   7.269715   6.100596   6.188832   0.000000
    26  H    5.916811   6.287461   5.147520   5.292915   0.987020
    27  H    7.230765   7.619163   6.526777   6.688910   0.969119
    28  O    7.332253   7.995468   7.407489   7.583313   2.864663
    29  H    7.102030   7.678335   6.868344   7.001617   1.888406
    30  H    7.856930   8.491220   7.793438   7.867873   3.360831
                   26         27         28         29         30
    26  H    0.000000
    27  H    1.556073   0.000000
    28  O    3.175296   3.397634   0.000000
    29  H    2.284612   2.502413   0.990602   0.000000
    30  H    3.729785   4.011109   0.968757   1.553393   0.000000
 Stoichiometry    C6H16O8
 Framework group  C1[X(C6H16O8)]
 Deg. of freedom    84
 Full point group                 C1      NOp   1
 Largest Abelian subgroup         C1      NOp   1
 Largest concise Abelian subgroup C1      NOp   1
                         Standard orientation:
 ---------------------------------------------------------------------
 Center     Atomic      Atomic             Coordinates (Angstroms)
 Number     Number       Type             X           Y           Z
 ---------------------------------------------------------------------
      1          1           0        0.445277    1.822286    1.328187
      2          6           0        0.321804    1.179651    0.447509
      3          6           0        1.889205   -0.798400    0.292094
      4          6           0       -0.608856   -1.126775    0.098552
      5          6           0        0.776840   -1.618082   -0.349853
      6          8           0       -0.538697    0.085535    0.887178
      7          6           0        1.707499    0.688343   -0.000896
      8          1           0       -1.103488   -1.885380    0.715469
      9          1           0        0.861508   -1.579400   -1.442933
     10          1           0        1.859494    0.856319   -1.074476
     11          6           0       -0.362718    2.018586   -0.635635
     12          1           0       -1.356376    2.333725   -0.299846
     13          1           0       -0.487975    1.452117   -1.563275
     14          8           0       -1.434433   -0.872771   -1.029957
     15          1           0       -2.343956   -1.016816   -0.717883
     16          1           0        1.933147   -0.981922    1.373038
     17          8           0        0.420626    3.176302   -0.917543
     18          1           0       -0.080958    3.698421   -1.569828
     19          8           0        0.965467   -3.003246   -0.005630
     20          1           0        1.917144   -3.169756   -0.164201
     21          8           0        3.157409   -1.246140   -0.223620
     22          1           0        3.799999   -0.577404    0.091505
     23          8           0        2.761552    1.414354    0.651061
     24          1           0        2.615383    2.355631    0.430025
     25          8           0       -3.222710    0.624698    1.535551
     26          1           0       -2.249931    0.515690    1.408948
     27          1           0       -3.414494    0.236309    2.402479
     28          8           0       -4.148276   -0.873659   -0.723773
     29          1           0       -3.870452   -0.244847   -0.010540
     30          1           0       -4.554484   -0.315490   -1.403430
 ---------------------------------------------------------------------
 Rotational constants (GHZ):      0.7235596      0.4615753      0.3293993
 Standard basis: 6-31G(d) (6D, 7F)
 There are   242 symmetry adapted cartesian basis functions of A   symmetry.
 There are   242 symmetry adapted basis functions of A   symmetry.
   242 basis functions,   456 primitive gaussians,   242 cartesian basis functions
    58 alpha electrons       58 beta electrons
       nuclear repulsion energy      1083.6884699088 Hartrees.
 NAtoms=   30 NActive=   30 NUniq=   30 SFac= 1.00D+00 NAtFMM=   60 NAOKFM=F Big=F
 Integral buffers will be    131072 words long.
 Raffenetti 2 integral format.
 Two-electron integral symmetry is turned on.
 One-electron integrals computed using PRISM.
 NBasis=   242 RedAO= T EigKep=  1.53D-03  NBF=   242
 NBsUse=   242 1.00D-06 EigRej= -1.00D+00 NBFU=   242
 ExpMin= 1.61D-01 ExpMax= 5.48D+03 ExpMxC= 8.25D+02 IAcc=1 IRadAn=         1 AccDes= 0.00D+00
 Harris functional with IExCor=  402 and IRadAn=       1 diagonalized for initial guess.
 HarFok:  IExCor=  402 AccDes= 0.00D+00 IRadAn=         1 IDoV= 1 UseB2=F ITyADJ=14
 ICtDFT=  3500011 ScaDFX=  1.000000  1.000000  1.000000  1.000000
 FoFCou: FMM=F IPFlag=           0 FMFlag=      100000 FMFlg1=           0
         NFxFlg=           0 DoJE=T BraDBF=F KetDBF=T FulRan=T
         wScrn=  0.000000 ICntrl=     500 IOpCl=  0 I1Cent=   200000004 NGrid=           0
         NMat0=    1 NMatS0=      1 NMatT0=    0 NMatD0=    1 NMtDS0=    0 NMtDT0=    0
 Petite list used in FoFCou.
 Requested convergence on RMS density matrix=1.00D-08 within 128 cycles.
 Requested convergence on MAX density matrix=1.00D-06.
 Requested convergence on             energy=1.00D-06.
 No special actions if energy rises.
 Integral accuracy reduced to 1.0D-05 until final iterations.
 Initial convergence to 1.0D-05 achieved.  Increase integral accuracy.
 SCF Done:  E(RB3LYP) =  -839.982346336     A.U. after   14 cycles
            NFock= 14  Conv=0.32D-08     -V/T= 2.0087

 **********************************************************************

            Population analysis using the SCF density.

 **********************************************************************

 Orbital symmetries:
       Occupied  (A) (A) (A) (A) (A) (A) (A) (A) (A) (A) (A) (A)
                 (A) (A) (A) (A) (A) (A) (A) (A) (A) (A) (A) (A)
                 (A) (A) (A) (A) (A) (A) (A) (A) (A) (A) (A) (A)
                 (A) (A) (A) (A) (A) (A) (A) (A) (A) (A) (A) (A)
                 (A) (A) (A) (A) (A) (A) (A) (A) (A) (A)
       Virtual   (A) (A) (A) (A) (A) (A) (A) (A) (A) (A) (A) (A)
                 (A) (A) (A) (A) (A) (A) (A) (A) (A) (A) (A) (A)
                 (A) (A) (A) (A) (A) (A) (A) (A) (A) (A) (A) (A)
                 (A) (A) (A) (A) (A) (A) (A) (A) (A) (A) (A) (A)
                 (A) (A) (A) (A) (A) (A) (A) (A) (A) (A) (A) (A)
                 (A) (A) (A) (A) (A) (A) (A) (A) (A) (A) (A) (A)
                 (A) (A) (A) (A) (A) (A) (A) (A) (A) (A) (A) (A)
                 (A) (A) (A) (A) (A) (A) (A) (A) (A) (A) (A) (A)
                 (A) (A) (A) (A) (A) (A) (A) (A) (A) (A) (A) (A)
                 (A) (A) (A) (A) (A) (A) (A) (A) (A) (A) (A) (A)
                 (A) (A) (A) (A) (A) (A) (A) (A) (A) (A) (A) (A)
                 (A) (A) (A) (A) (A) (A) (A) (A) (A) (A) (A) (A)
                 (A) (A) (A) (A) (A) (A) (A) (A) (A) (A) (A) (A)
                 (A) (A) (A) (A) (A) (A) (A) (A) (A) (A) (A) (A)
                 (A) (A) (A) (A) (A) (A) (A) (A) (A) (A) (A) (A)
                 (A) (A) (A) (A)
 The electronic state is 1-A.
 Alpha  occ. eigenvalues --  -19.17813 -19.16243 -19.15917 -19.15418 -19.15060
 Alpha  occ. eigenvalues --  -19.14146 -19.14026 -19.13729 -10.29499 -10.25707
 Alpha  occ. eigenvalues --  -10.24662 -10.24112 -10.24087 -10.23955  -1.06830
 Alpha  occ. eigenvalues --   -1.03826  -1.03261  -1.01992  -1.01055  -1.00307
 Alpha  occ. eigenvalues --   -1.00030  -0.98930  -0.78861  -0.77127  -0.69529
 Alpha  occ. eigenvalues --   -0.64311  -0.62889  -0.56905  -0.55195  -0.54761
 Alpha  occ. eigenvalues --   -0.53445  -0.52388  -0.51420  -0.51279  -0.48522
 Alpha  occ. eigenvalues --   -0.47796  -0.46104  -0.44885  -0.44366  -0.43506
 Alpha  occ. eigenvalues --   -0.41579  -0.40841  -0.40161  -0.38201  -0.37217
 Alpha  occ. eigenvalues --   -0.36770  -0.35756  -0.34786  -0.33133  -0.32075
 Alpha  occ. eigenvalues --   -0.31250  -0.31007  -0.29650  -0.28589  -0.27915
 Alpha  occ. eigenvalues --   -0.27325  -0.26874  -0.26299
 Alpha virt. eigenvalues --    0.03394   0.04863   0.06979   0.08752   0.09406
 Alpha virt. eigenvalues --    0.09824   0.10123   0.12101   0.12683   0.13748
 Alpha virt. eigenvalues --    0.14844   0.15786   0.16419   0.17036   0.18249
 Alpha virt. eigenvalues --    0.19249   0.19936   0.21197   0.21618   0.23306
 Alpha virt. eigenvalues --    0.24395   0.24779   0.26946   0.29100   0.29512
 Alpha virt. eigenvalues --    0.30942   0.31774   0.32970   0.51280   0.53263
 Alpha virt. eigenvalues --    0.54302   0.55406   0.55970   0.59310   0.59542
 Alpha virt. eigenvalues --    0.60523   0.63736   0.64597   0.65692   0.67276
 Alpha virt. eigenvalues --    0.69567   0.71287   0.73598   0.75581   0.76737
 Alpha virt. eigenvalues --    0.77125   0.77727   0.79368   0.79929   0.80648
 Alpha virt. eigenvalues --    0.81835   0.82433   0.84060   0.85047   0.85312
 Alpha virt. eigenvalues --    0.86930   0.87142   0.88197   0.88723   0.89182
 Alpha virt. eigenvalues --    0.89783   0.90933   0.91474   0.92750   0.92818
 Alpha virt. eigenvalues --    0.95258   0.96267   0.97802   1.00225   1.00751
 Alpha virt. eigenvalues --    1.02355   1.06136   1.06279   1.07425   1.08203
 Alpha virt. eigenvalues --    1.08404   1.09634   1.10443   1.11813   1.13697
 Alpha virt. eigenvalues --    1.16000   1.19716   1.19908   1.22194   1.24469
 Alpha virt. eigenvalues --    1.26771   1.28760   1.31157   1.32829   1.33304
 Alpha virt. eigenvalues --    1.36014   1.39027   1.42648   1.48810   1.50567
 Alpha virt. eigenvalues --    1.52813   1.53546   1.55884   1.59524   1.60520
 Alpha virt. eigenvalues --    1.61132   1.65390   1.66670   1.67798   1.69903
 Alpha virt. eigenvalues --    1.70483   1.71688   1.72917   1.73173   1.73463
 Alpha virt. eigenvalues --    1.74832   1.76040   1.76729   1.78133   1.79462
 Alpha virt. eigenvalues --    1.82128   1.83151   1.84657   1.85147   1.87476
 Alpha virt. eigenvalues --    1.88381   1.89639   1.89936   1.92358   1.95636
 Alpha virt. eigenvalues --    1.96396   1.97395   2.00232   2.02568   2.05079
 Alpha virt. eigenvalues --    2.06294   2.07489   2.09467   2.12345   2.14129
 Alpha virt. eigenvalues --    2.19352   2.23607   2.25714   2.27504   2.28986
 Alpha virt. eigenvalues --    2.31109   2.32881   2.35679   2.37535   2.39093
 Alpha virt. eigenvalues --    2.40438   2.41406   2.43443   2.47646   2.49297
 Alpha virt. eigenvalues --    2.50521   2.52406   2.53447   2.55022   2.57405
 Alpha virt. eigenvalues --    2.59009   2.61668   2.63868   2.65658   2.67664
 Alpha virt. eigenvalues --    2.71068   2.74091   2.80179   2.87303   2.88716
 Alpha virt. eigenvalues --    2.92347   2.94471   2.97565   3.04040   3.06116
 Alpha virt. eigenvalues --    3.69785   3.71628   3.75495   3.82067   3.88769
 Alpha virt. eigenvalues --    3.90712   3.97339   4.15884   4.28127   4.35734
 Alpha virt. eigenvalues --    4.40152   4.50663   4.69473   4.74248
          Condensed to atoms (all electrons):
               1          2          3          4          5          6
     1  H    0.583121   0.361888  -0.002641   0.002828   0.000274  -0.027604
     2  C    0.361888   4.981703  -0.036147  -0.018389  -0.011471   0.199779
     3  C   -0.002641  -0.036147   4.994837  -0.029795   0.301683  -0.002774
     4  C    0.002828  -0.018389  -0.029795   4.754481   0.299185   0.180701
     5  C    0.000274  -0.011471   0.301683   0.299185   4.955707  -0.034732
     6  O   -0.027604   0.199779  -0.002774   0.180701  -0.034732   8.349024
     7  C   -0.043026   0.272331   0.284478  -0.013268  -0.019087  -0.029245
     8  H   -0.000137   0.003486   0.001126   0.369757  -0.044426  -0.039594
     9  H    0.000022   0.000879  -0.043190  -0.051408   0.356572   0.002202
    10  H    0.005962  -0.059675  -0.045988   0.000328  -0.004012   0.002668
    11  C   -0.051674   0.327816   0.002088  -0.000598  -0.000026  -0.037969
    12  H   -0.006656  -0.032107  -0.000076  -0.000592   0.000009   0.001250
    13  H    0.005892  -0.031542  -0.000251   0.000778  -0.000373   0.000867
    14  O   -0.000191  -0.000526   0.002121   0.241620  -0.039605  -0.072778
    15  H    0.000012  -0.000207  -0.000150  -0.009479   0.004182   0.003731
    16  H    0.000733  -0.001194   0.345688  -0.002498  -0.041411   0.002983
    17  O    0.004308  -0.043446   0.000245  -0.000001   0.000001   0.000967
    18  H   -0.000230   0.005332  -0.000003  -0.000003   0.000000  -0.000086
    19  O    0.000002   0.000003  -0.027793  -0.027372   0.219447   0.000837
    20  H   -0.000000  -0.000058  -0.011309   0.005429  -0.028317  -0.000123
    21  O   -0.000067   0.003644   0.216187   0.002257  -0.034993   0.000097
    22  H   -0.000001   0.000651  -0.028356  -0.000241   0.006046  -0.000015
    23  O    0.003446  -0.034248  -0.031756   0.000087   0.001884   0.001344
    24  H    0.002464  -0.004065   0.005484   0.000010  -0.000193  -0.000010
    25  O    0.000144   0.000973   0.000001   0.003951   0.000013  -0.020082
    26  H   -0.000893  -0.002733   0.000026  -0.003072   0.000665   0.057466
    27  H    0.000002  -0.000017  -0.000000   0.000010   0.000002   0.000702
    28  O    0.000000   0.000004   0.000000  -0.000956  -0.000027  -0.000058
    29  H   -0.000003  -0.000058  -0.000001   0.001248   0.000053  -0.000016
    30  H   -0.000000  -0.000001  -0.000000   0.000039   0.000002   0.000005
               7          8          9         10         11         12
     1  H   -0.043026  -0.000137   0.000022   0.005962  -0.051674  -0.006656
     2  C    0.272331   0.003486   0.000879  -0.059675   0.327816  -0.032107
     3  C    0.284478   0.001126  -0.043190  -0.045988   0.002088  -0.000076
     4  C   -0.013268   0.369757  -0.051408   0.000328  -0.000598  -0.000592
     5  C   -0.019087  -0.044426   0.356572  -0.004012  -0.000026   0.000009
     6  O   -0.029245  -0.039594   0.002202   0.002668  -0.037969   0.001250
     7  C    5.041941   0.000044  -0.003440   0.363435  -0.038880   0.005946
     8  H    0.000044   0.576843   0.005262   0.000017   0.000021  -0.000015
     9  H   -0.003440   0.005262   0.603900   0.005777  -0.000083  -0.000001
    10  H    0.363435   0.000017   0.005777   0.621043  -0.002168   0.000536
    11  C   -0.038880   0.000021  -0.000083  -0.002168   4.974103   0.358155
    12  H    0.005946  -0.000015  -0.000001   0.000536   0.358155   0.620098
    13  H   -0.010091   0.000157   0.000525   0.002323   0.362315  -0.048144
    14  O   -0.000266  -0.036803   0.003090  -0.000031   0.003779   0.000375
    15  H    0.000007  -0.007454   0.000054   0.000005   0.000015  -0.000038
    16  H   -0.043600   0.000613   0.006906   0.007181   0.000146   0.000007
    17  O    0.007324   0.000001  -0.000002   0.002799   0.196812  -0.035702
    18  H   -0.000198  -0.000000   0.000000  -0.000151  -0.020520  -0.004815
    19  O    0.004065   0.004925  -0.042434  -0.000058   0.000003  -0.000000
    20  H    0.000792  -0.000274  -0.001591  -0.000011   0.000001  -0.000000
    21  O   -0.033357  -0.000065  -0.000485   0.000828  -0.000036   0.000000
    22  H   -0.011145   0.000004  -0.000156  -0.000105  -0.000022   0.000000
    23  O    0.199150   0.000003  -0.000074  -0.046297   0.001957  -0.000137
    24  H   -0.021838  -0.000000   0.000006  -0.003044  -0.001524   0.000030
    25  O   -0.000013   0.000775   0.000001   0.000000  -0.000717   0.002268
    26  H    0.000471  -0.001611  -0.000028  -0.000018   0.000230   0.001465
    27  H    0.000000   0.000121  -0.000000  -0.000000   0.000030  -0.000086
    28  O   -0.000000   0.000383  -0.000001  -0.000000  -0.000019   0.000013
    29  H    0.000000  -0.000053  -0.000000   0.000000   0.000087   0.000136
    30  H   -0.000000  -0.000015   0.000000   0.000000   0.000006   0.000006
              13         14         15         16         17         18
     1  H    0.005892  -0.000191   0.000012   0.000733   0.004308  -0.000230
     2  C   -0.031542  -0.000526  -0.000207  -0.001194  -0.043446   0.005332
     3  C   -0.000251   0.002121  -0.000150   0.345688   0.000245  -0.000003
     4  C    0.000778   0.241620  -0.009479  -0.002498  -0.000001  -0.000003
     5  C   -0.000373  -0.039605   0.004182  -0.041411   0.000001   0.000000
     6  O    0.000867  -0.072778   0.003731   0.002983   0.000967  -0.000086
     7  C   -0.010091  -0.000266   0.000007  -0.043600   0.007324  -0.000198
     8  H    0.000157  -0.036803  -0.007454   0.000613   0.000001  -0.000000
     9  H    0.000525   0.003090   0.000054   0.006906  -0.000002   0.000000
    10  H    0.002323  -0.000031   0.000005   0.007181   0.002799  -0.000151
    11  C    0.362315   0.003779   0.000015   0.000146   0.196812  -0.020520
    12  H   -0.048144   0.000375  -0.000038   0.000007  -0.035702  -0.004815
    13  H    0.588644   0.009516  -0.000197   0.000001  -0.038416  -0.003541
    14  O    0.009516   8.373000   0.181616   0.000037   0.000057   0.000002
    15  H   -0.000197   0.181616   0.334338   0.000005  -0.000002  -0.000000
    16  H    0.000001   0.000037   0.000005   0.628251  -0.000004   0.000000
    17  O   -0.038416   0.000057  -0.000002  -0.000004   8.300167   0.238057
    18  H   -0.003541   0.000002  -0.000000   0.000000   0.238057   0.380419
    19  O    0.000001   0.000777  -0.000121   0.001059  -0.000000  -0.000000
    20  H    0.000000  -0.000135   0.000008  -0.000235   0.000000  -0.000000
    21  O   -0.000014  -0.000007   0.000000  -0.047839  -0.000000   0.000000
    22  H    0.000000   0.000001  -0.000000  -0.001501   0.000000  -0.000000
    23  O    0.000056   0.000000  -0.000000  -0.000013  -0.001328   0.000053
    24  H    0.000208  -0.000001   0.000000  -0.000177   0.008829  -0.000235
    25  O    0.000015  -0.001280   0.002461   0.000001   0.000001   0.000000
    26  H   -0.000153   0.002675   0.000475  -0.000023  -0.000006  -0.000001
    27  H   -0.000000   0.000010  -0.000043  -0.000000  -0.000000  -0.000000
    28  O    0.000009  -0.025918   0.079255  -0.000000   0.000000   0.000000
    29  H   -0.000003   0.004996  -0.008110   0.000000   0.000000  -0.000000
    30  H    0.000001   0.001621  -0.004510   0.000000   0.000000  -0.000000
              19         20         21         22         23         24
     1  H    0.000002  -0.000000  -0.000067  -0.000001   0.003446   0.002464
     2  C    0.000003  -0.000058   0.003644   0.000651  -0.034248  -0.004065
     3  C   -0.027793  -0.011309   0.216187  -0.028356  -0.031756   0.005484
     4  C   -0.027372   0.005429   0.002257  -0.000241   0.000087   0.000010
     5  C    0.219447  -0.028317  -0.034993   0.006046   0.001884  -0.000193
     6  O    0.000837  -0.000123   0.000097  -0.000015   0.001344  -0.000010
     7  C    0.004065   0.000792  -0.033357  -0.011145   0.199150  -0.021838
     8  H    0.004925  -0.000274  -0.000065   0.000004   0.000003  -0.000000
     9  H   -0.042434  -0.001591  -0.000485  -0.000156  -0.000074   0.000006
    10  H   -0.000058  -0.000011   0.000828  -0.000105  -0.046297  -0.003044
    11  C    0.000003   0.000001  -0.000036  -0.000022   0.001957  -0.001524
    12  H   -0.000000  -0.000000   0.000000   0.000000  -0.000137   0.000030
    13  H    0.000001   0.000000  -0.000014   0.000000   0.000056   0.000208
    14  O    0.000777  -0.000135  -0.000007   0.000001   0.000000  -0.000001
    15  H   -0.000121   0.000008   0.000000  -0.000000  -0.000000   0.000000
    16  H    0.001059  -0.000235  -0.047839  -0.001501  -0.000013  -0.000177
    17  O   -0.000000   0.000000  -0.000000   0.000000  -0.001328   0.008829
    18  H   -0.000000  -0.000000   0.000000  -0.000000   0.000053  -0.000235
    19  O    8.291784   0.236329  -0.004220   0.000034  -0.000011   0.000001
    20  H    0.236329   0.368798   0.018616  -0.000638  -0.000004   0.000000
    21  O   -0.004220   0.018616   8.313605   0.235917  -0.003867   0.000044
    22  H    0.000034  -0.000638   0.235917   0.365873   0.019983  -0.000727
    23  O   -0.000011  -0.000004  -0.003867   0.019983   8.316864   0.232961
    24  H    0.000001   0.000000   0.000044  -0.000727   0.232961   0.371504
    25  O    0.000000  -0.000000   0.000000  -0.000000   0.000000  -0.000000
    26  H   -0.000005   0.000000   0.000000   0.000000  -0.000004  -0.000000
    27  H   -0.000000   0.000000  -0.000000   0.000000  -0.000000  -0.000000
    28  O    0.000000  -0.000000  -0.000000   0.000000   0.000000  -0.000000
    29  H   -0.000000   0.000000   0.000000  -0.000000  -0.000000   0.000000
    30  H   -0.000000   0.000000   0.000000  -0.000000  -0.000000   0.000000
              25         26         27         28         29         30
     1  H    0.000144  -0.000893   0.000002   0.000000  -0.000003  -0.000000
     2  C    0.000973  -0.002733  -0.000017   0.000004  -0.000058  -0.000001
     3  C    0.000001   0.000026  -0.000000   0.000000  -0.000001  -0.000000
     4  C    0.003951  -0.003072   0.000010  -0.000956   0.001248   0.000039
     5  C    0.000013   0.000665   0.000002  -0.000027   0.000053   0.000002
     6  O   -0.020082   0.057466   0.000702  -0.000058  -0.000016   0.000005
     7  C   -0.000013   0.000471   0.000000  -0.000000   0.000000  -0.000000
     8  H    0.000775  -0.001611   0.000121   0.000383  -0.000053  -0.000015
     9  H    0.000001  -0.000028  -0.000000  -0.000001  -0.000000   0.000000
    10  H    0.000000  -0.000018  -0.000000  -0.000000   0.000000   0.000000
    11  C   -0.000717   0.000230   0.000030  -0.000019   0.000087   0.000006
    12  H    0.002268   0.001465  -0.000086   0.000013   0.000136   0.000006
    13  H    0.000015  -0.000153  -0.000000   0.000009  -0.000003   0.000001
    14  O   -0.001280   0.002675   0.000010  -0.025918   0.004996   0.001621
    15  H    0.002461   0.000475  -0.000043   0.079255  -0.008110  -0.004510
    16  H    0.000001  -0.000023  -0.000000  -0.000000   0.000000   0.000000
    17  O    0.000001  -0.000006  -0.000000   0.000000   0.000000   0.000000
    18  H    0.000000  -0.000001  -0.000000   0.000000  -0.000000  -0.000000
    19  O    0.000000  -0.000005  -0.000000   0.000000  -0.000000  -0.000000
    20  H   -0.000000   0.000000   0.000000  -0.000000   0.000000   0.000000
    21  O    0.000000   0.000000  -0.000000  -0.000000   0.000000   0.000000
    22  H   -0.000000   0.000000   0.000000   0.000000  -0.000000  -0.000000
    23  O    0.000000  -0.000004  -0.000000   0.000000  -0.000000  -0.000000
    24  H   -0.000000  -0.000000  -0.000000  -0.000000   0.000000   0.000000
    25  O    8.345964   0.202337   0.243330  -0.018389   0.061596   0.000474
    26  H    0.202337   0.325426  -0.013750   0.001282  -0.003597  -0.000000
    27  H    0.243330  -0.013750   0.371584   0.000946  -0.003158  -0.000018
    28  O   -0.018389   0.001282   0.000946   8.332348   0.197930   0.241751
    29  H    0.061596  -0.003597  -0.003158   0.197930   0.339803  -0.011972
    30  H    0.000474  -0.000000  -0.000018   0.241751  -0.011972   0.376388
 Mulliken charges:
               1
     1  H    0.162026
     2  C    0.117396
     3  C    0.106266
     4  C    0.294961
     5  C    0.112948
     6  O   -0.539539
     7  C    0.087469
     8  H    0.166908
     9  H    0.157697
    10  H    0.148654
    11  C   -0.073330
    12  H    0.138076
    13  H    0.161417
    14  O   -0.647753
    15  H    0.424146
    16  H    0.144886
    17  O   -0.640662
    18  H    0.405919
    19  O   -0.657254
    20  H    0.412722
    21  O   -0.666247
    22  H    0.414396
    23  O   -0.660051
    24  H    0.410271
    25  O   -0.823822
    26  H    0.433375
    27  H    0.400336
    28  O   -0.808553
    29  H    0.421121
    30  H    0.396223
 Sum of Mulliken charges =  -0.00000
 Mulliken charges with hydrogens summed into heavy atoms:
               1
     2  C    0.279421
     3  C    0.251152
     4  C    0.461869
     5  C    0.270645
     6  O   -0.539539
     7  C    0.236124
    11  C    0.226163
    14  O   -0.223607
    17  O   -0.234743
    19  O   -0.244532
    21  O   -0.251851
    23  O   -0.249781
    25  O    0.009888
    28  O    0.008792
 Electronic spatial extent (au):  <R**2>=           3449.6630
 Charge=             -0.0000 electrons
 Dipole moment (field-independent basis, Debye):
    X=             -0.4050    Y=              3.8029    Z=              0.2772  Tot=              3.8344
 Quadrupole moment (field-independent basis, Debye-Ang):
   XX=            -82.8563   YY=            -84.7011   ZZ=            -77.2837
   XY=             -4.8527   XZ=             -0.9133   YZ=             -7.6746
 Traceless Quadrupole moment (field-independent basis, Debye-Ang):
   XX=             -1.2426   YY=             -3.0874   ZZ=              4.3300
   XY=             -4.8527   XZ=             -0.9133   YZ=             -7.6746
 Octapole moment (field-independent basis, Debye-Ang**2):
  XXX=             -9.2149  YYY=             44.2053  ZZZ=              9.2726  XYY=              6.6188
  XXY=             16.8468  XXZ=             -3.3942  XZZ=            -31.6974  YZZ=             10.5104
  YYZ=            -15.8122  XYZ=             14.3948
 Hexadecapole moment (field-independent basis, Debye-Ang**3):
 XXXX=          -2123.6617 YYYY=          -1302.3885 ZZZZ=           -315.3988 XXXY=            -70.9890
 XXXZ=             60.7457 YYYX=            -37.9422 YYYZ=            -62.2995 ZZZX=            -44.1539
 ZZZY=            -24.1023 XXYY=           -617.7133 XXZZ=           -341.9108 YYZZ=           -254.5412
 XXYZ=            -50.4142 YYXZ=             12.3393 ZZXY=             -4.5644
 N-N= 1.083688469909D+03 E-N=-4.139878311680D+03  KE= 8.327512501846D+02
 Calling FoFJK, ICntrl=      2127 FMM=F ISym2X=0 I1Cent= 0 IOpClX= 0 NMat=1 NMatS=1 NMatT=0.
 ***** Axes restored to original set *****
 -------------------------------------------------------------------
 Center     Atomic                   Forces (Hartrees/Bohr)
 Number     Number              X              Y              Z
 -------------------------------------------------------------------
      1        1           0.004960440   -0.000441919    0.000962481
      2        6           0.001126113   -0.009009443   -0.004103818
      3        6          -0.003518454    0.017091633   -0.002501913
      4        6          -0.014168604   -0.013770176   -0.019748703
      5        6           0.016372844    0.011556993   -0.003956684
      6        8           0.001328542    0.008268338    0.007163929
      7        6          -0.003187303    0.007674978   -0.000310381
      8        1          -0.002141605    0.008339744    0.006484755
      9        1          -0.011452229   -0.001299558    0.000314820
     10        1           0.003335443   -0.007844930   -0.002141161
     11        6          -0.005107138   -0.010618922   -0.008139572
     12        1           0.003785793   -0.003447474    0.004376885
     13        1           0.006790825   -0.002575739    0.001997675
     14        8           0.013760519    0.022600562    0.007005878
     15        1          -0.002506056   -0.013220271   -0.011444019
     16        1          -0.004700548   -0.009066812    0.003879606
     17        8          -0.002738968    0.007263850    0.003231566
     18        1           0.003586484    0.005214759    0.002845185
     19        8          -0.005325503   -0.000553576    0.005327944
     20        1          -0.001845292   -0.005845137    0.001756872
     21        8          -0.005784271   -0.003242735   -0.001055936
     22        1           0.004941105   -0.004425709   -0.002124335
     23        8          -0.001576173   -0.002665575    0.004122160
     24        1           0.006206049    0.002037392   -0.001147407
     25        8           0.000542144    0.003863779   -0.005602892
     26        1          -0.001008879   -0.002722226    0.002305080
     27        1           0.000718314   -0.000479008   -0.001379069
     28        8          -0.002611325    0.005629144    0.009975392
     29        1           0.000119393   -0.010730917    0.003248898
     30        1           0.000098342    0.002418953   -0.001343236
 -------------------------------------------------------------------
 Cartesian Forces:  Max     0.022600562 RMS     0.006954923

 GradGradGradGradGradGradGradGradGradGradGradGradGradGradGradGradGradGrad
 Berny optimization.
 FormGI is forming the generalized inverse of G from B-inverse, IUseBI=4.
 Internal  Forces:  Max     0.021909081 RMS     0.003951244
 Search for a local minimum.
 Step number   1 out of a maximum of  180
 All quantities printed in internal units (Hartrees-Bohrs-Radians)
 Mixed Optimization -- RFO/linear search
 Second derivative matrix not updated -- first step.
 ITU=  0
     Eigenvalues ---    0.00345   0.00355   0.00856   0.00985   0.01157
     Eigenvalues ---    0.01167   0.01211   0.01348   0.01355   0.01441
     Eigenvalues ---    0.01566   0.01854   0.02360   0.02655   0.03181
     Eigenvalues ---    0.03384   0.04190   0.04586   0.04609   0.04658
     Eigenvalues ---    0.04868   0.05060   0.05139   0.05217   0.05335
     Eigenvalues ---    0.05577   0.05678   0.05741   0.05954   0.06040
     Eigenvalues ---    0.06446   0.07170   0.07297   0.07401   0.07795
     Eigenvalues ---    0.08865   0.09116   0.09962   0.11287   0.11389
     Eigenvalues ---    0.11467   0.12743   0.13779   0.13997   0.16000
     Eigenvalues ---    0.16000   0.16000   0.16000   0.16063   0.16449
     Eigenvalues ---    0.17281   0.17883   0.17997   0.21987   0.26159
     Eigenvalues ---    0.26645   0.28628   0.28780   0.29280   0.33983
     Eigenvalues ---    0.33991   0.33995   0.34012   0.34153   0.34216
     Eigenvalues ---    0.34304   0.34341   0.35611   0.39530   0.39626
     Eigenvalues ---    0.40087   0.40796   0.41573   0.43505   0.47338
     Eigenvalues ---    0.51481   0.51568   0.51711   0.51801   0.52466
     Eigenvalues ---    0.53557   0.536321000.000001000.000001000.00000
     Eigenvalues --- 1000.000001000.000001000.000001000.000001000.00000
     Eigenvalues --- 1000.000001000.000001000.000001000.000001000.00000
     Eigenvalues --- 1000.000001000.000001000.000001000.000001000.00000
     Eigenvalues --- 1000.000001000.000001000.000001000.000001000.00000
     Eigenvalues --- 1000.000001000.000001000.000001000.000001000.00000
     Eigenvalues --- 1000.000001000.000001000.000001000.000001000.00000
     Eigenvalues --- 1000.000001000.000001000.000001000.000001000.00000
     Eigenvalues --- 1000.000001000.000001000.000001000.000001000.00000
     Eigenvalues --- 1000.000001000.000001000.000001000.000001000.00000
     Eigenvalues --- 1000.000001000.000001000.000001000.000001000.00000
     Eigenvalues --- 1000.000001000.000001000.000001000.000001000.00000
     Eigenvalues --- 1000.000001000.000001000.000001000.000001000.00000
     Eigenvalues --- 1000.000001000.000001000.000001000.000001000.00000
     Eigenvalues --- 1000.000001000.000001000.000001000.000001000.00000
     Eigenvalues --- 1000.000001000.000001000.000001000.000001000.00000
     Eigenvalues --- 1000.000001000.000001000.000001000.000001000.00000
     Eigenvalues --- 1000.000001000.000001000.000001000.000001000.00000
     Eigenvalues --- 1000.000001000.00000
 RFO step:  Lambda=-1.75884967D-02 EMin= 3.44571527D-03
 Linear search not attempted -- first point.
 Iteration  1 RMS(Cart)=  0.04691898 RMS(Int)=  0.00154617
 Iteration  2 RMS(Cart)=  0.00202398 RMS(Int)=  0.00063865
 Iteration  3 RMS(Cart)=  0.00000164 RMS(Int)=  0.00063865
 Iteration  4 RMS(Cart)=  0.00000000 RMS(Int)=  0.00063865
 Iteration  1 RMS(Cart)=  0.00000311 RMS(Int)=  0.00000591
 Iteration  2 RMS(Cart)=  0.00000253 RMS(Int)=  0.00000633
 Iteration  3 RMS(Cart)=  0.00000207 RMS(Int)=  0.00000721
 Iteration  4 RMS(Cart)=  0.00000169 RMS(Int)=  0.00000818
 Iteration  5 RMS(Cart)=  0.00000138 RMS(Int)=  0.00000909
 Iteration  6 RMS(Cart)=  0.00000113 RMS(Int)=  0.00000989
 Iteration  7 RMS(Cart)=  0.00000092 RMS(Int)=  0.00001059
 Variable       Old X    -DE/DX   Delta X   Delta X   Delta X     New X
                                 (Linear)    (Quad)   (Total)
    R1        2.07338  -0.00187   0.00000  -0.00522  -0.00522   2.06816
    R2        2.75852  -0.01113   0.00000  -0.03461  -0.03467   2.72385
    R3        2.90465   0.00331   0.00000   0.00938   0.00942   2.91407
    R4        2.89417  -0.00490   0.00000  -0.01581  -0.01580   2.87837
    R5        2.87917  -0.00437   0.00000  -0.01195  -0.01185   2.86732
    R6        2.88409  -0.00870   0.00000  -0.02090  -0.02083   2.86326
    R7        2.07358   0.00113   0.00000   0.00317   0.00317   2.07675
    R8        2.72198  -0.00450   0.00000  -0.01089  -0.01089   2.71108
    R9        2.90465  -0.00446   0.00000  -0.01318  -0.01322   2.89144
   R10        2.73622  -0.00496   0.00000  -0.01272  -0.01287   2.72335
   R11        2.07072  -0.00145   0.00000  -0.00404  -0.00404   2.06668
   R12        2.68556  -0.01171   0.00000  -0.02511  -0.02539   2.66017
   R13        2.07310   0.00084   0.00000   0.00235   0.00235   2.07544
   R14        2.72065  -0.00586   0.00000  -0.01415  -0.01415   2.70650
   R15        3.47710   0.00085   0.00000   0.00349   0.00400   3.48110
   R16        2.07345   0.00134   0.00000   0.00375   0.00375   2.07720
   R17        2.71435  -0.00112   0.00000  -0.00267  -0.00267   2.71169
   R18        2.06959   0.00322   0.00000   0.00889   0.00889   2.07848
   R19        2.06758   0.00210   0.00000   0.00581   0.00581   2.07339
   R20        2.69470   0.00590   0.00000   0.01361   0.01361   2.70831
   R21        1.83738   0.01082   0.00000   0.02101   0.02048   1.85787
   R22        3.42040  -0.00125   0.00000  -0.03188  -0.03157   3.38883
   R23        3.49802   0.00452   0.00000   0.12640   0.12509   3.62310
   R24        1.84156  -0.00660   0.00000  -0.01217  -0.01217   1.82938
   R25        1.85016  -0.00637   0.00000  -0.01194  -0.01194   1.83821
   R26        1.85100  -0.00676   0.00000  -0.01270  -0.01270   1.83829
   R27        1.84790  -0.00599   0.00000  -0.01118  -0.01118   1.83672
   R28        1.86520  -0.00235   0.00000  -0.00586  -0.00533   1.85987
   R29        1.83137  -0.00087   0.00000  -0.00157  -0.00157   1.82980
   R30        3.56857  -0.00179   0.00000  -0.03428  -0.03410   3.53447
   R31        1.87197  -0.00684   0.00000  -0.01424  -0.01311   1.85885
   R32        1.83069  -0.00027   0.00000  -0.00049  -0.00049   1.83019
    A1        1.83753  -0.00175   0.00000  -0.02693  -0.02699   1.81055
    A2        1.89644  -0.00063   0.00000  -0.01310  -0.01311   1.88334
    A3        1.87248   0.00153   0.00000   0.01315   0.01326   1.88575
    A4        1.96029   0.00227   0.00000   0.00832   0.00819   1.96848
    A5        1.93918  -0.00063   0.00000   0.00683   0.00674   1.94593
    A6        1.95164  -0.00087   0.00000   0.00919   0.00895   1.96059
    A7        1.93508  -0.00075   0.00000  -0.01496  -0.01514   1.91993
    A8        1.93298  -0.00037   0.00000  -0.01874  -0.01887   1.91411
    A9        1.90152  -0.00533   0.00000  -0.03595  -0.03568   1.86584
   A10        1.93565  -0.00296   0.00000  -0.01500  -0.01611   1.91954
   A11        1.91654   0.00480   0.00000   0.01794   0.01721   1.93375
   A12        1.83947   0.00489   0.00000   0.07050   0.07046   1.90993
   A13        1.96365   0.00070   0.00000  -0.00054  -0.00034   1.96331
   A14        1.92826  -0.00040   0.00000  -0.01300  -0.01381   1.91445
   A15        1.92750  -0.00300   0.00000  -0.01789  -0.01751   1.90999
   A16        1.87012  -0.00525   0.00000  -0.05559  -0.05645   1.81366
   A17        1.88705   0.00443   0.00000   0.04346   0.04274   1.92979
   A18        1.88449   0.00372   0.00000   0.04591   0.04660   1.93109
   A19        1.94262   0.00143   0.00000   0.00271   0.00243   1.94504
   A20        1.92250  -0.00160   0.00000  -0.00612  -0.00694   1.91556
   A21        1.89781   0.00368   0.00000   0.01399   0.01327   1.91108
   A22        1.92728  -0.00204   0.00000  -0.02428  -0.02366   1.90362
   A23        1.93467  -0.00728   0.00000  -0.05907  -0.05884   1.87582
   A24        1.83594   0.00605   0.00000   0.07671   0.07623   1.91216
   A25        2.08526  -0.00235   0.00000  -0.01639  -0.01660   2.06866
   A26        2.04701   0.00003   0.00000  -0.00607  -0.00576   2.04125
   A27        1.88086   0.00075   0.00000   0.00269   0.00206   1.88292
   A28        1.94196  -0.00184   0.00000  -0.01012  -0.01012   1.93185
   A29        1.94056  -0.00139   0.00000  -0.01250  -0.01327   1.92728
   A30        1.94721   0.00363   0.00000   0.01567   0.01528   1.96248
   A31        1.89703   0.00040   0.00000  -0.01693  -0.01707   1.87997
   A32        1.89429  -0.00397   0.00000  -0.02761  -0.02741   1.86687
   A33        1.83908   0.00331   0.00000   0.05338   0.05333   1.89241
   A34        1.92442   0.00073   0.00000  -0.01520  -0.01444   1.90998
   A35        1.94678  -0.00050   0.00000  -0.02167  -0.02075   1.92602
   A36        1.91666  -0.02191   0.00000  -0.09369  -0.09375   1.82292
   A37        1.88080  -0.00051   0.00000   0.00976   0.00759   1.88839
   A38        1.90224   0.01082   0.00000   0.05766   0.05544   1.95768
   A39        1.89190   0.01233   0.00000   0.06863   0.06636   1.95827
   A40        1.83596  -0.00023   0.00000   0.02497   0.02334   1.85930
   A41        2.73820   0.00362   0.00000   0.02428   0.02431   2.76252
   A42        2.55400   0.00267   0.00000   0.01186   0.01264   2.56664
   A43        1.85935   0.00369   0.00000   0.02077   0.02077   1.88012
   A44        1.82581   0.00016   0.00000   0.00088   0.00088   1.82669
   A45        1.82368   0.00292   0.00000   0.01646   0.01646   1.84014
   A46        1.84860   0.00162   0.00000   0.00911   0.00911   1.85771
   A47        1.83954  -0.00062   0.00000  -0.00639  -0.00640   1.83314
   A48        1.75401   0.00287   0.00000   0.02126   0.02097   1.77498
   A49        2.07142  -0.00197   0.00000  -0.01590  -0.01625   2.05518
   A50        2.05539  -0.00246   0.00000  -0.02597  -0.02640   2.02899
   A51        1.83071  -0.00192   0.00000  -0.00592  -0.00572   1.82499
   A52        1.79469  -0.00299   0.00000  -0.01448  -0.01565   1.77903
   A53        3.14500  -0.00141   0.00000  -0.03542  -0.03478   3.11021
   A54        3.05358  -0.00489   0.00000  -0.08711  -0.08807   2.96550
   A55        2.92238  -0.00097   0.00000   0.01974   0.01927   2.94165
   A56        2.94144  -0.00178   0.00000   0.00942   0.00905   2.95049
    D1       -2.84588   0.00061   0.00000   0.01339   0.01334  -2.83254
    D2        1.11065   0.00222   0.00000   0.03687   0.03700   1.14765
    D3       -0.78504  -0.00001   0.00000  -0.01443  -0.01440  -0.79944
    D4       -3.11170   0.00160   0.00000   0.00904   0.00927  -3.10243
    D5        1.41575   0.00009   0.00000   0.00965   0.00963   1.42538
    D6       -0.91091   0.00170   0.00000   0.03313   0.03330  -0.87761
    D7        1.90192  -0.00213   0.00000  -0.03635  -0.03635   1.86557
    D8       -2.26400  -0.00386   0.00000  -0.07358  -0.07340  -2.33739
    D9       -0.21646   0.00171   0.00000  -0.00480  -0.00475  -0.22121
   D10       -0.12373  -0.00092   0.00000   0.00000  -0.00002  -0.12375
   D11        1.99354  -0.00264   0.00000  -0.03723  -0.03706   1.95647
   D12       -2.24211   0.00293   0.00000   0.03155   0.03158  -2.21053
   D13       -2.31775  -0.00117   0.00000  -0.02298  -0.02305  -2.34081
   D14       -0.20049  -0.00289   0.00000  -0.06021  -0.06010  -0.26059
   D15        1.84705   0.00268   0.00000   0.00857   0.00854   1.85560
   D16       -1.08854   0.00035   0.00000   0.00488   0.00446  -1.08408
   D17        3.10564   0.00083   0.00000   0.01681   0.01735   3.12299
   D18        1.00786   0.00028   0.00000   0.00715   0.00714   1.01500
   D19        0.91133  -0.00119   0.00000  -0.01619  -0.01669   0.89464
   D20       -1.17768  -0.00071   0.00000  -0.00427  -0.00380  -1.18148
   D21        3.00772  -0.00125   0.00000  -0.01393  -0.01401   2.99372
   D22        3.11690   0.00065   0.00000   0.00729   0.00681   3.12371
   D23        1.02789   0.00113   0.00000   0.01922   0.01971   1.04760
   D24       -1.06989   0.00059   0.00000   0.00956   0.00950  -1.06039
   D25       -0.96996   0.00171   0.00000  -0.01584  -0.01593  -0.98588
   D26        1.17378  -0.00102   0.00000  -0.04922  -0.04903   1.12475
   D27       -3.10602   0.00742   0.00000   0.04703   0.04717  -3.05885
   D28        1.18660  -0.00288   0.00000  -0.05896  -0.05913   1.12747
   D29       -2.95285  -0.00561   0.00000  -0.09233  -0.09223  -3.04508
   D30       -0.94947   0.00283   0.00000   0.00391   0.00397  -0.94550
   D31       -3.08105  -0.00030   0.00000  -0.00531  -0.00563  -3.08668
   D32       -0.93732  -0.00303   0.00000  -0.03869  -0.03873  -0.97605
   D33        1.06607   0.00541   0.00000   0.05756   0.05747   1.12354
   D34        0.96958  -0.00043   0.00000   0.01161   0.01168   0.98127
   D35       -1.17292   0.00225   0.00000   0.04544   0.04563  -1.12729
   D36        3.11858   0.00021   0.00000   0.00580   0.00607   3.12465
   D37       -1.18544   0.00268   0.00000   0.05694   0.05661  -1.12883
   D38        2.95524   0.00536   0.00000   0.09077   0.09056   3.04580
   D39        0.96355   0.00333   0.00000   0.05114   0.05100   1.01455
   D40        3.07178  -0.00444   0.00000  -0.03113  -0.03125   3.04053
   D41        0.92927  -0.00176   0.00000   0.00270   0.00270   0.93197
   D42       -1.06241  -0.00379   0.00000  -0.03693  -0.03686  -1.09928
   D43        2.95943   0.00006   0.00000   0.00228   0.00264   2.96207
   D44        0.83703   0.00137   0.00000   0.03231   0.03310   0.87013
   D45       -1.24877  -0.00041   0.00000   0.00056  -0.00058  -1.24936
   D46        0.12114  -0.00357   0.00000   0.00000   0.00001   0.12116
   D47       -2.01985  -0.00109   0.00000   0.02298   0.02340  -1.99644
   D48        2.23579  -0.00291   0.00000  -0.02090  -0.02072   2.21507
   D49       -1.96807   0.00291   0.00000   0.07999   0.07991  -1.88816
   D50        2.17413   0.00539   0.00000   0.10297   0.10330   2.27743
   D51        0.14658   0.00357   0.00000   0.05909   0.05918   0.20576
   D52        2.23142   0.00046   0.00000   0.04261   0.04206   2.27348
   D53        0.09043   0.00293   0.00000   0.06559   0.06545   0.15588
   D54       -1.93712   0.00112   0.00000   0.02171   0.02132  -1.91579
   D55        0.78643   0.00236   0.00000   0.01375   0.01374   0.80017
   D56       -3.10170   0.00075   0.00000  -0.01041  -0.01033  -3.11202
   D57        2.90906  -0.00125   0.00000  -0.04039  -0.03942   2.86964
   D58       -0.97906  -0.00287   0.00000  -0.06455  -0.06349  -1.04255
   D59       -1.34687   0.00262   0.00000   0.00642   0.00583  -1.34105
   D60        1.04818   0.00100   0.00000  -0.01775  -0.01824   1.02994
   D61        2.65201   0.00193   0.00000   0.03881   0.03930   2.69132
   D62       -1.47585   0.00381   0.00000   0.05554   0.05600  -1.41985
   D63        0.54202   0.00188   0.00000   0.03663   0.03781   0.57983
   D64       -0.81132  -0.00141   0.00000  -0.02916  -0.02998  -0.84130
   D65       -2.95219  -0.00096   0.00000  -0.00369  -0.00447  -2.95666
   D66        1.24769   0.00173   0.00000   0.01107   0.01266   1.26036
   D67       -2.26786  -0.00192   0.00000  -0.01553  -0.01538  -2.28324
   D68        1.89319  -0.00072   0.00000  -0.01323  -0.01313   1.88007
   D69        1.64236   0.00121   0.00000   0.01562   0.01583   1.65819
   D70       -0.47978   0.00241   0.00000   0.01792   0.01808  -0.46170
   D71       -1.00783  -0.00330   0.00000  -0.07037  -0.07083  -1.07866
   D72        3.12952  -0.00063   0.00000  -0.04889  -0.04919   3.08033
   D73        1.10010  -0.00090   0.00000  -0.04350  -0.04275   1.05735
   D74       -3.08503  -0.00062   0.00000  -0.01452  -0.01476  -3.09978
   D75       -0.97520  -0.00645   0.00000  -0.05488  -0.05773  -1.03293
   D76        1.06737   0.00574   0.00000   0.02657   0.02965   1.09702
   D77        2.78353  -0.00334   0.00000  -0.07875  -0.08039   2.70314
   D78        1.63074  -0.00434   0.00000  -0.07978  -0.07934   1.55140
   D79       -0.05803   0.00179   0.00000   0.06310   0.06296   0.00493
   D80       -0.95756   0.00219   0.00000   0.04058   0.04082  -0.91673
   D81       -1.93609   0.00072   0.00000  -0.00125  -0.00144  -1.93753
   D82        2.39125   0.00143   0.00000   0.01410   0.01390   2.40515
   D83        0.14772  -0.00108   0.00000  -0.02722  -0.02754   0.12018
   D84       -1.84464  -0.00139   0.00000  -0.02677  -0.02649  -1.87113
         Item               Value     Threshold  Converged?
 Maximum Force            0.021909     0.000450     NO
 RMS     Force            0.003931     0.000300     NO
 Maximum Displacement     0.231959     0.001800     NO
 RMS     Displacement     0.047212     0.001200     NO
 Predicted change in Energy=-1.078329D-02
 GradGradGradGradGradGradGradGradGradGradGradGradGradGradGradGradGradGrad

                          Input orientation:
 ---------------------------------------------------------------------
 Center     Atomic      Atomic             Coordinates (Angstroms)
 Number     Number       Type             X           Y           Z
 ---------------------------------------------------------------------
      1          1           0       -1.696619    0.183721    1.526345
      2          6           0       -1.167456   -0.178948    0.639655
      3          6           0        0.983118    1.031621    0.155908
      4          6           0        0.921681   -1.478428    0.347549
      5          6           0        1.573397   -0.275903   -0.338272
      6          8           0       -0.197718   -1.102118    1.173507
      7          6           0       -0.517412    1.035112   -0.054209
      8          1           0        1.627773   -1.928863    1.050825
      9          1           0        1.430327   -0.360939   -1.423866
     10          1           0       -0.703571    1.003154   -1.137064
     11          6           0       -2.176673   -0.885627   -0.255962
     12          1           0       -2.596011   -1.751379    0.277306
     13          1           0       -1.688120   -1.249147   -1.168646
     14          8           0        0.525304   -2.414786   -0.625970
     15          1           0        0.513676   -3.291923   -0.182055
     16          1           0        1.213251    1.161629    1.222619
     17          8           0       -3.168481    0.111175   -0.532899
     18          1           0       -3.858395   -0.301433   -1.072279
     19          8           0        2.972545   -0.313725   -0.034632
     20          1           0        3.313536    0.545460   -0.337534
     21          8           0        1.605452    2.081621   -0.598018
     22          1           0        1.100002    2.885777   -0.387871
     23          8           0       -1.008400    2.284115    0.453768
     24          1           0       -1.961542    2.302470    0.264374
     25          8           0       -1.133946   -3.530881    2.243867
     26          1           0       -0.849583   -2.628579    1.972502
     27          1           0       -0.737786   -3.667102    3.116838
     28          8           0        0.050004   -4.996312    0.127732
     29          1           0       -0.496957   -4.571625    0.826351
     30          1           0       -0.593606   -5.383129   -0.483924
 ---------------------------------------------------------------------
                    Distance matrix (angstroms):
                    1          2          3          4          5
     1  H    0.000000
     2  C    1.094423   0.000000
     3  C    3.126983   2.514847   0.000000
     4  C    3.317799   2.477593   2.518104   0.000000
     5  C    3.792236   2.911703   1.517320   1.530082   0.000000
     6  O    2.006135   1.441399   2.642484   1.441135   2.470821
     7  C    2.147918   1.542059   1.515174   2.924086   2.484136
     8  H    3.967457   3.323337   3.159259   1.093643   2.159820
     9  H    4.333381   3.322606   2.152882   2.155323   1.098278
    10  H    2.958270   2.183868   2.125443   3.317193   2.731051
    11  C    2.133207   1.523169   3.718838   3.211765   3.800205
    12  H    2.472572   2.155135   4.535415   3.528965   4.465415
    13  H    3.052239   2.164803   3.753913   3.026959   3.503458
    14  O    4.040005   3.076721   3.563516   1.407701   2.399185
    15  H    4.459163   3.632083   4.362067   1.932800   3.200593
    16  H    3.084785   2.793699   1.098971   2.796544   2.152344
    17  O    2.532218   2.337340   4.307836   4.475651   4.761629
    18  H    3.414893   3.191688   5.169693   5.123510   5.481220
    19  O    4.948251   4.196717   2.409166   2.389276   1.432216
    20  H    5.357850   4.643162   2.431190   3.207247   1.924246
    21  O    4.361034   3.785633   1.434644   3.746410   2.372006
    22  H    4.334331   3.948381   1.935782   4.429325   3.197308
    23  O    2.456771   2.475183   2.371415   4.230038   3.721114
    24  H    2.480293   2.632269   3.209026   4.755532   4.416670
    25  O    3.824880   3.716192   5.445912   3.469033   4.959035
    26  H    2.970783   2.806816   4.478378   2.664712   4.092138
    27  H    4.275262   4.299800   5.814346   3.900396   5.364661
    28  O    5.642654   4.995125   6.099792   3.630929   4.981982
    29  H    4.954038   4.447476   5.834079   3.436517   4.908762
    30  H    6.020601   5.354927   6.636600   4.270145   5.549854
                    6          7          8          9         10
     6  O    0.000000
     7  C    2.485406   0.000000
     8  H    2.007729   3.822050   0.000000
     9  H    3.153763   2.760181   2.936233   0.000000
    10  H    3.166511   1.099204   4.338058   2.548828   0.000000
    11  C    2.450818   2.546191   4.155700   3.827498   2.552227
    12  H    2.641311   3.492135   4.297696   4.586797   3.628942
    13  H    2.780035   2.798280   4.047619   3.252501   2.458291
    14  O    2.341789   3.649104   2.064752   2.382014   3.667923
    15  H    2.671868   4.450025   2.149219   3.312554   4.565240
    16  H    2.667919   2.154412   3.122896   3.060918   3.044244
    17  O    3.634465   2.847977   5.447384   4.708051   2.690060
    18  H    4.368661   3.739651   6.103616   5.300729   3.414536
    19  O    3.483063   3.741596   2.365438   2.076207   4.057506
[...]
 -0.00039455,0.00015965,0.00027745,0.00005941,-0.00017900,-0.00000677,-
 0.00043880,0.00005580,0.00008016,0.00085552,0.00101798,0.00114323,-0.0
 0024570,0.00148190,-0.00009671,0.00053461,-0.00062431,-0.00021034,-0.0
 0004419,-0.00006097,0.00004197,-0.00119092,0.00054759,0.00058380,0.001
 20550,0.00073002,-0.00090996,-0.00564279,-0.03466343,-0.01825002,-0.03
 979591,0.04567545,0.00003783,0.00083912,-0.00086320,-0.00100968,0.0003
 0608,0.00115824,0.00139005,-0.00325015,-0.00175996,-0.00019309,0.00016
 654,0.00046006,0.00090736,0.00029336,0.00087450,0.00060841,-0.00032873
 ,-0.00053953,0.02037849,-0.00639376,0.00349863,0.00005594,-0.00001287,
 -0.00006193,-0.00005625,0.00009979,-0.00012178,0.00135302,0.00003613,0
 .00046643,0.00109207,-0.00081608,0.00060573,-0.00026020,0.00024458,-0.
 00018074,-0.00012250,-0.00003536,-0.00023057,-0.00008090,-0.00012329,-
 0.00024092,-0.00000084,0.00001212,0.00001511,0.00008809,-0.00008368,0.
 00022218,0.00000647,0.00173768,-0.00125439,-0.00012626,-0.00014405,-0.
 00009849,0.00043205,-0.00038182,-0.00024516,-0.00005324,-0.00004555,0.
 00004580,0.00004797,-0.00030289,-0.00011081,-0.00055906,-0.00016788,0.
 00011740,-0.15437204,-0.00241464,-0.06076993,0.13043331,0.01071444,0.0
 5902966,0.00023089,-0.00050468,-0.00017827,-0.00407748,0.00043827,0.00
 050856,-0.00008390,0.00049764,-0.00006526,0.00051561,0.00016644,-0.001
 31738,0.00015263,0.00040268,-0.00008918,0.00288416,-0.00678530,0.00433
 151,0.00059462,-0.00000881,0.00026841,0.00060672,0.00010963,0.00001493
 ,-0.00004418,-0.00012117,0.00009681,-0.00007948,-0.00012424,0.00013426
 ,-0.00070703,-0.00183416,0.00057306,0.00025738,0.00081852,0.00003932,0
 .00009379,0.00034988,-0.00031575,0.00038326,-0.00113363,0.00089079,-0.
 00000510,0.00186406,-0.00141603,0.00002949,0.00002673,0.00003994,0.000
 58231,0.00071445,-0.00022275,-0.00001352,-0.00013831,0.00021509,-0.000
 18638,-0.00033912,0.00008473,-0.00000485,0.00005241,0.00001574,0.00009
 937,-0.00041694,0.00008476,-0.00004844,0.00002390,-0.00000347,0.000300
 23,-0.00055310,-0.00011406,-0.00012472,-0.00004029,0.00002385,0.154293
 38,0.00008534,0.00040230,-0.00002465,-0.00435140,0.00188682,-0.0006165
 1,0.00063385,0.00074814,-0.00023545,0.00519208,-0.00744081,-0.00553203
 ,-0.00022962,0.00108984,0.00046275,-0.00907424,-0.00998630,0.01284969,
 0.00079118,0.00059554,0.00001329,-0.00038881,0.00007492,0.00007415,-0.
 00012452,-0.00027551,0.00027407,-0.00012292,-0.00027658,0.00029882,-0.
 00035205,0.00014235,-0.00063365,-0.00011849,-0.00041203,-0.00016308,-0
 .00001914,-0.00022845,0.00031537,0.00021167,0.00545523,0.00199312,-0.0
 0050800,-0.00538132,0.00169917,0.00003962,0.00008551,0.00010033,0.0008
 6601,-0.00038785,0.00069274,-0.00001285,-0.00003450,-0.00007095,-0.001
 03187,-0.00030769,0.00032445,0.00005746,-0.00001258,-0.00008345,-0.000
 56142,-0.00063862,0.00028674,0.00014812,0.00019242,-0.00000758,-0.0000
 2902,-0.00123449,0.00008596,-0.00011666,0.00028782,-0.00010970,0.15336
 652,0.39220316,-0.00022946,0.00042380,0.00005879,0.00210949,-0.0015335
 9,-0.00025937,-0.00014461,-0.00037274,-0.00015624,-0.00221210,-0.00016
 124,0.00001683,-0.00020445,-0.00029448,-0.00003468,0.00405309,0.009000
 69,-0.00120902,-0.00017365,-0.00023352,-0.00008133,0.00018194,-0.00003
 208,0.00000882,0.00004071,0.00004853,-0.00000480,0.00002499,0.00006306
 ,-0.00002223,-0.00014360,-0.00105253,0.00032435,0.00050858,0.00032747,
 -0.00028164,0.00010536,0.00006973,0.00010226,0.00120181,0.00152911,-0.
 00048221,-0.00118838,-0.00184180,0.00130818,0.00000801,-0.00000218,0.0
 0002629,-0.00075235,0.00088160,-0.00022547,0.00012173,-0.00003157,0.00
 002410,0.00049051,0.00029498,0.00005143,-0.00002710,-0.00004149,-0.000
 03781,0.00018368,0.00044026,-0.00000142,-0.00004927,-0.00006954,-0.000
 04411,-0.00015102,0.00070343,0.00021119,0.00006388,-0.00014335,-0.0000
 7375,0.09400512,-0.14365953,0.55392237,-0.00034633,0.00069276,0.000313
 68,0.00706035,0.00078620,-0.00189967,-0.00011974,-0.00064829,0.0001945
 3,-0.00347259,0.00027286,0.00420948,-0.00019687,-0.00041592,-0.0000291
 3,-0.00846246,0.00242079,-0.00128718,-0.00127941,0.00016392,-0.0004495
 3,-0.00047307,-0.00001953,-0.00010121,0.00006465,0.00016757,-0.0001653
 6,0.00014892,0.00023870,-0.00027347,0.00094229,0.00291488,-0.00082768,
 -0.00153926,-0.00072165,-0.00053436,-0.00013669,-0.00045340,0.00033646
 ,-0.00037490,-0.00135892,-0.00168627,0.00023160,0.00125308,0.00065998,
 -0.00003951,-0.00005871,-0.00007791,-0.00053896,-0.00114930,0.00016510
 ,-0.00009472,0.00013313,-0.00019187,0.00037770,0.00028305,-0.00016450,
 -0.00002232,-0.00002588,0.00001198,0.00001681,0.00047194,-0.00014822,0
 .00001519,-0.00005048,0.00000730,-0.00024621,0.00087200,0.00007195,0.0
 0015057,0.00001678,0.00001564,-0.08838412,-0.15806041,0.04813889,0.090
 32448,-0.00019546,-0.00020930,0.00000786,0.00625516,-0.00530245,0.0017
 3543,-0.00066066,-0.00104277,0.00023418,-0.00728839,0.01119574,0.00607
 161,0.00061764,-0.00154007,-0.00087638,0.00584285,-0.00493205,-0.00583
 284,-0.00078130,-0.00064663,-0.00027542,0.00084109,-0.00014405,-0.0000
 7455,0.00018271,0.00040700,-0.00037567,0.00017600,0.00036550,-0.000389
 66,0.00094853,0.00150103,0.00054057,-0.00020891,-0.00002081,0.00024658
 ,-0.00011120,0.00002158,-0.00021682,-0.00053275,-0.00542962,-0.0026055
 7,0.00113916,0.00376610,-0.00224625,-0.00006262,-0.00009817,-0.0001164
 4,-0.00122359,-0.00020188,-0.00068051,-0.00004965,0.00014752,-0.000079
 82,0.00129947,0.00056314,-0.00035236,-0.00001355,-0.00001661,0.0000693
 3,0.00057628,0.00082738,-0.00028794,-0.00013783,-0.00021311,-0.0000110
 7,-0.00012770,0.00146587,-0.00002111,0.00017448,-0.00027408,0.00010487
 ,-0.13872751,-0.32415296,0.11893645,0.13511786,0.33195450,0.00040667,-
 0.00056283,0.00002642,-0.00433870,0.00407436,-0.00051019,0.00039177,0.
 00064178,0.00010982,0.00608615,-0.00145326,-0.00392238,0.00027429,0.00
 055625,0.00040006,-0.00296598,-0.00459503,-0.00228478,0.00043841,0.000
 36362,0.00026583,-0.00045792,0.00002749,0.00014251,-0.00010900,-0.0001
 8239,0.00013193,-0.00009242,-0.00020398,0.00015824,-0.00032608,0.00063
 445,-0.00086758,-0.00061073,-0.00015421,0.00014085,-0.00007649,-0.0000
 0730,-0.00009079,-0.00144335,0.00166746,0.00150053,0.00102018,-0.00239
 317,-0.00038655,0.00001334,0.00004736,0.00003087,0.00107448,-0.0007787
 6,0.00049071,-0.00006851,-0.00005915,-0.00000563,-0.00083983,-0.000308
 59,0.00004492,0.00005564,0.00002224,0.00000424,-0.00037913,-0.00064434
 ,0.00008191,0.00009147,0.00012690,0.00004707,0.00017500,-0.00112638,-0
 .00021207,-0.00010631,0.00020799,0.00003355,0.02037559,0.07039764,-0.0
 8527666,-0.03577846,-0.10722412,0.10219205,-0.00003258,0.00009819,0.00
 003838,0.00018793,-0.00023676,-0.00019770,0.00003246,-0.00007676,0.000
 03626,0.00061511,-0.00016218,0.00028549,-0.00008055,-0.00002418,0.0000
 1504,-0.00107637,-0.00082728,0.00007301,0.00004307,-0.00006405,0.00001
 461,-0.00024468,0.00000944,0.00000023,0.00000421,0.00003207,-0.0000259
 3,-0.00001391,-0.00000206,0.00000774,-0.00009301,-0.00022767,0.0000323
 8,0.00030813,-0.00004395,0.00017612,0.00003373,0.00003849,0.00000860,-
 0.00023563,0.00002837,-0.00012899,0.00017921,-0.00005082,0.00006610,0.
 00000332,-0.00001108,-0.00001532,-0.00022040,0.00016350,-0.00002816,0.
 00003689,0.00000546,-0.00001426,-0.00001861,0.00004503,-0.00004158,-0.
 00000810,-0.00001261,0.00000358,-0.00002750,0.00010504,-0.00003590,0.0
 0001647,-0.00001105,0.00000614,-0.00008173,0.00009129,0.00005028,0.000
 02281,-0.00001138,-0.00002748,-0.05728110,0.00519362,-0.15608395,0.005
 05784,-0.00297051,0.01913123,0.05259628,0.00009735,-0.00014755,-0.0000
 0500,-0.00004762,0.00025938,0.00011333,-0.00004225,-0.00006159,0.00010
 195,-0.00014481,0.00005070,0.00017502,-0.00010423,0.00000493,0.0000559
 0,-0.00132708,-0.00184646,-0.00023104,0.00002039,-0.00012177,0.0000017
 6,-0.00005928,0.00002956,0.00002616,0.00000978,0.00000094,-0.00001102,
 0.00000846,0.00003088,-0.00003219,0.00016496,0.00016632,0.00003793,-0.
 00005558,-0.00015635,0.00000188,-0.00003461,-0.00002977,-0.00002637,0.
 00004677,-0.00014344,-0.00016295,-0.00012581,0.00005376,0.00007219,-0.
 00001769,-0.00001079,-0.00002741,-0.00005129,-0.00003923,-0.00004939,0
 .00000775,-0.00001136,0.00000898,0.00009652,-0.00001504,-0.00004524,-0
 .00003347,0.00000693,0.00002103,0.00007243,0.00009219,-0.00007711,-0.0
 0001601,-0.00002973,0.00001753,0.00001426,0.00006446,-0.00006728,0.000
 00815,-0.00003721,0.00003968,-0.01197482,-0.04555210,0.02054377,0.0156
 1633,-0.00021811,0.04209825,-0.00041289,0.04592335,0.00002317,0.000022
 87,-0.00000448,-0.00032072,0.00037228,-0.00003851,0.00001733,0.0000854
 3,0.00001794,0.00007253,0.00002787,-0.00033708,0.00009633,0.00006757,0
 .00001590,0.00012868,-0.00045851,0.00074475,0.00000701,0.00010905,0.00
 002731,0.00016318,0.00002105,0.00000674,-0.00001391,-0.00003356,0.0000
 1607,-0.00000944,-0.00002405,0.00001179,-0.00004866,-0.00010579,0.0000
 2147,-0.00016550,0.00012186,-0.00027596,-0.00000227,-0.00000191,0.0000
 0539,0.00006633,-0.00010434,0.00018706,-0.00007103,0.00018448,-0.00019
 323,0.00000064,0.00000527,0.00000169,0.00012791,-0.00001732,0.00004683
 ,-0.00000941,0.00000036,0.00000610,-0.00008352,-0.00005928,0.00000558,
 0.00001420,0.00000830,0.00000696,-0.00003339,-0.00011803,0.00001483,0.
 00000728,0.00001848,0.00000533,0.00004119,-0.00013141,-0.00003122,-0.0
 0001586,0.00002970,0.00000448,-0.12475607,0.06554770,-0.45265150,-0.00
 915625,-0.00498584,-0.01515906,0.13455875,-0.06029515,0.47012280,0.000
 10542,-0.00012200,0.00002370,-0.00012357,-0.00009867,-0.00020011,-0.00
 023389,0.00006100,0.00007017,-0.00141845,0.00214844,0.00254064,-0.0001
 0806,0.00000239,-0.00004356,0.00204129,0.00050224,-0.00148226,-0.00010
 826,-0.00011087,0.00011724,0.00020485,0.00029795,0.00013511,-0.0000146
 7,0.00002433,-0.00006950,-0.00000726,0.00002529,-0.00003120,-0.0001386
 4,-0.00081403,0.00051487,0.00036071,0.00012119,-0.00015432,-0.00006373
 ,-0.00000168,-0.00007013,0.00360179,-0.00758502,0.00143116,-0.00686397
 ,0.00342956,-0.00137726,0.00000768,-0.00002828,-0.00002426,-0.00002459
 ,0.00052279,-0.00020067,0.00001575,-0.00009657,0.00010503,0.00021568,-
 0.00021342,-0.00012445,-0.00002977,0.00004886,0.00005053,0.00022820,-0
 .00004392,-0.00005687,-0.00006631,-0.00003899,-0.00000173,0.00016677,0
 .00014092,-0.00006160,-0.00002236,-0.00009990,0.00001623,0.00133889,0.
 00672081,0.00954477,-0.00207537,-0.00191463,0.00182667,-0.00190165,0.0
 0266604,0.00057317,0.40126261,0.00019861,-0.00015783,-0.00000772,-0.00
 123860,0.00138883,-0.00027114,-0.00025178,0.00056784,0.00018483,0.0015
 1528,0.00534996,0.00886496,0.00070050,-0.00050846,-0.00109863,0.001771
 08,-0.00250652,-0.00186951,-0.00019823,0.00058801,0.00006464,-0.000084
 29,0.00000815,-0.00094851,-0.00000683,0.00016041,-0.00031858,-0.000037
 02,-0.00004650,0.00001193,-0.00059841,0.00040128,0.00012613,-0.0001535
 2,-0.00005192,-0.00000187,-0.00017129,0.00006026,-0.00027472,-0.006184
 25,-0.02180381,0.00679824,0.00626482,-0.00143098,-0.00531105,0.0000342
 3,-0.00005730,-0.00004349,0.00093055,-0.00060327,0.00016656,-0.0001405
 4,0.00000605,-0.00003116,-0.00107897,-0.00054569,-0.00001941,0.0000861
 4,0.00006050,-0.00001460,-0.00018827,-0.00096471,0.00010638,0.00003288
 ,0.00008915,0.00001090,0.00026072,-0.00077850,-0.00012503,-0.00007856,
 0.00019003,-0.00002313,0.00617625,-0.00046936,-0.01055484,-0.00074506,
 0.00137251,0.00135574,0.00130478,-0.00224306,-0.00025930,0.10397649,0.
 25062560,-0.00009671,0.00025680,0.00004737,-0.00031883,-0.00007129,-0.
 00012906,0.00041176,-0.00009282,-0.00029052,0.00031879,-0.00311163,-0.
 00942305,-0.00015218,0.00066084,0.00112928,-0.00253550,-0.00040402,0.0
 0386205,0.00032515,-0.00011066,-0.00012593,0.00075078,0.00041612,0.001
 04354,-0.00008418,-0.00036303,0.00030980,-0.00000455,-0.00006792,0.000
 11931,0.00045265,0.00012992,-0.00064216,-0.00014032,-0.00012622,-0.000
 21637,0.00003622,-0.00022808,0.00038370,0.00386581,0.01537535,0.005121
 16,-0.00484671,-0.00978167,-0.01067290,-0.00000218,0.00008421,0.000107
 51,-0.00031738,0.00011640,0.00032360,0.00012899,-0.00002058,-0.0000898
 8,0.00032069,0.00036879,0.00025674,0.00001429,-0.00008531,-0.00008010,
 -0.00011327,0.00034922,0.00012391,0.00003061,0.00002421,-0.00004222,-0
 .00021165,0.00006882,0.00018640,0.00001966,0.00000046,-0.00006390,0.00
 970197,-0.01490841,-0.01012170,0.00160415,0.00418236,-0.00371448,0.000
 65319,-0.00080929,0.00114246,-0.02528403,0.26183344,0.43560151,-0.0000
 9349,0.00016452,-0.00000056,0.00003741,0.00009261,0.00010457,0.0002347
 0,-0.00004295,-0.00009881,0.00162842,-0.00231822,-0.00161496,-0.000200
 23,0.00011071,0.00011975,-0.00212683,-0.00068997,0.00168376,0.00010276
 ,0.00008155,-0.00009460,-0.00035507,-0.00003708,-0.00009321,-0.0000001
 0,-0.00000069,0.00004091,-0.00000025,-0.00002791,0.00003699,0.00020486
 ,0.00068427,-0.00049926,-0.00029970,-0.00011337,-0.00001284,0.00000786
 ,-0.00010969,0.00014357,0.00001838,0.00297062,0.00000964,-0.00104935,-
 0.00368694,0.00263972,-0.00000313,0.00002423,0.00002353,-0.00000924,-0
 .00037767,0.00022453,0.00001020,0.00005806,-0.00009903,-0.00013611,0.0
 0011206,0.00008385,0.00001127,-0.00003554,-0.00004174,-0.00018456,0.00
 006868,0.00005354,0.00005645,0.00003747,-0.00000135,-0.00013864,-0.000
 11102,0.00006504,0.00001614,0.00007659,-0.00002430,-0.00910673,0.00064
 741,-0.00042315,0.00318757,0.00207017,-0.00370577,0.00213620,-0.004238
 93,-0.00115450,-0.18077572,0.07108071,0.18715726,0.17119813,-0.0000157
 1,-0.00009586,0.00000285,0.00100449,-0.00082838,0.00012988,-0.00023536
 ,-0.00022148,0.00009234,-0.00214470,0.00041943,0.00321799,-0.00029769,
 -0.00025483,-0.00018955,0.00149679,0.00210681,-0.00191660,-0.00017938,
 -0.00026283,0.00005668,-0.00027897,0.00006965,-0.00015785,0.00004766,0
 .00013348,-0.00010486,0.00002420,0.00008522,-0.00009395,0.00003460,-0.
 00055407,0.00049627,0.00029321,0.00016530,0.00008349,0.00002540,0.0000
 9208,-0.00011178,0.00095848,-0.00501883,-0.00154496,-0.00284559,0.0081
 9864,0.00344047,-0.00001124,-0.00003683,-0.00005146,-0.00035523,0.0004
 3902,-0.00034858,0.00001527,-0.00001000,0.00008264,0.00037140,-0.00001
 577,-0.00015255,-0.00006149,0.00002542,0.00005111,0.00024555,0.0002561
 6,-0.00013399,-0.00006169,-0.00007747,0.00001350,0.00004263,0.00044317
 ,-0.00005061,0.00002835,-0.00013453,0.00004578,-0.00302696,-0.00618165
 ,0.00633623,0.00254449,-0.00919212,-0.00232228,-0.00205217,0.00367919,
 -0.00007514,0.04062032,-0.06883431,-0.09110208,-0.05258069,0.08404985,
 0.00008322,-0.00028431,-0.00004853,0.00052258,-0.00013356,0.00022841,-
 0.00026006,0.00000211,0.00021657,-0.00085233,0.00404050,0.00490765,0.0
 0024793,-0.00027798,-0.00032300,0.00243015,0.00100263,-0.00353835,-0.0
 0026395,-0.00000424,0.00006396,-0.00008417,-0.00006166,-0.00024417,0.0
 0002835,0.00013540,-0.00017439,0.00001750,0.00007078,-0.00011033,-0.00
 028451,-0.00008929,0.00043077,0.00012163,0.00011801,0.00039891,0.00000
 801,0.00022451,-0.00033233,-0.00193840,-0.00599989,-0.00040920,0.00413
 621,0.00720367,-0.00538476,-0.00000913,-0.00005914,-0.00007694,0.00014
 617,-0.00010610,-0.00029283,-0.00008872,0.00002966,0.00006846,-0.00001
 269,-0.00017127,-0.00021099,-0.00000323,0.00005435,0.00007368,0.000130
 16,-0.00012234,-0.00011789,-0.00003287,-0.00003246,0.00002898,0.000144
 03,0.00006360,-0.00014752,-0.00000131,-0.00002940,0.00006690,-0.005026
 62,0.01060303,-0.00438236,-0.00273718,-0.00540813,0.00637368,0.0015262
 9,-0.00145092,-0.00383191,0.13866455,-0.10670617,-0.23496962,-0.154344
 60,0.10449248,0.25945943,-0.00000872,-0.00000516,-0.00000863,0.0000884
 4,0.00000383,0.00008089,0.00004194,0.00002241,0.00000396,-0.00001647,0
 .00012088,-0.00021051,0.00008339,-0.00000498,0.00000696,-0.00014441,-0
 .00001036,0.00008726,-0.00001315,0.00005465,-0.00003713,0.00007109,0.0
 0011730,0.00006520,-0.00000349,-0.00002338,0.00000463,0.00000586,-0.00
 000084,-0.00000082,0.00001027,0.00021216,-0.00012678,-0.00006378,-0.00
 002268,0.00009166,0.00001920,0.00001428,-0.00001466,0.00013983,0.00028
 615,0.00031360,-0.00098707,-0.00056823,-0.00100150,-0.00000446,0.00000
 327,0.00000319,0.00002821,-0.00017564,0.00004216,-0.00000806,0.0000492
 9,-0.00003325,-0.00008984,0.00001168,0.00003387,0.00002027,-0.00001193
 ,-0.00001629,-0.00005696,-0.00004560,0.00001790,0.00001711,0.00001331,
 -0.00000040,-0.00002205,-0.00006223,0.00000291,0.00000572,0.00003476,-
 0.00000095,-0.00221569,0.00114773,0.00100054,0.00022457,-0.00023513,-0
 .00006219,0.00004214,-0.00014282,-0.00005717,-0.21557338,-0.18317741,-
 0.17168448,0.01562882,0.01639401,0.01773298,0.20278067,0.00000534,0.00
 003374,0.00002935,-0.00004829,-0.00017008,-0.00008935,-0.00001162,-0.0
 0007828,-0.00004582,-0.00014753,-0.00018725,-0.00095945,-0.00021393,0.
 00004977,0.00019761,0.00005790,0.00028535,0.00031466,0.00006354,-0.000
 13908,0.00001643,0.00011457,0.00011675,0.00016531,-0.00001484,-0.00004
 490,0.00001421,-0.00000349,0.00000095,0.00001273,0.00015395,-0.0003663
 5,0.00004966,0.00012868,0.00003756,-0.00013177,-0.00002631,-0.00008062
 ,0.00010015,0.00139646,-0.00011519,0.00216205,-0.00401243,-0.00256632,
 -0.00387405,0.00000412,0.00000667,0.00000984,-0.00022180,0.00035305,-0
 .00002150,0.00006906,-0.00005440,0.00002218,0.00019256,0.00005025,0.00
 000900,-0.00003224,-0.00000824,-0.00000151,0.00008579,0.00016494,-0.00
 001719,-0.00002422,-0.00002831,-0.00000559,-0.00001721,0.00017043,0.00
 003288,0.00000589,-0.00006868,-0.00000658,0.00072164,-0.00019125,0.000
 42537,-0.00025878,0.00004693,-0.00020574,0.00008215,0.00030098,0.00004
 736,-0.15014064,-0.15986637,-0.16258392,-0.01390898,-0.00844446,-0.007
 10388,0.16600065,0.17079239,-0.00001967,-0.00001213,-0.00001622,0.0001
 5062,-0.00010771,0.00003982,-0.00000525,-0.00003186,0.00000858,-0.0001
 5800,-0.00035410,0.00001388,-0.00000765,-0.00003738,0.00002215,0.00001
 818,0.00020021,-0.00016470,-0.00001176,-0.00001628,0.00002585,-0.00010
 445,-0.00017445,-0.00006395,0.00001200,0.00003983,-0.00000704,0.000002
 23,0.00001045,-0.00001930,-0.00007270,-0.00004545,0.00012232,0.0000231
 6,0.00001414,0.00002384,0.00004290,0.00005410,-0.00003707,-0.00025293,
 0.00232738,-0.00228575,0.00142029,-0.00151156,0.00486834,-0.00000440,-
 0.00000591,-0.00001153,-0.00000524,0.00001219,-0.00008389,-0.00002809,
 0.00001275,0.00003486,0.00003773,0.00001762,-0.00004604,-0.00000221,0.
 00000945,0.00001946,0.00000833,0.00003641,-0.00002742,0.00000129,-0.00
 000326,0.00000804,0.00000140,0.00003094,-0.00002422,0.00000165,-0.0000
 0480,0.00001639,0.00210040,0.00002595,-0.00070829,-0.00022086,-0.00006
 874,0.00025498,-0.00008416,-0.00002500,0.00011148,-0.12643188,-0.15164
 489,-0.17917645,-0.03017797,-0.02018548,-0.01772228,0.15376707,0.17143
 755,0.19482417\\-0.00000045,-0.00000209,0.00000272,0.00014447,-0.00197
 768,-0.00388857,0.00108699,-0.00119273,-0.00134642,0.00128443,0.000069
 75,0.00143853,-0.00132245,0.00000219,-0.00134329,-0.00078852,0.0011110
 8,0.00147979,-0.00041575,0.00199792,0.00365740,-0.00000295,-0.00000054
 ,-0.00000204,-0.00000093,0.00000154,-0.00000206,-0.00000298,0.00000125
 ,-0.00000041,-0.00000221,-0.00000918,0.00000194,-0.00000050,-0.0000009
 1,0.00000054,-0.00000283,0.00000187,0.00000036,-0.00001325,0.00000166,
 -0.00000536,0.00000942,-0.00000806,0.00000621,0.00000136,-0.00000104,-
 0.00000053,0.00000754,0.00000473,0.00000149,-0.00000428,-0.00000724,0.
 00000942,-0.00000059,0.00000359,-0.00000467,0.00000005,0.00000259,-0.0
 0000413,-0.00000260,-0.00000295,0.00000430,-0.00000506,0.00000115,-0.0
 0000394,0.00000358,0.00000022,-0.00000080,-0.00000165,-0.00000456,0.00
 000252,-0.00000745,-0.00000148,0.00000531,0.00001567,0.00000631,-0.000
 00677,0.00000983,-0.00000775,-0.00000237,-0.00000198,-0.00000611,-0.00
 000289,0.00000491,0.00001199,0.00001172,0.00000816,0.00000450,-0.00000
 798\\\@


 IN THE FIGHT BETWEEN YOU AND THE WORLD, BACK THE WORLD

                                        -- FRANZ KAFKA
 Job cpu time:       0 days  1 hours  2 minutes 47.5 seconds.
 File lengths (MBytes):  RWF=    335 Int=      0 D2E=      0 Chk=      7 Scr=      2
 Normal termination of Gaussian 09 at Mon Jan 16 23:19:27 2017.
