 Entering Gaussian System, Link 0=g09
 Initial command:
 /global/software/gaussian/g09.d01/l1.exe "/home/iawad/Gau-24365.inp" -scrdir="/home/iawad/"
 Entering Link 1 = /global/software/gaussian/g09.d01/l1.exe PID=     24368.
  
 Copyright (c) 1988,1990,1992,1993,1995,1998,2003,2009,2013,
            Gaussian, Inc.  All Rights Reserved.
  
 This is part of the Gaussian(R) 09 program.  It is based on
 the Gaussian(R) 03 system (copyright 2003, Gaussian, Inc.),
 the Gaussian(R) 98 system (copyright 1998, Gaussian, Inc.),
 the Gaussian(R) 94 system (copyright 1995, Gaussian, Inc.),
 the Gaussian 92(TM) system (copyright 1992, Gaussian, Inc.),
 the Gaussian 90(TM) system (copyright 1990, Gaussian, Inc.),
 the Gaussian 88(TM) system (copyright 1988, Gaussian, Inc.),
 the Gaussian 86(TM) system (copyright 1986, Carnegie Mellon
 University), and the Gaussian 82(TM) system (copyright 1983,
 Carnegie Mellon University). Gaussian is a federally registered
 trademark of Gaussian, Inc.
  
 This software contains proprietary and confidential information,
 including trade secrets, belonging to Gaussian, Inc.
  
 This software is provided under written license and may be
 used, copied, transmitted, or stored only in accord with that
 written license.
  
 The following legend is applicable only to US Government
 contracts under FAR:
  
                    RESTRICTED RIGHTS LEGEND
  
 Use, reproduction and disclosure by the US Government is
 subject to restrictions as set forth in subparagraphs (a)
 and (c) of the Commercial Computer Software - Restricted
 Rights clause in FAR 52.227-19.
  
 Gaussian, Inc.
 340 Quinnipiac St., Bldg. 40, Wallingford CT 06492
  
  
 ---------------------------------------------------------------
 Warning -- This program may not be used in any manner that
 competes with the business of Gaussian, Inc. or will provide
 assistance to any competitor of Gaussian, Inc.  The licensee
 of this program is prohibited from giving any competitor of
 Gaussian, Inc. access to this program.  By using this program,
 the user acknowledges that Gaussian, Inc. is engaged in the
 business of creating and licensing software in the field of
 computational chemistry and represents and warrants to the
 licensee that it is not a competitor of Gaussian, Inc. and that
 it will not use this program in any manner prohibited above.
 ---------------------------------------------------------------
  

 Cite this work as:
 Gaussian 09, Revision D.01,
 M. J. Frisch, G. W. Trucks, H. B. Schlegel, G. E. Scuseria, 
 M. A. Robb, J. R. Cheeseman, G. Scalmani, V. Barone, B. Mennucci, 
 G. A. Petersson, H. Nakatsuji, M. Caricato, X. Li, H. P. Hratchian, 
 A. F. Izmaylov, J. Bloino, G. Zheng, J. L. Sonnenberg, M. Hada, 
 M. Ehara, K. Toyota, R. Fukuda, J. Hasegawa, M. Ishida, T. Nakajima, 
 Y. Honda, O. Kitao, H. Nakai, T. Vreven, J. A. Montgomery, Jr., 
 J. E. Peralta, F. Ogliaro, M. Bearpark, J. J. Heyd, E. Brothers, 
 K. N. Kudin, V. N. Staroverov, T. Keith, R. Kobayashi, J. Normand, 
 K. Raghavachari, A. Rendell, J. C. Burant, S. S. Iyengar, J. Tomasi, 
 M. Cossi, N. Rega, J. M. Millam, M. Klene, J. E. Knox, J. B. Cross, 
 V. Bakken, C. Adamo, J. Jaramillo, R. Gomperts, R. E. Stratmann, 
 O. Yazyev, A. J. Austin, R. Cammi, C. Pomelli, J. W. Ochterski, 
 R. L. Martin, K. Morokuma, V. G. Zakrzewski, G. A. Voth, 
 P. Salvador, J. J. Dannenberg, S. Dapprich, A. D. Daniels, 
 O. Farkas, J. B. Foresman, J. V. Ortiz, J. Cioslowski, 
 and D. J. Fox, Gaussian, Inc., Wallingford CT, 2013.
 
 ******************************************
 Gaussian 09:  ES64L-G09RevD.01 24-Apr-2013
                19-Jan-2017 
 ******************************************
 %NPROCS=22
 Will use up to   22 processors via shared memory.
 ------------------------------------------------------
 # opt=(modredundant,MaxCycle=1000) freq B3LYP/6-31G(d)
 ------------------------------------------------------
 1/6=1000,14=-1,18=120,19=15,26=3,38=1/1,3;
 2/9=110,12=2,17=6,18=5,40=1/2;
 3/5=1,6=6,7=1,11=2,16=1,25=1,30=1,71=1,74=-5/1,2,3;
 4//1;
 5/5=2,38=5/2;
 6/7=2,8=2,9=2,10=2,28=1/1;
 7//1,2,3,16;
 1/6=1000,14=-1,18=20,19=15,26=3/3(2);
 2/9=110/2;
 99//99;
 2/9=110/2;
 3/5=1,6=6,7=1,11=2,16=1,25=1,30=1,71=1,74=-5/1,2,3;
 4/5=5,16=3,69=1/1;
 5/5=2,38=5/2;
 7//1,2,3,16;
 1/6=1000,14=-1,18=20,19=15,26=3/3(-5);
 2/9=110/2;
 6/7=2,8=2,9=2,10=2,19=2,28=1/1;
 99/9=1/99;
 ------------------------
 boat4_Beta_B3LYP_6-31G_d
 ------------------------
 Symbolic Z-matrix:
 Charge =  0 Multiplicity = 1
 O                     0.00254  -1.66653  -0.47866 
 C                     0.49864   0.77281   0.2304 
 C                    -1.91461  -0.08522  -0.11645 
 C                    -0.94286   1.10461  -0.16737 
 C                    -1.18504  -1.2774    0.29999 
 C                     0.97436  -0.47672  -0.52951 
 H                    -0.93736   1.52672  -1.18117 
 H                     1.07462  -0.23627  -1.59531 
 H                     0.56566   0.638     1.31552 
 H                    -1.85719  -2.13476   0.17016 
 C                     2.32849  -0.97457  -0.01772 
 H                     2.26008  -1.24129   1.04244 
 H                     2.64289  -1.87929  -0.54974 
 H                    -2.73549   0.142     0.57421 
 O                    -0.83177  -1.27046   1.67564 
 H                    -0.74516  -2.2055    1.92883 
 O                     3.33213   0.0282   -0.16317 
 H                     3.65683  -0.02831  -1.08138 
 O                    -2.49872  -0.25842  -1.42032 
 H                    -3.27587  -0.83433  -1.31695 
 O                    -1.41949   2.17661   0.66826 
 H                    -0.71009   2.84935   0.63907 
 O                     1.32299   1.91424  -0.06438 
 H                     2.24568   1.63339   0.1194 
 O                     0.0895   -3.68475   1.22119 
 H                     0.87846  -4.05024   1.62808 
 H                     0.32041  -3.27782   0.38292 
 O                     0.3488    4.37017   0.47545 
 H                    -0.15462   4.71256  -0.2668 
 H                     0.81303   3.57369   0.20766 
 
 Add virtual bond connecting atoms O28        and H22        Dist= 3.52D+00.
 Add virtual bond connecting atoms H30        and H22        Dist= 3.29D+00.
 Add virtual bond connecting atoms H30        and O23        Dist= 3.32D+00.
 Add virtual bond connecting atoms O25        and H16        Dist= 3.48D+00.
 Add virtual bond connecting atoms H27        and O1         Dist= 3.50D+00.
 The following ModRedundant input section has been read:
 D       5       3       4       2 F                                           
 D       5       1       6       2 F                                           
 

 GradGradGradGradGradGradGradGradGradGradGradGradGradGradGradGradGradGrad
 Berny optimization.
 Initialization pass.
                           ----------------------------
                           !    Initial Parameters    !
                           ! (Angstroms and Degrees)  !
 --------------------------                            --------------------------
 ! Name  Definition              Value          Derivative Info.                !
 --------------------------------------------------------------------------------
 ! R1    R(1,5)                  1.4724         estimate D2E/DX2                !
 ! R2    R(1,6)                  1.5371         estimate D2E/DX2                !
 ! R3    R(1,27)                 1.8546         estimate D2E/DX2                !
 ! R4    R(2,4)                  1.5317         estimate D2E/DX2                !
 ! R5    R(2,6)                  1.5379         estimate D2E/DX2                !
 ! R6    R(2,9)                  1.0955         estimate D2E/DX2                !
 ! R7    R(2,23)                 1.4385         estimate D2E/DX2                !
 ! R8    R(3,4)                  1.5371         estimate D2E/DX2                !
 ! R9    R(3,5)                  1.4584         estimate D2E/DX2                !
 ! R10   R(3,14)                 1.0966         estimate D2E/DX2                !
 ! R11   R(3,19)                 1.4392         estimate D2E/DX2                !
 ! R12   R(4,7)                  1.0982         estimate D2E/DX2                !
 ! R13   R(4,21)                 1.4404         estimate D2E/DX2                !
 ! R14   R(5,10)                 1.0971         estimate D2E/DX2                !
 ! R15   R(5,15)                 1.4203         estimate D2E/DX2                !
 ! R16   R(6,8)                  1.0972         estimate D2E/DX2                !
 ! R17   R(6,11)                 1.5308         estimate D2E/DX2                !
 ! R18   R(11,12)                1.0953         estimate D2E/DX2                !
 ! R19   R(11,13)                1.0956         estimate D2E/DX2                !
 ! R20   R(11,17)                1.4262         estimate D2E/DX2                !
 ! R21   R(15,16)                0.9726         estimate D2E/DX2                !
 ! R22   R(16,25)                1.84           estimate D2E/DX2                !
 ! R23   R(17,18)                0.9756         estimate D2E/DX2                !
 ! R24   R(19,20)                0.9728         estimate D2E/DX2                !
 ! R25   R(21,22)                0.9781         estimate D2E/DX2                !
 ! R26   R(22,28)                1.8604         estimate D2E/DX2                !
 ! R27   R(22,30)                1.7409         estimate D2E/DX2                !
 ! R28   R(23,24)                0.9818         estimate D2E/DX2                !
 ! R29   R(23,30)                1.7572         estimate D2E/DX2                !
 ! R30   R(25,26)                0.96           estimate D2E/DX2                !
 ! R31   R(25,27)                0.96           estimate D2E/DX2                !
 ! R32   R(28,29)                0.96           estimate D2E/DX2                !
 ! R33   R(28,30)                0.96           estimate D2E/DX2                !
 ! A1    A(5,1,6)              108.8361         estimate D2E/DX2                !
 ! A2    A(5,1,27)              97.0175         estimate D2E/DX2                !
 ! A3    A(6,1,27)             125.4163         estimate D2E/DX2                !
 ! A4    A(4,2,6)              109.8036         estimate D2E/DX2                !
 ! A5    A(4,2,9)              109.9647         estimate D2E/DX2                !
 ! A6    A(4,2,23)             108.3124         estimate D2E/DX2                !
 ! A7    A(6,2,9)              111.7487         estimate D2E/DX2                !
 ! A8    A(6,2,23)             111.4802         estimate D2E/DX2                !
 ! A9    A(9,2,23)             105.4003         estimate D2E/DX2                !
 ! A10   A(4,3,5)              109.0246         estimate D2E/DX2                !
 ! A11   A(4,3,14)             109.4953         estimate D2E/DX2                !
 ! A12   A(4,3,19)             108.6468         estimate D2E/DX2                !
 ! A13   A(5,3,14)             111.3472         estimate D2E/DX2                !
 ! A14   A(5,3,19)             111.3059         estimate D2E/DX2                !
 ! A15   A(14,3,19)            106.9614         estimate D2E/DX2                !
 ! A16   A(2,4,3)              114.751          estimate D2E/DX2                !
 ! A17   A(2,4,7)              108.5593         estimate D2E/DX2                !
 ! A18   A(2,4,21)             108.7829         estimate D2E/DX2                !
 ! A19   A(3,4,7)              109.347          estimate D2E/DX2                !
 ! A20   A(3,4,21)             110.3462         estimate D2E/DX2                !
 ! A21   A(7,4,21)             104.5461         estimate D2E/DX2                !
 ! A22   A(1,5,3)              117.9374         estimate D2E/DX2                !
 ! A23   A(1,5,10)             103.0042         estimate D2E/DX2                !
 ! A24   A(1,5,15)             108.2325         estimate D2E/DX2                !
 ! A25   A(3,5,10)             107.3696         estimate D2E/DX2                !
 ! A26   A(3,5,15)             113.3905         estimate D2E/DX2                !
 ! A27   A(10,5,15)            105.7124         estimate D2E/DX2                !
 ! A28   A(1,6,2)              114.6453         estimate D2E/DX2                !
 ! A29   A(1,6,8)              105.0439         estimate D2E/DX2                !
 ! A30   A(1,6,11)             107.2457         estimate D2E/DX2                !
 ! A31   A(2,6,8)              109.2804         estimate D2E/DX2                !
 ! A32   A(2,6,11)             111.8799         estimate D2E/DX2                !
 ! A33   A(8,6,11)             108.3732         estimate D2E/DX2                !
 ! A34   A(6,11,12)            110.3362         estimate D2E/DX2                !
 ! A35   A(6,11,13)            111.1021         estimate D2E/DX2                !
 ! A36   A(6,11,17)            111.0837         estimate D2E/DX2                !
 ! A37   A(12,11,13)           106.6687         estimate D2E/DX2                !
 ! A38   A(12,11,17)           108.2935         estimate D2E/DX2                !
 ! A39   A(13,11,17)           109.2166         estimate D2E/DX2                !
 ! A40   A(5,15,16)            105.6409         estimate D2E/DX2                !
 ! A41   A(15,16,25)           135.4947         estimate D2E/DX2                !
 ! A42   A(11,17,18)           106.8274         estimate D2E/DX2                !
 ! A43   A(3,19,20)            107.4107         estimate D2E/DX2                !
 ! A44   A(4,21,22)            104.7482         estimate D2E/DX2                !
 ! A45   A(21,22,30)           158.1464         estimate D2E/DX2                !
 ! A46   A(2,23,24)            105.8553         estimate D2E/DX2                !
 ! A47   A(2,23,30)            123.4562         estimate D2E/DX2                !
 ! A48   A(24,23,30)           120.922          estimate D2E/DX2                !
 ! A49   A(16,25,26)           121.0557         estimate D2E/DX2                !
 ! A50   A(16,25,27)            95.9781         estimate D2E/DX2                !
 ! A51   A(26,25,27)           109.5            estimate D2E/DX2                !
 ! A52   A(1,27,25)            137.1131         estimate D2E/DX2                !
 ! A53   A(22,28,29)            93.5021         estimate D2E/DX2                !
 ! A54   A(29,28,30)           109.5            estimate D2E/DX2                !
 ! A55   A(22,30,23)            84.2229         estimate D2E/DX2                !
 ! A56   L(21,22,28,8,-1)      187.7209         estimate D2E/DX2                !
 ! A57   L(23,30,28,21,-1)     165.9789         estimate D2E/DX2                !
 ! A58   L(21,22,28,8,-2)      170.3526         estimate D2E/DX2                !
 ! A59   L(23,30,28,21,-2)     175.3669         estimate D2E/DX2                !
 ! D1    D(6,1,5,3)             55.2014         estimate D2E/DX2                !
 ! D2    D(6,1,5,10)           173.1891         estimate D2E/DX2                !
 ! D3    D(6,1,5,15)           -75.1752         estimate D2E/DX2                !
 ! D4    D(27,1,5,3)          -173.5813         estimate D2E/DX2                !
 ! D5    D(27,1,5,10)          -55.5935         estimate D2E/DX2                !
 ! D6    D(27,1,5,15)           56.0422         estimate D2E/DX2                !
 ! D7    D(5,1,6,2)              0.7829         Frozen                          !
 ! D8    D(5,1,6,8)           -119.1831         estimate D2E/DX2                !
 ! D9    D(5,1,6,11)           125.6542         estimate D2E/DX2                !
 ! D10   D(27,1,6,2)          -112.8558         estimate D2E/DX2                !
 ! D11   D(27,1,6,8)           127.1781         estimate D2E/DX2                !
 ! D12   D(27,1,6,11)           12.0154         estimate D2E/DX2                !
 ! D13   D(5,1,27,25)          -20.363          estimate D2E/DX2                !
 ! D14   D(6,1,27,25)           98.7602         estimate D2E/DX2                !
 ! D15   D(6,2,4,3)             49.1506         estimate D2E/DX2                !
 ! D16   D(6,2,4,7)            -73.5058         estimate D2E/DX2                !
 ! D17   D(6,2,4,21)           173.289          estimate D2E/DX2                !
 ! D18   D(9,2,4,3)            -74.204          estimate D2E/DX2                !
 ! D19   D(9,2,4,7)            163.1395         estimate D2E/DX2                !
 ! D20   D(9,2,4,21)            49.9343         estimate D2E/DX2                !
 ! D21   D(23,2,4,3)           171.0976         estimate D2E/DX2                !
 ! D22   D(23,2,4,7)            48.4412         estimate D2E/DX2                !
 ! D23   D(23,2,4,21)          -64.7641         estimate D2E/DX2                !
 ! D24   D(4,2,6,1)            -49.0909         estimate D2E/DX2                !
 ! D25   D(4,2,6,8)             68.492          estimate D2E/DX2                !
 ! D26   D(4,2,6,11)          -171.4858         estimate D2E/DX2                !
 ! D27   D(9,2,6,1)             73.2102         estimate D2E/DX2                !
 ! D28   D(9,2,6,8)           -169.2069         estimate D2E/DX2                !
 ! D29   D(9,2,6,11)           -49.1847         estimate D2E/DX2                !
 ! D30   D(23,2,6,1)          -169.129          estimate D2E/DX2                !
 ! D31   D(23,2,6,8)           -51.546          estimate D2E/DX2                !
 ! D32   D(23,2,6,11)           68.4762         estimate D2E/DX2                !
 ! D33   D(4,2,23,24)         -174.5562         estimate D2E/DX2                !
 ! D34   D(4,2,23,30)           39.5545         estimate D2E/DX2                !
 ! D35   D(6,2,23,24)          -53.6428         estimate D2E/DX2                !
 ! D36   D(6,2,23,30)          160.4679         estimate D2E/DX2                !
 ! D37   D(9,2,23,24)           67.7845         estimate D2E/DX2                !
 ! D38   D(9,2,23,30)          -78.1048         estimate D2E/DX2                !
 ! D39   D(5,3,4,2)             -0.637          Frozen                          !
 ! D40   D(5,3,4,7)            121.5939         estimate D2E/DX2                !
 ! D41   D(5,3,4,21)          -123.9429         estimate D2E/DX2                !
 ! D42   D(14,3,4,2)           121.405          estimate D2E/DX2                !
 ! D43   D(14,3,4,7)          -116.3641         estimate D2E/DX2                !
 ! D44   D(14,3,4,21)           -1.9009         estimate D2E/DX2                !
 ! D45   D(19,3,4,2)          -122.1026         estimate D2E/DX2                !
 ! D46   D(19,3,4,7)             0.1283         estimate D2E/DX2                !
 ! D47   D(19,3,4,21)          114.5915         estimate D2E/DX2                !
 ! D48   D(4,3,5,1)            -55.2912         estimate D2E/DX2                !
 ! D49   D(4,3,5,10)          -170.9338         estimate D2E/DX2                !
 ! D50   D(4,3,5,15)            72.6779         estimate D2E/DX2                !
 ! D51   D(14,3,5,1)          -176.2069         estimate D2E/DX2                !
 ! D52   D(14,3,5,10)           68.1505         estimate D2E/DX2                !
 ! D53   D(14,3,5,15)          -48.2379         estimate D2E/DX2                !
 ! D54   D(19,3,5,1)            64.5431         estimate D2E/DX2                !
 ! D55   D(19,3,5,10)          -51.0995         estimate D2E/DX2                !
 ! D56   D(19,3,5,15)         -167.4878         estimate D2E/DX2                !
 ! D57   D(4,3,19,20)         -164.4941         estimate D2E/DX2                !
 ! D58   D(5,3,19,20)           75.4478         estimate D2E/DX2                !
 ! D59   D(14,3,19,20)         -46.3848         estimate D2E/DX2                !
 ! D60   D(2,4,21,22)           48.4062         estimate D2E/DX2                !
 ! D61   D(3,4,21,22)          175.1165         estimate D2E/DX2                !
 ! D62   D(7,4,21,22)          -67.4154         estimate D2E/DX2                !
 ! D63   D(1,5,15,16)          -72.6605         estimate D2E/DX2                !
 ! D64   D(3,5,15,16)          154.5019         estimate D2E/DX2                !
 ! D65   D(10,5,15,16)          37.1423         estimate D2E/DX2                !
 ! D66   D(1,6,11,12)          -66.0843         estimate D2E/DX2                !
 ! D67   D(1,6,11,13)           52.0099         estimate D2E/DX2                !
 ! D68   D(1,6,11,17)          173.8058         estimate D2E/DX2                !
 ! D69   D(2,6,11,12)           60.4417         estimate D2E/DX2                !
 ! D70   D(2,6,11,13)          178.5359         estimate D2E/DX2                !
 ! D71   D(2,6,11,17)          -59.6681         estimate D2E/DX2                !
 ! D72   D(8,6,11,12)         -179.0065         estimate D2E/DX2                !
 ! D73   D(8,6,11,13)          -60.9123         estimate D2E/DX2                !
 ! D74   D(8,6,11,17)           60.8837         estimate D2E/DX2                !
 ! D75   D(6,11,17,18)         -83.2127         estimate D2E/DX2                !
 ! D76   D(12,11,17,18)        155.4721         estimate D2E/DX2                !
 ! D77   D(13,11,17,18)         39.6764         estimate D2E/DX2                !
 ! D78   D(5,15,16,25)          47.5181         estimate D2E/DX2                !
 ! D79   D(15,16,25,26)        107.6073         estimate D2E/DX2                !
 ! D80   D(15,16,25,27)         -9.4479         estimate D2E/DX2                !
 ! D81   D(4,21,22,30)          -1.1795         estimate D2E/DX2                !
 ! D82   D(4,21,28,29)          89.3878         estimate D2E/DX2                !
 ! D83   D(21,22,28,30)       -144.6321         estimate D2E/DX2                !
 ! D84   D(21,22,30,23)        -22.9639         estimate D2E/DX2                !
 ! D85   D(2,23,28,29)         -87.9296         estimate D2E/DX2                !
 ! D86   D(24,23,28,29)        134.1443         estimate D2E/DX2                !
 ! D87   D(2,23,30,22)          -5.0763         estimate D2E/DX2                !
 ! D88   D(24,23,30,22)       -146.1121         estimate D2E/DX2                !
 ! D89   D(16,25,27,1)          -5.3962         estimate D2E/DX2                !
 ! D90   D(26,25,27,1)        -131.3644         estimate D2E/DX2                !
 --------------------------------------------------------------------------------
 Trust Radius=3.00D-01 FncErr=1.00D-07 GrdErr=1.00D-06
 Number of steps in this run=    180 maximum allowed number of steps=    180.
 GradGradGradGradGradGradGradGradGradGradGradGradGradGradGradGradGradGrad

                          Input orientation:                          
 ---------------------------------------------------------------------
 Center     Atomic      Atomic             Coordinates (Angstroms)
 Number     Number       Type             X           Y           Z
 ---------------------------------------------------------------------
      1          8           0        0.002543   -1.666527   -0.478657
      2          6           0        0.498642    0.772809    0.230395
      3          6           0       -1.914607   -0.085219   -0.116449
      4          6           0       -0.942855    1.104614   -0.167373
      5          6           0       -1.185036   -1.277396    0.299987
      6          6           0        0.974363   -0.476724   -0.529513
      7          1           0       -0.937361    1.526723   -1.181165
      8          1           0        1.074625   -0.236265   -1.595312
      9          1           0        0.565655    0.638004    1.315523
     10          1           0       -1.857188   -2.134761    0.170158
     11          6           0        2.328491   -0.974568   -0.017716
     12          1           0        2.260075   -1.241285    1.042435
     13          1           0        2.642885   -1.879288   -0.549735
     14          1           0       -2.735493    0.142004    0.574214
     15          8           0       -0.831771   -1.270461    1.675637
     16          1           0       -0.745157   -2.205497    1.928833
     17          8           0        3.332125    0.028202   -0.163174
     18          1           0        3.656830   -0.028311   -1.081380
     19          8           0       -2.498717   -0.258421   -1.420318
     20          1           0       -3.275865   -0.834332   -1.316952
     21          8           0       -1.419494    2.176615    0.668261
     22          1           0       -0.710089    2.849347    0.639069
     23          8           0        1.322991    1.914237   -0.064384
     24          1           0        2.245675    1.633392    0.119403
     25          8           0        0.089501   -3.684748    1.221187
     26          1           0        0.878460   -4.050242    1.628075
     27          1           0        0.320406   -3.277816    0.382921
     28          8           0        0.348796    4.370172    0.475453
     29          1           0       -0.154620    4.712558   -0.266803
     30          1           0        0.813028    3.573694    0.207664
 ---------------------------------------------------------------------
                    Distance matrix (angstroms):
                    1          2          3          4          5
     1  O    0.000000
     2  C    2.588287   0.000000
     3  C    2.511413   2.584624   0.000000
     4  C    2.944469   1.531740   1.537074   0.000000
     5  C    1.472431   2.653857   1.458417   2.439477   0.000000
     6  C    1.537092   1.537889   2.944494   2.511474   2.447887
     7  H    3.402026   2.150115   2.164945   1.098171   3.180918
     8  H    2.107588   2.164069   3.338467   2.811973   3.127648
     9  H    2.974397   1.095521   2.953861   2.166174   2.786573
    10  H    2.024550   3.742663   2.070281   3.382822   1.097141
    11  C    2.470083   2.542289   4.336424   3.879059   3.540835
    12  H    2.755177   2.796181   4.484135   4.150378   3.524390
    13  H    2.649854   3.498571   4.917027   4.680534   3.967024
    14  H    3.446181   3.312968   1.096585   2.165669   2.119862
    15  O    2.343914   2.834374   2.406014   3.008323   1.420302
    16  H    2.577897   3.647195   3.169601   3.923009   1.925618
    17  O    3.749367   2.956004   5.248166   4.408416   4.724812
    18  H    4.049795   3.512364   5.654665   4.824524   5.187683
    19  O    3.020892   3.573856   1.439187   2.418355   2.392387
    20  H    3.484716   4.384528   1.963518   3.244068   2.679993
    21  O    4.255273   2.416949   2.444749   1.440366   3.481492
    22  H    4.706408   2.437223   3.260882   1.936136   4.167800
    23  O    3.838890   1.438507   3.805598   2.408351   4.075474
    24  H    4.034697   1.950653   4.507460   3.244776   4.502785
    25  O    2.640123   4.584635   4.331550   5.092332   2.875482
    26  H    3.299643   5.035831   5.154221   5.754421   3.702770
    27  H    1.854618   4.057412   3.929037   4.593947   2.504978
    28  O    6.121434   3.608812   5.032280   3.570078   5.854780
    29  H    6.384536   4.024373   5.112614   3.694382   6.104306
    30  H    5.346760   2.818566   4.575225   3.052889   5.247271
                    6          7          8          9         10
     6  C    0.000000
     7  H    2.844844   0.000000
     8  H    1.097178   2.706978   0.000000
     9  H    2.194042   3.046692   3.081616   0.000000
    10  H    3.355042   4.009816   3.913655   3.856197   0.000000
    11  C    1.530832   4.275027   2.146178   2.735965   4.347557
    12  H    2.169938   4.778061   3.061546   2.545066   4.302444
    13  H    2.179807   4.981744   2.500439   3.759100   4.564446
    14  H    3.919703   2.869160   4.400787   3.419522   2.473528
    15  O    2.958855   3.999588   3.924667   2.392639   2.016175
    16  H    3.462495   4.861944   4.428214   3.190592   2.081959
    17  O    2.438892   4.637929   2.686497   3.195584   5.631917
    18  H    2.775115   4.851255   2.641052   3.967932   6.033894
    19  O    3.592141   2.383645   3.577693   4.204614   2.542012
    20  H    4.337324   3.325901   4.400220   4.884155   2.432130
    21  O    3.769008   2.018710   4.143233   2.593663   4.362069
    22  H    3.907136   2.261468   4.206978   2.641051   5.135859
    23  O    2.460606   2.550796   2.651431   2.026443   5.153924
    24  H    2.547531   3.440142   2.794141   2.289971   5.570910
    25  O    3.760233   5.829680   4.560172   4.349920   2.701244
    26  H    4.175454   6.503197   4.997512   4.709053   3.643948
    27  H    3.017667   5.206913   3.705845   4.032808   2.468554
    28  O    4.989358   3.533240   5.102368   3.831687   6.875589
    29  H    5.317167   3.405625   5.269424   4.429959   7.069331
    30  H    4.120115   3.030313   4.223143   3.147510   6.302215
                   11         12         13         14         15
    11  C    0.000000
    12  H    1.095326   0.000000
    13  H    1.095630   1.757440   0.000000
    14  H    5.219296   5.204654   5.854557   0.000000
    15  O    3.597534   3.156154   4.170873   2.613876   0.000000
    16  H    3.840775   3.278235   4.210527   3.362617   0.972575
    17  O    1.426179   2.052896   2.064703   6.113320   4.733475
    18  H    1.947118   2.816526   2.176430   6.605437   5.412173
    19  O    5.077607   5.447685   5.460879   2.048063   3.658944
    20  H    5.754693   6.031496   6.059056   2.195847   3.888366
    21  O    4.944483   5.035998   5.868287   2.424941   3.639033
    22  H    4.928150   5.071277   5.917405   3.381741   4.249953
    23  O    3.059151   3.472822   4.045802   4.474361   4.220542
    24  H    2.612875   3.019265   3.597839   5.219495   4.508315
    25  O    3.727336   3.273203   3.593831   4.800333   2.623747
    26  H    3.777696   3.184662   3.545292   5.634377   3.264097
    27  H    3.081861   2.888725   2.866991   4.590238   2.651057
    28  O    5.720896   5.955074   6.735696   5.234500   5.886503
    29  H    6.210578   6.556912   7.166486   5.315842   6.326778
    30  H    4.799386   5.096549   5.801469   4.950036   5.322231
                   16         17         18         19         20
    16  H    0.000000
    17  O    5.098052   0.000000
    18  H    5.760122   0.975566   0.000000
    19  O    4.252398   5.971707   6.169164   0.000000
    20  H    4.338167   6.763187   6.983368   0.972788   0.000000
    21  O    4.609412   5.280610   5.804482   3.384713   4.056228
    22  H    5.216912   4.994191   5.505528   4.135032   4.896807
    23  O    5.022187   2.757446   3.202277   4.600484   5.502094
    24  H    5.191934   1.958790   2.488874   5.334693   6.216123
    25  O    1.840000   5.120260   5.603319   5.041442   5.088488
    26  H    2.475817   5.085543   5.588955   5.922493   6.022763
    27  H    2.162206   4.505377   4.882129   4.507313   4.668335
    28  O    6.822644   5.306675   5.719569   5.755532   6.590731
    29  H    7.282104   5.840490   6.137306   5.615694   6.450811
    30  H    6.228115   4.365075   4.766894   5.320064   6.202757
                   21         22         23         24         25
    21  O    0.000000
    22  H    0.978098   0.000000
    23  O    2.850760   2.345782   0.000000
    24  H    3.745637   3.238077   0.981834   0.000000
    25  O    6.077694   6.608525   5.875613   5.843426   0.000000
    26  H    6.706383   7.148842   6.215869   6.037306   0.960000
    27  H    5.732320   6.218493   5.306852   5.281673   0.960000
    28  O    2.824131   1.860353   2.696682   3.348863   8.093521
    29  H    2.984168   2.144925   3.170947   3.923243   8.531615
    30  H    2.673600   1.740883   1.757233   2.413512   7.364489
                   26         27         28         29         30
    26  H    0.000000
    27  H    1.567952   0.000000
    28  O    8.515424   7.648600   0.000000
    29  H    9.024659   8.030807   0.960000   0.000000
    30  H    7.755401   6.871432   0.960000   1.567952   0.000000
 Stoichiometry    C6H16O8
 Framework group  C1[X(C6H16O8)]
 Deg. of freedom    84
 Full point group                 C1      NOp   1
 Largest Abelian subgroup         C1      NOp   1
 Largest concise Abelian subgroup C1      NOp   1
                         Standard orientation:                         
 ---------------------------------------------------------------------
 Center     Atomic      Atomic             Coordinates (Angstroms)
 Number     Number       Type             X           Y           Z
 ---------------------------------------------------------------------
      1          8           0       -1.675793    0.006970    0.730895
      2          6           0        0.725156    0.428020   -0.139385
      3          6           0       -0.195800   -1.958799    0.228336
      4          6           0        1.029986   -1.031570    0.211191
      5          6           0       -1.386082   -1.179267   -0.091881
      6          6           0       -0.450040    0.934270    0.713685
      7          1           0        1.521395   -1.059963    1.192869
      8          1           0       -0.132582    1.006139    1.761472
      9          1           0        0.517898    0.519846   -1.211196
     10          1           0       -2.256745   -1.822432    0.087013
     11          6           0       -0.931559    2.314637    0.259622
     12          1           0       -1.273617    2.275427   -0.780184
     13          1           0       -1.784836    2.651495    0.858665
     14          1           0       -0.047756   -2.774444   -0.489512
     15          8           0       -1.461579   -0.801162   -1.458846
     16          1           0       -2.408076   -0.676321   -1.644484
     17          8           0        0.115495    3.278705    0.350383
     18          1           0        0.134994    3.588237    1.275336
     19          8           0       -0.299617   -2.560257    1.531689
     20          1           0       -0.909798   -3.314152    1.456597
     21          8           0        2.022908   -1.530955   -0.704983
     22          1           0        2.721940   -0.846861   -0.711736
     23          8           0        1.914145    1.205209    0.087744
     24          1           0        1.655698    2.140629   -0.061222
     25          8           0       -3.802567    0.197797   -0.821737
     26          1           0       -4.165864    1.006762   -1.189421
     27          1           0       -3.330100    0.398415   -0.010486
     28          8           0        4.288754    0.153447   -0.638291
     29          1           0        4.662918   -0.375564    0.070052
     30          1           0        3.530601    0.641003   -0.307999
 ---------------------------------------------------------------------
 Rotational constants (GHZ):      0.7317898      0.5001600      0.3516939
 Standard basis: 6-31G(d) (6D, 7F)
 There are   242 symmetry adapted cartesian basis functions of A   symmetry.
 There are   242 symmetry adapted basis functions of A   symmetry.
   242 basis functions,   456 primitive gaussians,   242 cartesian basis functions
    58 alpha electrons       58 beta electrons
       nuclear repulsion energy      1104.0903189819 Hartrees.
 NAtoms=   30 NActive=   30 NUniq=   30 SFac= 1.00D+00 NAtFMM=   60 NAOKFM=F Big=F
 Integral buffers will be    131072 words long.
 Raffenetti 2 integral format.
 Two-electron integral symmetry is turned on.
 One-electron integrals computed using PRISM.
 NBasis=   242 RedAO= T EigKep=  1.23D-03  NBF=   242
 NBsUse=   242 1.00D-06 EigRej= -1.00D+00 NBFU=   242
 ExpMin= 1.61D-01 ExpMax= 5.48D+03 ExpMxC= 8.25D+02 IAcc=1 IRadAn=         1 AccDes= 0.00D+00
 Harris functional with IExCor=  402 and IRadAn=       1 diagonalized for initial guess.
 HarFok:  IExCor=  402 AccDes= 0.00D+00 IRadAn=         1 IDoV= 1 UseB2=F ITyADJ=14
 ICtDFT=  3500011 ScaDFX=  1.000000  1.000000  1.000000  1.000000
 FoFCou: FMM=F IPFlag=           0 FMFlag=      100000 FMFlg1=           0
         NFxFlg=           0 DoJE=T BraDBF=F KetDBF=T FulRan=T
         wScrn=  0.000000 ICntrl=     500 IOpCl=  0 I1Cent=   200000004 NGrid=           0
         NMat0=    1 NMatS0=      1 NMatT0=    0 NMatD0=    1 NMtDS0=    0 NMtDT0=    0
 Petite list used in FoFCou.
 Requested convergence on RMS density matrix=1.00D-08 within 128 cycles.
 Requested convergence on MAX density matrix=1.00D-06.
 Requested convergence on             energy=1.00D-06.
 No special actions if energy rises.
 Integral accuracy reduced to 1.0D-05 until final iterations.
 Initial convergence to 1.0D-05 achieved.  Increase integral accuracy.
 SCF Done:  E(RB3LYP) =  -839.961994382     A.U. after   14 cycles
            NFock= 14  Conv=0.53D-08     -V/T= 2.0084

 **********************************************************************

            Population analysis using the SCF density.

 **********************************************************************

 Orbital symmetries:
       Occupied  (A) (A) (A) (A) (A) (A) (A) (A) (A) (A) (A) (A)
                 (A) (A) (A) (A) (A) (A) (A) (A) (A) (A) (A) (A)
                 (A) (A) (A) (A) (A) (A) (A) (A) (A) (A) (A) (A)
                 (A) (A) (A) (A) (A) (A) (A) (A) (A) (A) (A) (A)
                 (A) (A) (A) (A) (A) (A) (A) (A) (A) (A)
       Virtual   (A) (A) (A) (A) (A) (A) (A) (A) (A) (A) (A) (A)
                 (A) (A) (A) (A) (A) (A) (A) (A) (A) (A) (A) (A)
                 (A) (A) (A) (A) (A) (A) (A) (A) (A) (A) (A) (A)
                 (A) (A) (A) (A) (A) (A) (A) (A) (A) (A) (A) (A)
                 (A) (A) (A) (A) (A) (A) (A) (A) (A) (A) (A) (A)
                 (A) (A) (A) (A) (A) (A) (A) (A) (A) (A) (A) (A)
                 (A) (A) (A) (A) (A) (A) (A) (A) (A) (A) (A) (A)
                 (A) (A) (A) (A) (A) (A) (A) (A) (A) (A) (A) (A)
                 (A) (A) (A) (A) (A) (A) (A) (A) (A) (A) (A) (A)
                 (A) (A) (A) (A) (A) (A) (A) (A) (A) (A) (A) (A)
                 (A) (A) (A) (A) (A) (A) (A) (A) (A) (A) (A) (A)
                 (A) (A) (A) (A) (A) (A) (A) (A) (A) (A) (A) (A)
                 (A) (A) (A) (A) (A) (A) (A) (A) (A) (A) (A) (A)
                 (A) (A) (A) (A) (A) (A) (A) (A) (A) (A) (A) (A)
                 (A) (A) (A) (A) (A) (A) (A) (A) (A) (A) (A) (A)
                 (A) (A) (A) (A)
 The electronic state is 1-A.
 Alpha  occ. eigenvalues --  -19.18951 -19.17511 -19.16676 -19.15100 -19.15080
 Alpha  occ. eigenvalues --  -19.13659 -19.12585 -19.11347 -10.28383 -10.25836
 Alpha  occ. eigenvalues --  -10.25767 -10.24561 -10.24108 -10.23186  -1.06382
 Alpha  occ. eigenvalues --   -1.05491  -1.03722  -1.02169  -1.01224  -0.99580
 Alpha  occ. eigenvalues --   -0.98461  -0.98338  -0.78932  -0.77459  -0.70398
 Alpha  occ. eigenvalues --   -0.64399  -0.63190  -0.56308  -0.55749  -0.55416
 Alpha  occ. eigenvalues --   -0.54609  -0.53315  -0.52067  -0.51100  -0.49449
 Alpha  occ. eigenvalues --   -0.47556  -0.46315  -0.44560  -0.44214  -0.42633
 Alpha  occ. eigenvalues --   -0.41138  -0.40721  -0.39869  -0.38858  -0.37779
 Alpha  occ. eigenvalues --   -0.36242  -0.34953  -0.34864  -0.33678  -0.32481
 Alpha  occ. eigenvalues --   -0.30976  -0.30350  -0.29591  -0.29039  -0.27955
 Alpha  occ. eigenvalues --   -0.27504  -0.26870  -0.24431
 Alpha virt. eigenvalues --    0.02499   0.05233   0.05995   0.07369   0.08792
 Alpha virt. eigenvalues --    0.09731   0.12331   0.12449   0.13116   0.13873
 Alpha virt. eigenvalues --    0.14506   0.15259   0.17048   0.17994   0.19023
 Alpha virt. eigenvalues --    0.19105   0.20136   0.21055   0.22913   0.24056
 Alpha virt. eigenvalues --    0.24237   0.24624   0.27004   0.28761   0.30096
 Alpha virt. eigenvalues --    0.30985   0.31824   0.35072   0.51393   0.51778
 Alpha virt. eigenvalues --    0.54067   0.54553   0.56695   0.58468   0.59059
 Alpha virt. eigenvalues --    0.61254   0.61955   0.63082   0.66608   0.69686
 Alpha virt. eigenvalues --    0.70485   0.71910   0.74348   0.75437   0.76824
 Alpha virt. eigenvalues --    0.77552   0.78977   0.79241   0.80661   0.82429
 Alpha virt. eigenvalues --    0.82676   0.83761   0.84112   0.84709   0.84987
 Alpha virt. eigenvalues --    0.86157   0.86526   0.87752   0.88461   0.90016
 Alpha virt. eigenvalues --    0.90753   0.91783   0.92629   0.93096   0.94371
 Alpha virt. eigenvalues --    0.96417   0.98534   0.99172   1.00015   1.01341
 Alpha virt. eigenvalues --    1.02125   1.04516   1.05496   1.06672   1.09465
 Alpha virt. eigenvalues --    1.10405   1.12410   1.12548   1.15268   1.16484
 Alpha virt. eigenvalues --    1.17425   1.18100   1.21447   1.24456   1.25711
 Alpha virt. eigenvalues --    1.28285   1.30398   1.32324   1.33756   1.36412
 Alpha virt. eigenvalues --    1.40274   1.42877   1.44215   1.45514   1.50436
 Alpha virt. eigenvalues --    1.51300   1.53098   1.54866   1.56897   1.60745
 Alpha virt. eigenvalues --    1.62435   1.63771   1.65660   1.68716   1.70959
 Alpha virt. eigenvalues --    1.71378   1.72094   1.72650   1.74507   1.75485
 Alpha virt. eigenvalues --    1.76054   1.77242   1.77924   1.79295   1.79641
 Alpha virt. eigenvalues --    1.81153   1.83379   1.85045   1.85804   1.87440
 Alpha virt. eigenvalues --    1.88726   1.89948   1.90374   1.92135   1.94487
 Alpha virt. eigenvalues --    1.95861   1.98598   2.01873   2.02346   2.03923
 Alpha virt. eigenvalues --    2.05565   2.07001   2.09472   2.11120   2.14908
 Alpha virt. eigenvalues --    2.17697   2.19348   2.24061   2.27378   2.28948
 Alpha virt. eigenvalues --    2.30625   2.33125   2.35117   2.38102   2.39773
 Alpha virt. eigenvalues --    2.41447   2.42823   2.46620   2.49510   2.51054
 Alpha virt. eigenvalues --    2.51306   2.52464   2.53452   2.56066   2.57267
 Alpha virt. eigenvalues --    2.60111   2.63264   2.64615   2.66616   2.73027
 Alpha virt. eigenvalues --    2.74015   2.77903   2.82681   2.85393   2.89222
 Alpha virt. eigenvalues --    2.94643   2.95042   3.00972   3.06167   3.09529
 Alpha virt. eigenvalues --    3.69588   3.72217   3.75677   3.77875   3.91966
 Alpha virt. eigenvalues --    3.94142   4.07287   4.08073   4.27120   4.37532
 Alpha virt. eigenvalues --    4.45573   4.57229   4.58764   4.82784
          Condensed to atoms (all electrons):
               1          2          3          4          5          6
     1  O    8.392225  -0.021611  -0.018921  -0.009009   0.167657   0.163958
     2  C   -0.021611   5.017067  -0.038817   0.336359   0.005309   0.262921
     3  C   -0.018921  -0.038817   4.964813   0.297057   0.295800  -0.018523
     4  C   -0.009009   0.336359   0.297057   4.903250  -0.037494  -0.029057
     5  C    0.167657   0.005309   0.295800  -0.037494   4.860206  -0.023049
     6  C    0.163958   0.262921  -0.018523  -0.029057  -0.023049   5.050459
     7  H    0.000632  -0.046618  -0.049188   0.345090   0.001532  -0.003840
     8  H   -0.028699  -0.047082   0.000792  -0.006949   0.000337   0.355377
     9  H    0.001625   0.358071  -0.003445  -0.037212  -0.003863  -0.041898
    10  H   -0.048034   0.000567  -0.054200   0.006942   0.371332   0.005569
    11  C   -0.027780  -0.019793   0.000243   0.003270   0.000514   0.316467
    12  H    0.002958  -0.008827  -0.000022   0.000027   0.000241  -0.041592
    13  H    0.002223   0.004480  -0.000011  -0.000109  -0.000047  -0.042126
    14  H    0.002815   0.002652   0.365084  -0.038564  -0.046968   0.000338
    15  O   -0.068325  -0.009431  -0.035640   0.002309   0.186290   0.006092
    16  H    0.004833   0.000255   0.004869  -0.000356  -0.015656  -0.000736
    17  O    0.001191  -0.002613  -0.000004   0.000045  -0.000009  -0.040858
    18  H   -0.000022  -0.000911   0.000001   0.000000  -0.000002  -0.000771
    19  O    0.001302   0.001445   0.212343  -0.034599  -0.042533   0.001319
    20  H   -0.000088  -0.000281  -0.022007   0.007199  -0.002942  -0.000013
    21  O    0.000030  -0.032325  -0.031063   0.228057   0.000963   0.004243
    22  H    0.000001  -0.009270   0.004121  -0.021161  -0.000234   0.000242
    23  O    0.000778   0.181805   0.002615  -0.034895  -0.000099  -0.026887
    24  H   -0.000005  -0.017067  -0.000203   0.004446   0.000075  -0.007165
    25  O   -0.023441  -0.000048   0.000137  -0.000001   0.004056   0.000254
    26  H    0.001057   0.000002  -0.000013   0.000001  -0.000060  -0.000098
    27  H    0.048966   0.000295   0.000467  -0.000005  -0.005938  -0.003655
    28  O    0.000000  -0.000284  -0.000007   0.001062   0.000000  -0.000027
    29  H    0.000000  -0.000234   0.000016   0.000555   0.000000  -0.000002
    30  H   -0.000002  -0.003851   0.000097  -0.000056  -0.000003   0.000610
               7          8          9         10         11         12
     1  O    0.000632  -0.028699   0.001625  -0.048034  -0.027780   0.002958
     2  C   -0.046618  -0.047082   0.358071   0.000567  -0.019793  -0.008827
     3  C   -0.049188   0.000792  -0.003445  -0.054200   0.000243  -0.000022
     4  C    0.345090  -0.006949  -0.037212   0.006942   0.003270   0.000027
     5  C    0.001532   0.000337  -0.003863   0.371332   0.000514   0.000241
     6  C   -0.003840   0.355377  -0.041898   0.005569   0.316467  -0.041592
     7  H    0.638407   0.005119   0.006855  -0.000393  -0.000159   0.000004
     8  H    0.005119   0.618399   0.006268  -0.000200  -0.058670   0.005882
     9  H    0.006855   0.006268   0.569544   0.000175  -0.009795   0.004968
    10  H   -0.000393  -0.000200   0.000175   0.637989  -0.000146   0.000026
    11  C   -0.000159  -0.058670  -0.009795  -0.000146   4.977000   0.364557
    12  H    0.000004   0.005882   0.004968   0.000026   0.364557   0.557976
    13  H    0.000007  -0.005325   0.000005   0.000001   0.363840  -0.038824
    14  H    0.004173   0.000000   0.000222  -0.003637   0.000014  -0.000002
    15  O    0.000036  -0.000051   0.012348  -0.036668  -0.001298   0.002974
    16  H    0.000008   0.000014   0.000068  -0.009919   0.000107   0.000064
    17  O   -0.000011   0.003080   0.000080   0.000001   0.208888  -0.030358
    18  H    0.000001   0.003731   0.000061   0.000000  -0.025707   0.006381
    19  O    0.003623   0.000330  -0.000024   0.000042   0.000007   0.000000
    20  H    0.000081  -0.000004   0.000010   0.005935  -0.000001   0.000000
    21  O   -0.043729  -0.000021   0.002090  -0.000102  -0.000063  -0.000002
    22  H   -0.001482  -0.000009  -0.000305   0.000007  -0.000007   0.000000
    23  O   -0.001550   0.003186  -0.043352   0.000004   0.000027   0.000149
    24  H   -0.000112  -0.000128  -0.002075   0.000000  -0.005124  -0.000182
    25  O    0.000000  -0.000029  -0.000020   0.003015   0.000649   0.001661
    26  H    0.000000   0.000005  -0.000001  -0.000089   0.000131   0.000544
    27  H    0.000000   0.000218  -0.000008  -0.002326  -0.000068   0.000219
    28  O    0.000301  -0.000001  -0.000040   0.000000   0.000000   0.000000
    29  H   -0.000005   0.000000  -0.000009   0.000000   0.000000   0.000000
    30  H    0.000362   0.000008   0.000365   0.000000  -0.000017  -0.000001
              13         14         15         16         17         18
     1  O    0.002223   0.002815  -0.068325   0.004833   0.001191  -0.000022
     2  C    0.004480   0.002652  -0.009431   0.000255  -0.002613  -0.000911
     3  C   -0.000011   0.365084  -0.035640   0.004869  -0.000004   0.000001
     4  C   -0.000109  -0.038564   0.002309  -0.000356   0.000045   0.000000
     5  C   -0.000047  -0.046968   0.186290  -0.015656  -0.000009  -0.000002
     6  C   -0.042126   0.000338   0.006092  -0.000736  -0.040858  -0.000771
     7  H    0.000007   0.004173   0.000036   0.000008  -0.000011   0.000001
     8  H   -0.005325   0.000000  -0.000051   0.000014   0.003080   0.003731
     9  H    0.000005   0.000222   0.012348   0.000068   0.000080   0.000061
    10  H    0.000001  -0.003637  -0.036668  -0.009919   0.000001   0.000000
    11  C    0.363840   0.000014  -0.001298   0.000107   0.208888  -0.025707
    12  H   -0.038824  -0.000002   0.002974   0.000064  -0.030358   0.006381
    13  H    0.611157   0.000000   0.000056  -0.000017  -0.028341  -0.010684
    14  H    0.000000   0.568603   0.005719   0.000062   0.000000   0.000000
    15  O    0.000056   0.005719   8.381668   0.218026   0.000006  -0.000001
    16  H   -0.000017   0.000062   0.218026   0.320718   0.000000   0.000000
    17  O   -0.028341   0.000000   0.000006   0.000000   8.235914   0.237561
    18  H   -0.010684   0.000000  -0.000001   0.000000   0.237561   0.381801
    19  O    0.000000  -0.032491   0.001592  -0.000090   0.000000   0.000000
    20  H    0.000000  -0.007254  -0.000079  -0.000013   0.000000   0.000000
    21  O    0.000000   0.003541   0.000077   0.000007   0.000000   0.000000
    22  H    0.000000   0.000003   0.000006  -0.000001   0.000003   0.000000
    23  O   -0.000211  -0.000051   0.000111  -0.000004  -0.015959   0.001523
    24  H    0.000638   0.000004  -0.000008   0.000000   0.049139  -0.002528
    25  O   -0.000132   0.000007  -0.027348   0.056301   0.000002   0.000000
    26  H    0.000110   0.000000   0.001569  -0.002464   0.000001   0.000000
    27  H    0.001628  -0.000040   0.004116  -0.006703   0.000009   0.000000
    28  O    0.000000   0.000000   0.000000   0.000000   0.000000   0.000000
    29  H    0.000000   0.000001   0.000000   0.000000   0.000000   0.000000
    30  H    0.000001  -0.000004   0.000000   0.000000   0.000026  -0.000003
              19         20         21         22         23         24
     1  O    0.001302  -0.000088   0.000030   0.000001   0.000778  -0.000005
     2  C    0.001445  -0.000281  -0.032325  -0.009270   0.181805  -0.017067
     3  C    0.212343  -0.022007  -0.031063   0.004121   0.002615  -0.000203
     4  C   -0.034599   0.007199   0.228057  -0.021161  -0.034895   0.004446
     5  C   -0.042533  -0.002942   0.000963  -0.000234  -0.000099   0.000075
     6  C    0.001319  -0.000013   0.004243   0.000242  -0.026887  -0.007165
     7  H    0.003623   0.000081  -0.043729  -0.001482  -0.001550  -0.000112
     8  H    0.000330  -0.000004  -0.000021  -0.000009   0.003186  -0.000128
     9  H   -0.000024   0.000010   0.002090  -0.000305  -0.043352  -0.002075
    10  H    0.000042   0.005935  -0.000102   0.000007   0.000004   0.000000
    11  C    0.000007  -0.000001  -0.000063  -0.000007   0.000027  -0.005124
    12  H    0.000000   0.000000  -0.000002   0.000000   0.000149  -0.000182
    13  H    0.000000   0.000000   0.000000   0.000000  -0.000211   0.000638
    14  H   -0.032491  -0.007254   0.003541   0.000003  -0.000051   0.000004
    15  O    0.001592  -0.000079   0.000077   0.000006   0.000111  -0.000008
    16  H   -0.000090  -0.000013   0.000007  -0.000001  -0.000004   0.000000
    17  O    0.000000   0.000000   0.000000   0.000003  -0.015959   0.049139
    18  H    0.000000   0.000000   0.000000   0.000000   0.001523  -0.002528
    19  O    8.288613   0.229572   0.000755  -0.000106  -0.000008   0.000001
    20  H    0.229572   0.396033  -0.000169   0.000010   0.000001   0.000000
    21  O    0.000755  -0.000169   8.385663   0.180154  -0.001243  -0.000040
    22  H   -0.000106   0.000010   0.180154   0.373305   0.005346  -0.000019
    23  O   -0.000008   0.000001  -0.001243   0.005346   8.371066   0.219842
    24  H    0.000001   0.000000  -0.000040  -0.000019   0.219842   0.330167
    25  O    0.000001   0.000000   0.000000   0.000000   0.000000   0.000000
    26  H    0.000000   0.000000   0.000000   0.000000   0.000000   0.000000
    27  H   -0.000018  -0.000002   0.000000   0.000000  -0.000002   0.000001
    28  O    0.000000   0.000000  -0.023803   0.085184  -0.025171   0.000724
    29  H    0.000000   0.000000   0.002346  -0.004062   0.001040  -0.000006
    30  H    0.000000   0.000000   0.004644  -0.011864   0.056204  -0.001800
              25         26         27         28         29         30
     1  O   -0.023441   0.001057   0.048966   0.000000   0.000000  -0.000002
     2  C   -0.000048   0.000002   0.000295  -0.000284  -0.000234  -0.003851
     3  C    0.000137  -0.000013   0.000467  -0.000007   0.000016   0.000097
     4  C   -0.000001   0.000001  -0.000005   0.001062   0.000555  -0.000056
     5  C    0.004056  -0.000060  -0.005938   0.000000   0.000000  -0.000003
     6  C    0.000254  -0.000098  -0.003655  -0.000027  -0.000002   0.000610
     7  H    0.000000   0.000000   0.000000   0.000301  -0.000005   0.000362
     8  H   -0.000029   0.000005   0.000218  -0.000001   0.000000   0.000008
     9  H   -0.000020  -0.000001  -0.000008  -0.000040  -0.000009   0.000365
    10  H    0.003015  -0.000089  -0.002326   0.000000   0.000000   0.000000
    11  C    0.000649   0.000131  -0.000068   0.000000   0.000000  -0.000017
    12  H    0.001661   0.000544   0.000219   0.000000   0.000000  -0.000001
    13  H   -0.000132   0.000110   0.001628   0.000000   0.000000   0.000001
    14  H    0.000007   0.000000  -0.000040   0.000000   0.000001  -0.000004
    15  O   -0.027348   0.001569   0.004116   0.000000   0.000000   0.000000
    16  H    0.056301  -0.002464  -0.006703   0.000000   0.000000   0.000000
    17  O    0.000002   0.000001   0.000009   0.000000   0.000000   0.000026
    18  H    0.000000   0.000000   0.000000   0.000000   0.000000  -0.000003
    19  O    0.000001   0.000000  -0.000018   0.000000   0.000000   0.000000
    20  H    0.000000   0.000000  -0.000002   0.000000   0.000000   0.000000
    21  O    0.000000   0.000000   0.000000  -0.023803   0.002346   0.004644
    22  H    0.000000   0.000000   0.000000   0.085184  -0.004062  -0.011864
    23  O    0.000000   0.000000  -0.000002  -0.025171   0.001040   0.056204
    24  H    0.000000   0.000000   0.000001   0.000724  -0.000006  -0.001800
    25  O    8.341119   0.243812   0.214522   0.000000   0.000000   0.000000
    26  H    0.243812   0.369312  -0.011676   0.000000   0.000000   0.000000
    27  H    0.214522  -0.011676   0.332078   0.000000   0.000000   0.000000
    28  O    0.000000   0.000000   0.000000   8.306797   0.244347   0.215129
    29  H    0.000000   0.000000   0.000000   0.244347   0.377548  -0.016022
    30  H    0.000000   0.000000   0.000000   0.215129  -0.016022   0.322385
 Mulliken charges:
               1
     1  O   -0.546316
     2  C    0.087837
     3  C    0.123609
     4  C    0.113801
     5  C    0.284584
     6  C    0.112445
     7  H    0.140853
     8  H    0.144423
     9  H    0.179294
    10  H    0.124108
    11  C   -0.087086
    12  H    0.171179
    13  H    0.141681
    14  H    0.175772
    15  O   -0.644145
    16  H    0.430626
    17  O   -0.617791
    18  H    0.409569
    19  O   -0.631076
    20  H    0.394011
    21  O   -0.680010
    22  H    0.400139
    23  O   -0.694266
    24  H    0.431427
    25  O   -0.814515
    26  H    0.397858
    27  H    0.427922
    28  O   -0.804210
    29  H    0.394486
    30  H    0.433791
 Sum of Mulliken charges =   0.00000
 Mulliken charges with hydrogens summed into heavy atoms:
               1
     1  O   -0.546316
     2  C    0.267131
     3  C    0.299381
     4  C    0.254653
     5  C    0.408692
     6  C    0.256868
    11  C    0.225774
    15  O   -0.213519
    17  O   -0.208222
    19  O   -0.237065
    21  O   -0.279871
    23  O   -0.262839
    25  O    0.011265
    28  O    0.024068
 Electronic spatial extent (au):  <R**2>=           3276.2157
 Charge=              0.0000 electrons
 Dipole moment (field-independent basis, Debye):
    X=             -3.8435    Y=              3.1958    Z=              3.0487  Tot=              5.8549
 Quadrupole moment (field-independent basis, Debye-Ang):
   XX=            -86.3004   YY=            -71.2661   ZZ=            -86.7204
   XY=             -2.1252   XZ=              9.9689   YZ=              2.3343
 Traceless Quadrupole moment (field-independent basis, Debye-Ang):
   XX=             -4.8714   YY=             10.1628   ZZ=             -5.2914
   XY=             -2.1252   XZ=              9.9689   YZ=              2.3343
 Octapole moment (field-independent basis, Debye-Ang**2):
  XXX=            -30.1040  YYY=             -6.5965  ZZZ=             -2.7658  XYY=            -31.8724
  XXY=             13.9051  XXZ=             26.4721  XZZ=            -11.1473  YZZ=             23.1235
  YYZ=             24.9198  XYZ=              6.2335
 Hexadecapole moment (field-independent basis, Debye-Ang**3):
 XXXX=          -2065.2257 YYYY=          -1206.5672 ZZZZ=           -375.0056 XXXY=           -181.4521
 XXXZ=            210.7298 YYYX=             76.2780 YYYZ=             47.1153 ZZZX=             25.8508
 ZZZY=             14.5711 XXYY=           -509.2975 XXZZ=           -402.1653 YYZZ=           -254.3268
 XXYZ=            -41.2959 YYXZ=             -3.2568 ZZXY=              0.2345
 N-N= 1.104090318982D+03 E-N=-4.180831026129D+03  KE= 8.329600652159D+02
 Calling FoFJK, ICntrl=      2127 FMM=F ISym2X=0 I1Cent= 0 IOpClX= 0 NMat=1 NMatS=1 NMatT=0.
 ***** Axes restored to original set *****
 -------------------------------------------------------------------
 Center     Atomic                   Forces (Hartrees/Bohr)
 Number     Number              X              Y              Z
 -------------------------------------------------------------------
      1        8           0.002344496    0.058921012    0.002024900
      2        6          -0.005307248   -0.005200932    0.004205184
      3        6          -0.006392337    0.039130244   -0.016672518
      4        6          -0.006707053    0.037171744    0.006009811
      5        6           0.015066899   -0.078094862    0.030642028
      6        6          -0.004229019   -0.027623695   -0.004282408
      7        1           0.003392361   -0.011095129   -0.006934056
      8        1          -0.002626189    0.001982415    0.000350385
      9        1          -0.005882939   -0.007779951   -0.001861322
     10        1           0.002028665   -0.003481418   -0.008201993
     11        6          -0.003576120   -0.009229879    0.000394046
     12        1          -0.000190755    0.003975616    0.000422330
     13        1          -0.002838512   -0.002592414   -0.001792816
     14        1           0.008229291   -0.000476580    0.007542243
     15        8          -0.012719764    0.024792654   -0.007922338
     16        1           0.007261776   -0.004784113   -0.003465302
     17        8           0.006348238    0.001965409   -0.002690146
     18        1          -0.001422613    0.003688942    0.005443032
     19        8           0.005721255   -0.000394023    0.000937964
     20        1           0.002939953    0.001269455   -0.000009973
     21        8           0.000263680   -0.016794760   -0.001694957
     22        1          -0.009424187    0.007184188    0.007067374
     23        8           0.004739263   -0.008701136   -0.010963578
     24        1          -0.003531613    0.001559174   -0.002277540
     25        8          -0.014420917   -0.018082559    0.016727534
     26        1           0.007412976   -0.001331583   -0.000915458
     27        1           0.008219198    0.008668831   -0.010104208
     28        8          -0.006741859    0.016499344    0.020162582
     29        1          -0.000490031   -0.001637612   -0.009480170
     30        1           0.012533104   -0.009508382   -0.012660630
 -------------------------------------------------------------------
 Cartesian Forces:  Max     0.078094862 RMS     0.014790048

 GradGradGradGradGradGradGradGradGradGradGradGradGradGradGradGradGradGrad
 Berny optimization.
 FormGI is forming the generalized inverse of G from B-inverse, IUseBI=4.
 Internal  Forces:  Max     0.035689758 RMS     0.006203306
 Search for a local minimum.
 Step number   1 out of a maximum of  180
 All quantities printed in internal units (Hartrees-Bohrs-Radians)
 Mixed Optimization -- RFO/linear search
 Second derivative matrix not updated -- first step.
 ITU=  0
     Eigenvalues ---    0.00358   0.00421   0.00753   0.00760   0.00930
     Eigenvalues ---    0.00973   0.01173   0.01201   0.01345   0.01442
     Eigenvalues ---    0.01572   0.02060   0.02229   0.02645   0.03300
     Eigenvalues ---    0.03502   0.03849   0.04112   0.04327   0.04495
     Eigenvalues ---    0.04702   0.04743   0.04892   0.05011   0.05662
     Eigenvalues ---    0.05706   0.05733   0.05800   0.05964   0.06200
     Eigenvalues ---    0.06215   0.06688   0.06943   0.07116   0.07498
     Eigenvalues ---    0.08868   0.09494   0.10854   0.11182   0.11587
     Eigenvalues ---    0.11885   0.13112   0.13694   0.13888   0.15294
     Eigenvalues ---    0.15557   0.16000   0.16000   0.16141   0.16301
     Eigenvalues ---    0.16840   0.18767   0.19706   0.21971   0.24089
     Eigenvalues ---    0.25738   0.26997   0.28779   0.29347   0.31575
     Eigenvalues ---    0.33885   0.33981   0.34000   0.34063   0.34170
     Eigenvalues ---    0.34182   0.34204   0.35123   0.37283   0.37854
     Eigenvalues ---    0.39697   0.40730   0.41543   0.49248   0.50097
     Eigenvalues ---    0.51030   0.51700   0.52256   0.52811   0.53988
     Eigenvalues ---    0.55473   0.554731000.000001000.000001000.00000
     Eigenvalues --- 1000.000001000.000001000.000001000.000001000.00000
     Eigenvalues --- 1000.000001000.000001000.000001000.000001000.00000
     Eigenvalues --- 1000.000001000.000001000.000001000.000001000.00000
     Eigenvalues --- 1000.000001000.000001000.000001000.000001000.00000
     Eigenvalues --- 1000.000001000.000001000.000001000.000001000.00000
     Eigenvalues --- 1000.000001000.000001000.000001000.000001000.00000
     Eigenvalues --- 1000.000001000.000001000.000001000.000001000.00000
     Eigenvalues --- 1000.000001000.000001000.000001000.000001000.00000
     Eigenvalues --- 1000.000001000.000001000.000001000.000001000.00000
     Eigenvalues --- 1000.000001000.000001000.000001000.000001000.00000
     Eigenvalues --- 1000.000001000.000001000.000001000.000001000.00000
     Eigenvalues --- 1000.000001000.000001000.000001000.000001000.00000
     Eigenvalues --- 1000.000001000.000001000.000001000.000001000.00000
     Eigenvalues --- 1000.000001000.000001000.000001000.000001000.00000
     Eigenvalues --- 1000.000001000.000001000.000001000.000001000.00000
     Eigenvalues --- 1000.000001000.000001000.000001000.000001000.00000
     Eigenvalues --- 1000.000001000.000001000.000001000.000001000.00000
     Eigenvalues --- 1000.000001000.000001000.000001000.000001000.00000
     Eigenvalues --- 1000.000001000.000001000.000001000.000001000.00000
     Eigenvalues --- 1000.000001000.00000
 RFO step:  Lambda=-3.17467833D-02 EMin= 3.58095532D-03
 Linear search not attempted -- first point.
 Maximum step size (   0.300) exceeded in Quadratic search.
    -- Step size scaled by   0.886
 Iteration  1 RMS(Cart)=  0.04080126 RMS(Int)=  0.00125117
 Iteration  2 RMS(Cart)=  0.00168825 RMS(Int)=  0.00066665
 Iteration  3 RMS(Cart)=  0.00000241 RMS(Int)=  0.00066665
 Iteration  4 RMS(Cart)=  0.00000000 RMS(Int)=  0.00066665
 Iteration  1 RMS(Cart)=  0.00006259 RMS(Int)=  0.00010697
 Iteration  2 RMS(Cart)=  0.00004894 RMS(Int)=  0.00011493
 Iteration  3 RMS(Cart)=  0.00003843 RMS(Int)=  0.00013119
 Iteration  4 RMS(Cart)=  0.00003031 RMS(Int)=  0.00014875
 Iteration  5 RMS(Cart)=  0.00002400 RMS(Int)=  0.00016493
 Iteration  6 RMS(Cart)=  0.00001908 RMS(Int)=  0.00017898
 Iteration  7 RMS(Cart)=  0.00001523 RMS(Int)=  0.00019084
 Iteration  8 RMS(Cart)=  0.00001219 RMS(Int)=  0.00020072
 Iteration  9 RMS(Cart)=  0.00000979 RMS(Int)=  0.00020889
 Iteration 10 RMS(Cart)=  0.00000788 RMS(Int)=  0.00021560
 Iteration 11 RMS(Cart)=  0.00000635 RMS(Int)=  0.00022110
 Iteration 12 RMS(Cart)=  0.00000514 RMS(Int)=  0.00022561
 Iteration 13 RMS(Cart)=  0.00000416 RMS(Int)=  0.00022929
 Iteration 14 RMS(Cart)=  0.00000337 RMS(Int)=  0.00023229
 Iteration 15 RMS(Cart)=  0.00000274 RMS(Int)=  0.00023475
 Iteration 16 RMS(Cart)=  0.00000222 RMS(Int)=  0.00023674
 Iteration 17 RMS(Cart)=  0.00000181 RMS(Int)=  0.00023837
 Iteration 18 RMS(Cart)=  0.00000147 RMS(Int)=  0.00023970
 Iteration 19 RMS(Cart)=  0.00000120 RMS(Int)=  0.00024079
 Iteration 20 RMS(Cart)=  0.00000098 RMS(Int)=  0.00024167
 Variable       Old X    -DE/DX   Delta X   Delta X   Delta X     New X
                                 (Linear)    (Quad)   (Total)
    R1        2.78249  -0.01434   0.00000  -0.03735  -0.03591   2.74658
    R2        2.90468  -0.03038   0.00000  -0.09321  -0.09248   2.81221
    R3        3.50472   0.00790   0.00000   0.06197   0.06212   3.56684
    R4        2.89457  -0.00225   0.00000  -0.00908  -0.01016   2.88441
    R5        2.90619  -0.00028   0.00000  -0.00642  -0.00685   2.89934
    R6        2.07023  -0.00125   0.00000  -0.00296  -0.00296   2.06727
    R7        2.71839   0.00098   0.00000   0.00205   0.00221   2.72059
    R8        2.90465  -0.00574   0.00000  -0.00701  -0.00773   2.89692
    R9        2.75601   0.03569   0.00000   0.08666   0.08740   2.84341
   R10        2.07225  -0.00151   0.00000  -0.00360  -0.00360   2.06865
   R11        2.71967  -0.00445   0.00000  -0.00920  -0.00920   2.71046
   R12        2.07524   0.00216   0.00000   0.00516   0.00516   2.08041
   R13        2.72190  -0.00603   0.00000  -0.01272  -0.01264   2.70926
   R14        2.07330   0.00245   0.00000   0.00584   0.00584   2.07913
   R15        2.68398  -0.01042   0.00000  -0.02147  -0.02121   2.66277
   R16        2.07337  -0.00014   0.00000  -0.00037  -0.00036   2.07301
   R17        2.89285  -0.00016   0.00000  -0.00043  -0.00043   2.89242
   R18        2.06987  -0.00054   0.00000  -0.00128  -0.00128   2.06859
   R19        2.07044   0.00219   0.00000   0.00521   0.00521   2.07565
   R20        2.69509   0.00716   0.00000   0.01419   0.01419   2.70928
   R21        1.83790   0.00862   0.00000   0.01703   0.01681   1.85471
   R22        3.47710   0.00210   0.00000   0.04672   0.04627   3.52336
   R23        1.84355  -0.00582   0.00000  -0.00930  -0.00930   1.83425
   R24        1.83830  -0.00310   0.00000  -0.00491  -0.00491   1.83339
   R25        1.84834   0.00292   0.00000   0.00459   0.00442   1.85275
   R26        3.51556   0.00115   0.00000   0.00160   0.00138   3.51693
   R27        3.28979   0.00505   0.00000   0.07429   0.07414   3.36394
   R28        1.85540  -0.00419   0.00000  -0.00685  -0.00685   1.84854
   R29        3.32069   0.00655   0.00000   0.05907   0.05902   3.37971
   R30        1.81414   0.00621   0.00000   0.00939   0.00939   1.82352
   R31        1.81414   0.02011   0.00000   0.03021   0.03002   1.84416
   R32        1.81414   0.00701   0.00000   0.01060   0.01060   1.82473
   R33        1.81414   0.02023   0.00000   0.03091   0.03122   1.84536
    A1        1.89955   0.01226   0.00000   0.06768   0.06920   1.96875
    A2        1.69327  -0.00906   0.00000  -0.02720  -0.02686   1.66641
    A3        2.18893  -0.00189   0.00000  -0.01466  -0.01629   2.17263
    A4        1.91643   0.00609   0.00000   0.01231   0.01264   1.92907
    A5        1.91925  -0.00058   0.00000  -0.00379  -0.00403   1.91522
    A6        1.89041  -0.00536   0.00000  -0.02348  -0.02373   1.86668
    A7        1.95038  -0.00381   0.00000  -0.01148  -0.01195   1.93843
    A8        1.94570  -0.00364   0.00000  -0.03119  -0.03105   1.91465
    A9        1.83958   0.00711   0.00000   0.05820   0.05859   1.89817
   A10        1.90284   0.00745   0.00000   0.05033   0.05160   1.95444
   A11        1.91105  -0.00045   0.00000  -0.01089  -0.01076   1.90029
   A12        1.89624  -0.00746   0.00000  -0.03841  -0.03845   1.85779
   A13        1.94338  -0.00543   0.00000  -0.02976  -0.02997   1.91340
   A14        1.94265  -0.00129   0.00000  -0.02243  -0.02229   1.92036
   A15        1.86683   0.00695   0.00000   0.04983   0.04985   1.91668
   A16        2.00278  -0.01059   0.00000  -0.04088  -0.04199   1.96079
   A17        1.89472   0.00029   0.00000  -0.00578  -0.00738   1.88733
   A18        1.89862   0.00824   0.00000   0.02551   0.02513   1.92375
   A19        1.90846  -0.00081   0.00000  -0.01930  -0.02041   1.88806
   A20        1.92591   0.00043   0.00000  -0.01196  -0.01079   1.91512
   A21        1.82467   0.00377   0.00000   0.06229   0.06212   1.88680
   A22        2.05840  -0.01542   0.00000  -0.06358  -0.06566   1.99273
   A23        1.79776   0.00078   0.00000   0.00141   0.00199   1.79975
   A24        1.88901   0.01327   0.00000   0.02815   0.02500   1.91401
   A25        1.87395   0.00936   0.00000   0.05127   0.05154   1.92550
   A26        1.97904  -0.00942   0.00000  -0.05135  -0.05172   1.92732
   A27        1.84503   0.00437   0.00000   0.05386   0.05408   1.89911
   A28        2.00094  -0.00025   0.00000  -0.01110  -0.01101   1.98992
   A29        1.83336   0.00371   0.00000   0.01650   0.01657   1.84993
   A30        1.87179  -0.00725   0.00000  -0.02670  -0.02666   1.84513
   A31        1.90730  -0.00505   0.00000  -0.00935  -0.00949   1.89782
   A32        1.95267   0.00671   0.00000   0.00980   0.00935   1.96202
   A33        1.89147   0.00211   0.00000   0.02327   0.02343   1.91490
   A34        1.92573  -0.00097   0.00000  -0.01116  -0.01126   1.91447
   A35        1.93910  -0.00387   0.00000  -0.01347  -0.01364   1.92546
   A36        1.93878   0.00283   0.00000   0.00907   0.00899   1.94777
   A37        1.86172   0.00223   0.00000   0.01249   0.01253   1.87425
   A38        1.89008  -0.00350   0.00000  -0.02538  -0.02537   1.86470
   A39        1.90619   0.00327   0.00000   0.02848   0.02853   1.93471
   A40        1.84378  -0.00411   0.00000  -0.01709  -0.01657   1.82721
   A41        2.36483   0.00261   0.00000   0.02381   0.02370   2.38853
   A42        1.86449   0.00524   0.00000   0.02422   0.02422   1.88871
   A43        1.87467  -0.00078   0.00000  -0.00359  -0.00359   1.87108
   A44        1.82820  -0.00226   0.00000  -0.01044  -0.01055   1.81765
   A45        2.76018  -0.00613   0.00000  -0.03145  -0.03090   2.72928
   A46        1.84752   0.00085   0.00000   0.00374   0.00360   1.85112
   A47        2.15472  -0.00170   0.00000  -0.01061  -0.01050   2.14421
   A48        2.11049   0.00036   0.00000   0.00080   0.00079   2.11127
   A49        2.11282   0.00424   0.00000   0.00827   0.00761   2.12043
   A50        1.67513  -0.00771   0.00000  -0.03175  -0.03261   1.64253
   A51        1.91114  -0.00156   0.00000  -0.02994  -0.03009   1.88105
   A52        2.39307   0.00370   0.00000   0.01077   0.01102   2.40409
   A53        1.63192  -0.00276   0.00000  -0.00434  -0.00389   1.62803
   A54        1.91114  -0.00782   0.00000  -0.04715  -0.04757   1.86356
   A55        1.46997   0.00281   0.00000   0.00387   0.00317   1.47314
   A56        3.27635   0.00013   0.00000  -0.02077  -0.02084   3.25550
   A57        2.89688  -0.00346   0.00000  -0.03876  -0.03859   2.85828
   A58        2.97321   0.00043   0.00000   0.02013   0.02095   2.99416
   A59        3.06073  -0.00358   0.00000  -0.03124  -0.03093   3.02980
    D1        0.96345  -0.00509   0.00000  -0.05979  -0.05755   0.90589
    D2        3.02272  -0.00116   0.00000  -0.02895  -0.02761   2.99511
    D3       -1.31205   0.00912   0.00000   0.04263   0.04468  -1.26738
    D4       -3.02957  -0.00668   0.00000  -0.06067  -0.05972  -3.08928
    D5       -0.97029  -0.00275   0.00000  -0.02983  -0.02977  -1.00006
    D6        0.97812   0.00752   0.00000   0.04175   0.04251   1.02063
    D7        0.01366  -0.00723   0.00000   0.00000   0.00002   0.01368
    D8       -2.08014  -0.00336   0.00000   0.00669   0.00690  -2.07324
    D9        2.19308  -0.00428   0.00000  -0.01569  -0.01536   2.17772
   D10       -1.96971  -0.00456   0.00000  -0.01441  -0.01466  -1.98437
   D11        2.21968  -0.00069   0.00000  -0.00772  -0.00778   2.21190
   D12        0.20971  -0.00162   0.00000  -0.03009  -0.03004   0.17967
   D13       -0.35540  -0.00027   0.00000  -0.01030  -0.01116  -0.36656
   D14        1.72369   0.00714   0.00000   0.04848   0.04881   1.77250
   D15        0.85784  -0.00243   0.00000   0.01034   0.00914   0.86698
   D16       -1.28292   0.00576   0.00000   0.06826   0.06752  -1.21540
   D17        3.02446  -0.00303   0.00000  -0.01490  -0.01582   3.00864
   D18       -1.29510  -0.00134   0.00000   0.01904   0.01843  -1.27667
   D19        2.84732   0.00685   0.00000   0.07696   0.07680   2.92412
   D20        0.87152  -0.00194   0.00000  -0.00620  -0.00653   0.86499
   D21        2.98622  -0.00653   0.00000  -0.03520  -0.03581   2.95040
   D22        0.84546   0.00166   0.00000   0.02272   0.02256   0.86802
   D23       -1.13035  -0.00713   0.00000  -0.06044  -0.06078  -1.19112
   D24       -0.85680  -0.00556   0.00000  -0.03627  -0.03592  -0.89272
   D25        1.19541  -0.00454   0.00000  -0.02890  -0.02846   1.16695
   D26       -2.99299  -0.00100   0.00000   0.00023   0.00057  -2.99242
   D27        1.27776  -0.00462   0.00000  -0.04026  -0.04041   1.23735
   D28       -2.95322  -0.00361   0.00000  -0.03290  -0.03295  -2.98617
   D29       -0.85843  -0.00007   0.00000  -0.00377  -0.00391  -0.86235
   D30       -2.95186  -0.00054   0.00000   0.00506   0.00495  -2.94691
   D31       -0.89965   0.00047   0.00000   0.01242   0.01240  -0.88724
   D32        1.19514   0.00401   0.00000   0.04155   0.04144   1.23657
   D33       -3.04658  -0.00020   0.00000   0.01878   0.01786  -3.02872
   D34        0.69036   0.00029   0.00000   0.02700   0.02607   0.71642
   D35       -0.93624   0.00159   0.00000  -0.00075   0.00022  -0.93602
   D36        2.80069   0.00207   0.00000   0.00747   0.00843   2.80913
   D37        1.18306  -0.00061   0.00000   0.00440   0.00416   1.18722
   D38       -1.36319  -0.00012   0.00000   0.01262   0.01237  -1.35082
   D39       -0.01112   0.00435   0.00000   0.00000  -0.00002  -0.01114
   D40        2.12221  -0.00337   0.00000  -0.05121  -0.05139   2.07083
   D41       -2.16321   0.00095   0.00000   0.00609   0.00555  -2.15766
   D42        2.11892   0.00210   0.00000  -0.01166  -0.01135   2.10757
   D43       -2.03094  -0.00562   0.00000  -0.06286  -0.06271  -2.09365
   D44       -0.03318  -0.00130   0.00000  -0.00556  -0.00577  -0.03895
   D45       -2.13109   0.00596   0.00000   0.02028   0.02068  -2.11041
   D46        0.00224  -0.00176   0.00000  -0.03092  -0.03069  -0.02845
   D47        2.00000   0.00256   0.00000   0.02638   0.02625   2.02625
   D48       -0.96501   0.00506   0.00000   0.05864   0.05643  -0.90858
   D49       -2.98336   0.00643   0.00000   0.05722   0.05777  -2.92558
   D50        1.26847   0.00041   0.00000  -0.01262  -0.01089   1.25758
   D51       -3.07539   0.00413   0.00000   0.05784   0.05568  -3.01972
   D52        1.18945   0.00550   0.00000   0.05642   0.05701   1.24646
   D53       -0.84191  -0.00052   0.00000  -0.01342  -0.01165  -0.85356
   D54        1.12649  -0.00017   0.00000   0.02965   0.02735   1.15384
   D55       -0.89185   0.00120   0.00000   0.02823   0.02869  -0.86316
   D56       -2.92321  -0.00482   0.00000  -0.04161  -0.03997  -2.96318
   D57       -2.87096   0.00103   0.00000   0.00175   0.00282  -2.86814
   D58        1.31681  -0.00258   0.00000  -0.02190  -0.02291   1.29391
   D59       -0.80957   0.00037   0.00000  -0.00412  -0.00419  -0.81376
   D60        0.84485   0.00565   0.00000   0.04211   0.04302   0.88787
   D61        3.05636  -0.00166   0.00000  -0.00017  -0.00026   3.05610
   D62       -1.17662  -0.00032   0.00000   0.00585   0.00502  -1.17160
   D63       -1.26816  -0.00654   0.00000  -0.01660  -0.01798  -1.28615
   D64        2.69657   0.01091   0.00000   0.08974   0.08970   2.78627
   D65        0.64826   0.00185   0.00000   0.02107   0.02225   0.67050
   D66       -1.15339   0.00043   0.00000   0.01585   0.01571  -1.13768
   D67        0.90774   0.00016   0.00000   0.01584   0.01576   0.92350
   D68        3.03348   0.00362   0.00000   0.04914   0.04898   3.08247
   D69        1.05491  -0.00059   0.00000  -0.01110  -0.01112   1.04378
   D70        3.11604  -0.00085   0.00000  -0.01111  -0.01107   3.10497
   D71       -1.04141   0.00260   0.00000   0.02220   0.02215  -1.01926
   D72       -3.12425  -0.00130   0.00000  -0.00122  -0.00109  -3.12534
   D73       -1.06312  -0.00157   0.00000  -0.00123  -0.00104  -1.06416
   D74        1.06262   0.00189   0.00000   0.03208   0.03218   1.09480
   D75       -1.45234   0.00076   0.00000   0.01018   0.01006  -1.44227
   D76        2.71350   0.00249   0.00000   0.03492   0.03480   2.74830
   D77        0.69248   0.00000   0.00000   0.01872   0.01896   0.71145
   D78        0.82935  -0.00697   0.00000  -0.04689  -0.04622   0.78313
   D79        1.87810  -0.00441   0.00000  -0.01816  -0.01819   1.85991
   D80       -0.16490   0.00135   0.00000   0.03869   0.03925  -0.12565
   D81       -0.02059  -0.00023   0.00000  -0.01787  -0.01760  -0.03819
   D82        1.56011  -0.00227   0.00000  -0.01820  -0.01800   1.54211
   D83       -2.52431   0.00242   0.00000   0.05163   0.05183  -2.47247
   D84       -0.40080   0.00128   0.00000   0.01798   0.01823  -0.38257
   D85       -1.53466  -0.00326   0.00000  -0.05020  -0.04984  -1.58450
   D86        2.34126  -0.00076   0.00000  -0.02606  -0.02607   2.31519
   D87       -0.08860  -0.00132   0.00000  -0.01686  -0.01707  -0.10567
   D88       -2.55014  -0.00076   0.00000  -0.00752  -0.00771  -2.55785
   D89       -0.09418   0.00168   0.00000  -0.00579  -0.00546  -0.09965
   D90       -2.29274   0.00145   0.00000   0.01274   0.01212  -2.28062
         Item               Value     Threshold  Converged?
 Maximum Force            0.033991     0.000450     NO 
 RMS     Force            0.006070     0.000300     NO 
 Maximum Displacement     0.177256     0.001800     NO 
 RMS     Displacement     0.041595     0.001200     NO 
 Predicted change in Energy=-1.857450D-02
 GradGradGradGradGradGradGradGradGradGradGradGradGradGradGradGradGradGrad

                          Input orientation:                          
 ---------------------------------------------------------------------
 Center     Atomic      Atomic             Coordinates (Angstroms)
 Number     Number       Type             X           Y           Z
 ---------------------------------------------------------------------
      1          8           0       -0.001345   -1.619680   -0.464128
      2          6           0        0.479728    0.769449    0.234149
      3          6           0       -1.899101   -0.058802   -0.103749
      4          6           0       -0.947018    1.141341   -0.160669
      5          6           0       -1.191791   -1.319507    0.313808
      6          6           0        0.944635   -0.473160   -0.536405
      7          1           0       -0.929394    1.516982   -1.195353
      8          1           0        1.028786   -0.217326   -1.599820
      9          1           0        0.533114    0.605035    1.314360
     10          1           0       -1.833944   -2.194916    0.135464
     11          6           0        2.284813   -1.008583   -0.026513
     12          1           0        2.195798   -1.279277    1.030396
     13          1           0        2.566252   -1.917353   -0.575496
     14          1           0       -2.705340    0.161886    0.603074
     15          8           0       -0.863088   -1.268537    1.683063
     16          1           0       -0.726364   -2.205507    1.941275
     17          8           0        3.317358   -0.017974   -0.115998
     18          1           0        3.663181   -0.021241   -1.022939
     19          8           0       -2.438301   -0.212287   -1.423964
     20          1           0       -3.214090   -0.790380   -1.351685
     21          8           0       -1.438195    2.189296    0.685483
     22          1           0       -0.736726    2.873421    0.651318
     23          8           0        1.315240    1.891704   -0.105155
     24          1           0        2.235772    1.601810    0.054444
     25          8           0        0.149788   -3.695317    1.241901
     26          1           0        0.972260   -4.022752    1.625945
     27          1           0        0.368711   -3.257726    0.397543
     28          8           0        0.344518    4.379498    0.489244
     29          1           0       -0.151223    4.722476   -0.265080
     30          1           0        0.822807    3.587937    0.175771
 ---------------------------------------------------------------------
[...]
 2124,-0.00037046,0.00005194,0.00040126,-0.00048301,-0.00033537,-0.0003
 2758,0.00010205,0.00012300,-0.00102988,0.00415788,0.00083649,0.0013009
 5,0.00146192,-0.00080982,-0.00033146,-0.00056558,-0.00020608,-0.000111
 15,-0.00000327,-0.00013962,0.00021130,0.00035046,0.00003782,-0.0001093
 1,-0.00001786,0.00023625,0.14814389,-0.09487664,0.04758047,-0.10690897
 ,0.09309373,0.00124861,0.00087136,-0.00062241,0.01204377,-0.00075104,0
 .00194281,0.00008223,-0.00005952,0.00060324,0.00015088,0.00133272,-0.0
 0091940,-0.00068374,0.00016260,0.00095467,-0.00155601,-0.00061957,0.00
 125086,0.00006501,-0.00009407,0.00032702,-0.00015477,-0.00021496,-0.00
 082492,0.00104462,-0.00009833,0.00007871,0.00013190,-0.00003978,-0.000
 09323,-0.00135181,-0.00187366,0.00133911,0.00009387,0.00061332,-0.0003
 7760,0.00016226,0.00023671,-0.00007049,0.00001295,-0.00006780,-0.00002
 207,-0.00007635,-0.00018896,-0.00055430,-0.00003738,0.00002884,0.00010
 158,-0.00043721,0.00467486,-0.00568551,0.00264369,-0.00424665,-0.00129
 028,0.00022333,0.00004522,-0.00006103,-0.00000955,0.00002677,0.0000592
 2,-0.00019931,-0.00029428,-0.00006448,0.00003033,0.00023462,0.00004057
 ,-0.10199560,0.04372885,-0.03735395,0.08775137,-0.04303042,0.04113012,
 0.00511823,0.00250812,-0.00181970,0.00010531,-0.00001963,0.00034529,0.
 00067560,-0.00034351,-0.00024369,-0.00044378,-0.00032494,-0.00008414,-
 0.00189440,-0.00123586,0.00530957,-0.00202077,-0.00038706,-0.00024938,
 0.00005920,0.00009110,-0.00002277,0.00039645,0.00006287,0.00002279,-0.
 00016539,-0.00004070,-0.00007319,0.00058338,0.00005882,0.00003845,-0.0
 0004239,0.00144397,-0.00090907,-0.00009313,0.00051649,0.00083618,0.000
 20453,-0.00030379,-0.00071761,0.00017062,-0.00016281,-0.00001949,-0.00
 203911,0.01062516,-0.00150714,-0.00213199,-0.00391122,-0.00253012,0.00
 015230,-0.00113703,0.00045908,-0.00012496,0.00002080,-0.00002946,-0.00
 031104,0.00045276,-0.00056808,0.00017865,-0.00007763,0.00013019,0.0002
 5619,0.00029911,-0.00000974,-0.00011120,-0.00013793,0.00003518,0.00057
 240,0.00020811,-0.00009107,-0.00031032,0.00033592,0.00003939,0.4893168
 2,0.00085363,-0.00691141,0.00692337,0.00011600,0.00076979,-0.00011704,
 -0.00031984,0.00074591,-0.00031125,-0.00021765,0.00090400,0.00005334,-
 0.00286684,-0.00104107,-0.00644944,0.00265550,0.00240776,-0.00033340,0
 .00000127,-0.00014558,0.00006689,-0.00043732,-0.00059959,0.00034408,0.
 00015149,0.00014250,0.00022384,0.00071915,0.00034123,0.00091770,0.0011
 1762,-0.00001637,-0.00199592,0.00038347,0.00038976,0.00087088,-0.00015
 070,0.00008413,0.00016147,-0.00000068,-0.00002672,0.00011349,0.0097642
 0,-0.01096263,0.00149984,-0.00554746,-0.00197237,0.00242792,-0.0013092
 5,-0.00032909,0.00052465,0.00028433,-0.00028176,-0.00005640,0.00083722
 ,-0.00062647,0.00130768,-0.00029807,0.00002392,-0.00026103,0.00018272,
 -0.00092425,-0.00016178,0.00010620,0.00045972,-0.00005871,-0.00062623,
 -0.00130530,0.00009410,0.00024589,0.00015625,0.00007684,-0.00834868,0.
 17726598,-0.00242218,0.00778645,-0.00004924,0.00039098,-0.00014000,-0.
 00094732,-0.00027597,0.00027918,0.00102497,0.00016015,-0.00020694,-0.0
 0014423,0.00307123,-0.00141076,-0.00729652,-0.00247441,-0.00059997,0.0
 0002182,0.00001682,-0.00001685,0.00004977,0.00035847,0.00029769,-0.000
 00672,0.00003215,0.00013251,0.00017997,0.00041523,0.00025416,0.0007532
 2,-0.00038541,-0.00063763,-0.00124225,0.00031269,0.00026609,0.00016268
 ,-0.00018718,0.00017165,0.00041779,-0.00028456,0.00035169,-0.00005802,
 0.00292455,-0.00245395,0.00677027,-0.00466822,0.00114149,-0.00764488,0
 .00048152,0.00049300,0.00030066,-0.00010140,-0.00011691,0.00004379,0.0
 0009180,-0.00012899,0.00047766,0.00008265,-0.00011620,-0.00004626,-0.0
 0013293,0.00021513,0.00023563,-0.00000176,-0.00006336,-0.00002457,0.00
 001956,0.00064444,0.00043326,-0.00001924,-0.00014674,-0.00017544,0.107
 88763,-0.24997640,0.44399517,0.00012595,-0.00094882,0.00053941,-0.0000
 5870,0.00004224,-0.00008130,-0.00002042,0.00006583,-0.00001339,0.00001
 649,0.00002675,0.00000740,-0.00032279,-0.00032996,-0.00018396,0.000527
 70,0.00033731,-0.00013044,0.00000343,-0.00000505,0.00000830,-0.0000840
 1,0.00000422,0.00001410,0.00001434,0.00001311,0.00001009,0.00007437,0.
 00003511,0.00013537,-0.00015061,-0.00018832,-0.00009667,0.00019172,-0.
 00007734,-0.00002077,0.00002126,0.00002040,0.00017315,0.00000221,-0.00
 000794,0.00001007,0.00075603,0.00010556,0.00055909,-0.00216394,-0.0000
 1501,-0.00106236,-0.00010183,0.00014536,0.00001566,0.00002429,-0.00005
 092,0.00001053,0.00002497,-0.00003248,0.00005451,-0.00000638,-0.000002
 80,-0.00000706,-0.00002964,-0.00001518,0.00001827,0.00001206,0.0000134
 2,-0.00000677,-0.00009505,-0.00006178,0.00002379,0.00006473,-0.0000583
 6,-0.00001286,-0.41725056,0.06434544,-0.19645638,0.41366057,-0.0009970
 0,-0.00094529,0.00001999,-0.00017896,-0.00022249,0.00007389,0.00013111
 ,0.00000581,0.00009415,0.00019615,-0.00008950,-0.00000832,0.00021853,0
 .00048160,0.00007311,0.00069726,-0.00020232,0.00017819,-0.00002505,0.0
 0002194,-0.00001933,-0.00019710,0.00007041,-0.00012852,0.00003899,-0.0
 0005010,-0.00006833,-0.00010906,-0.00009825,-0.00009242,-0.00049555,-0
 .00055172,0.00150033,-0.00021104,-0.00066010,-0.00069695,-0.00004358,0
 .00005421,0.00014534,-0.00003149,0.00001236,-0.00001324,-0.00052066,-0
 .00181927,-0.00086992,0.00214703,0.00108509,0.00198490,0.00043306,0.00
 061038,-0.00050436,-0.00003668,0.00013187,0.00002033,-0.00014580,0.000
 03608,-0.00016700,0.00003989,-0.00001664,0.00003542,-0.00015342,0.0002
 0121,0.00004459,0.00000400,-0.00010645,0.00001568,-0.00004070,0.000260
 73,-0.00007166,0.00006490,-0.00020548,-0.00000887,0.03141457,-0.019621
 55,0.03827986,-0.05780352,0.02458450,0.00065285,0.00082896,-0.00015709
 ,0.00015388,0.00006483,0.00014966,-0.00004761,0.00007404,-0.00010516,-
 0.00006560,0.00007740,-0.00000384,-0.00018220,0.00007749,-0.00041485,-
 0.00030466,0.00015909,-0.00026472,-0.00000182,-0.00000605,-0.00000608,
 0.00004152,0.00000212,0.00002242,0.00000901,-0.00000167,0.00000562,-0.
 00002021,0.00007065,-0.00005422,0.00002569,0.00062469,0.00037343,-0.00
 010703,0.00006862,0.00030331,0.00015453,-0.00014917,-0.00052143,0.0000
 1582,-0.00001984,0.00001681,0.00054975,-0.00249914,-0.00040602,0.00040
 137,0.00295799,0.00225897,-0.00019314,-0.00062076,0.00002318,-0.000003
 31,0.00005143,-0.00003039,0.00006852,-0.00005840,0.00005366,-0.0000397
 5,0.00002463,-0.00000802,0.00006224,-0.00014390,-0.00007987,0.00001221
 ,0.00005373,0.00001036,0.00003028,-0.00013319,-0.00005137,-0.00006491,
 0.00013162,0.00007264,-0.14505142,0.04651992,-0.11613103,0.18614930,-0
 .05018222,0.12999713,-0.00587378,-0.00290908,0.00061960,-0.00051499,0.
 00004967,0.00008324,-0.00081184,-0.00007112,-0.00008900,0.00035054,0.0
 0027016,0.00022959,-0.00145181,0.00481809,0.00011096,0.00337114,0.0001
 8181,0.00055290,-0.00005463,-0.00007009,-0.00000360,-0.00054389,-0.000
 31122,0.00002156,0.00007884,0.00000236,-0.00003176,-0.00093629,-0.0002
 8389,-0.00031845,0.00010771,-0.00237424,-0.00004599,0.00005603,-0.0003
 5072,-0.00060553,-0.00057755,0.00037387,0.00103334,0.00000420,0.000003
 66,-0.00000580,-0.00031378,-0.00014569,-0.00105162,-0.00016942,-0.0001
 6804,0.00417342,-0.00016084,0.00136916,-0.00028417,0.00012597,-0.00008
 100,0.00005588,0.00019946,-0.00027667,0.00014211,-0.00018243,0.0001243
 8,-0.00007213,-0.00017265,-0.00027294,-0.00008067,0.00007513,0.0001061
 6,-0.00003104,-0.00047447,-0.00045497,-0.00012663,0.00031887,-0.000290
 58,-0.00000316,-0.07089254,-0.06151688,0.09114259,0.00476802,0.0255781
 0,-0.04223012,0.07370946,-0.00271847,0.00401919,-0.00113599,0.00043809
 ,-0.00068009,-0.00071013,-0.00032337,-0.00024527,0.00137737,0.00036955
 ,-0.00075718,-0.00014234,0.00940934,-0.00113528,-0.00402224,-0.0047853
 2,-0.00380013,0.00071527,-0.00000233,0.00006768,-0.00001135,0.00071231
 ,0.00076691,-0.00034492,-0.00004108,0.00003331,0.00001946,-0.00076926,
 -0.00009619,-0.00012689,-0.00171079,-0.00029667,0.00049860,-0.00024776
 ,-0.00012210,-0.00027098,-0.00006439,-0.00009025,-0.00006974,-0.000374
 56,0.00044208,-0.00015254,-0.00123525,-0.00164605,0.00309187,0.0009148
 8,0.00331780,-0.00449744,0.00149208,0.00027704,-0.00009003,-0.00029896
 ,0.00017410,0.00009026,-0.00043661,0.00011752,-0.00046151,0.00017226,-
 0.00003075,0.00015889,-0.00026134,0.00070718,0.00025729,-0.00004980,-0
 .00032970,0.00003066,0.00043699,0.00146826,0.00031234,-0.00022084,-0.0
 0018765,-0.00015956,-0.03167995,-0.13899881,0.20576923,-0.00554988,-0.
 00291979,0.00200806,0.03673060,0.14005683,0.00034001,-0.00185033,-0.00
 498564,-0.00065240,0.00003619,0.00087159,0.00077804,-0.00004678,-0.000
 82303,-0.00018795,0.00027606,0.00007802,-0.00221689,-0.00185717,0.0076
 2337,0.00315488,0.00014334,-0.00044597,-0.00001168,0.00002515,-0.00003
 505,-0.00032546,-0.00012678,-0.00004840,-0.00001083,-0.00015804,-0.000
 19944,-0.00000756,0.00006316,-0.00020480,0.00021727,0.00026048,0.00202
 669,-0.00013359,-0.00047187,-0.00081729,0.00042116,-0.00008736,0.00002
 200,0.00029756,-0.00036821,0.00007078,-0.00238981,0.00285296,-0.003043
 71,0.00511453,-0.00396945,-0.00371235,-0.00045757,-0.00008558,-0.00064
 103,0.00014252,0.00017955,-0.00004132,-0.00003721,0.00003174,-0.000287
 06,-0.00006900,0.00006824,0.00004573,0.00009498,-0.00014398,-0.0001665
 4,0.00000108,0.00005490,0.00001611,-0.00014604,-0.00071724,-0.00040387
 ,0.00012076,0.00001978,0.00012912,0.03883718,0.19758831,-0.32110319,0.
 01034114,0.01036238,-0.01505425,-0.05319440,-0.20213409,0.34113186,0.0
 0111732,0.00071429,0.00004259,-0.00455432,-0.00203271,0.00092478,0.000
 48550,-0.00060635,-0.00023446,-0.00440301,0.00488999,0.00448321,-0.001
 45995,0.00040303,0.00001833,0.00102569,0.00003098,-0.00027858,0.000393
 17,0.00012194,-0.00042480,0.00002300,-0.00003534,-0.00009851,0.0002954
 1,0.00047537,-0.00017188,0.00018057,-0.00020640,0.00000910,-0.00062922
 ,-0.00084176,-0.00006319,0.00001102,0.00001901,-0.00003194,0.00016894,
 0.00006668,0.00005481,0.00032021,0.00023302,-0.00018660,0.00052801,-0.
 00026791,0.00009067,-0.00015692,0.00013292,0.00001544,0.00008062,0.001
 09534,-0.00001706,0.00004379,-0.00021112,-0.00006487,0.00007886,-0.000
 57943,-0.00035786,-0.00010534,0.00008356,0.00006003,-0.00181520,-0.015
 66294,0.00218882,-0.00425356,0.00592159,-0.00694863,0.00232685,0.01089
 949,-0.00080712,0.00102368,0.00006159,0.00021191,0.00014853,-0.0001053
 6,-0.00002517,-0.00002034,-0.00001354,-0.00000635,-0.00009216,0.000025
 73,0.00001697,0.24490010,-0.00007557,-0.00131773,-0.00010760,0.0030410
 5,0.00198772,-0.00172337,0.00075833,-0.00005775,0.00043789,-0.00234735
 ,0.00374968,0.00345749,-0.00000733,0.00061928,-0.00065482,-0.00036122,
 0.00038461,0.00089430,0.00052972,0.00007101,-0.00015876,0.00001749,0.0
 0005753,0.00000685,-0.00022151,-0.00035339,0.00016450,-0.00003488,-0.0
 0030183,0.00001850,-0.00032463,0.00039988,-0.00028861,-0.00000356,0.00
 002418,0.00005136,0.00016683,-0.00026278,-0.00003064,0.00008714,0.0000
 1586,-0.00017892,-0.00012002,-0.00067287,0.00060361,-0.00009221,0.0003
 9054,-0.00018562,0.00134612,-0.00119355,-0.00001860,-0.00048612,0.0000
 5802,0.00011927,-0.00066852,-0.00042911,-0.00083406,0.00005391,-0.0001
 2762,0.00008645,-0.00904641,-0.01233883,0.00265145,0.00539603,-0.00240
 443,-0.00362783,0.00847454,-0.01149377,0.00087920,-0.00253937,-0.00240
 622,-0.00077108,0.00011802,-0.00065382,0.00014161,-0.00000816,0.000175
 23,-0.00008218,-0.00011759,0.00052099,-0.00012291,-0.25620823,0.338651
 64,-0.00016277,-0.00005499,0.00008644,0.00037940,0.00005096,-0.0000214
 9,-0.00022486,0.00043650,0.00030472,0.00133259,-0.00041246,-0.00270787
 ,0.00014414,-0.00000010,-0.00014994,-0.00007119,0.00008979,-0.00003893
 ,-0.00007711,0.00043778,0.00108384,-0.00004326,0.00004538,0.00009935,0
 .00002040,-0.00035297,0.00015020,-0.00000753,0.00004488,0.00001790,0.0
 0006998,0.00012411,0.00000712,0.00000645,-0.00003332,0.00002476,-0.000
 03030,-0.00000091,-0.00000267,-0.00016123,-0.00016972,0.00003614,-0.00
 001773,0.00002666,0.00015371,0.00001727,-0.00002105,-0.00002144,0.0000
 4425,-0.00020624,0.00003223,-0.00002710,0.00007866,-0.00001344,0.00010
 437,0.00005042,0.00021150,0.00000819,-0.00000310,-0.00000024,0.0034329
 3,0.00538388,0.00398678,-0.00344664,-0.00210771,-0.00711375,0.00055535
 ,0.00038327,0.00413023,-0.00020119,-0.00082535,-0.00010316,-0.00002054
 ,0.00001406,0.00004494,0.00000878,-0.00000617,-0.00001729,0.00000509,0
 .00001150,-0.00002853,0.03758977,-0.09465531,0.51690037,-0.00021657,-0
 .00005778,0.00002083,0.00046850,0.00031448,0.00001367,0.00008413,-0.00
 010149,0.00000474,0.00003181,-0.00048264,0.00033002,0.00020475,-0.0000
 7565,-0.00001891,0.00002886,0.00008586,-0.00003936,0.00008859,-0.00021
 468,-0.00022409,0.00000754,-0.00000335,0.00002477,-0.00011813,-0.00006
 674,0.00000859,-0.00002791,0.00000365,-0.00000390,0.00013498,0.0001278
 4,-0.00000232,-0.00000731,-0.00000911,0.00001045,-0.00002525,-0.000013
 82,-0.00000980,0.00000113,-0.00000177,0.00000113,-0.00009794,0.0000288
 0,-0.00001846,0.00002696,-0.00001283,-0.00000961,-0.00010220,-0.000174
 63,0.00002032,0.00000282,0.00008856,0.00000390,-0.00013704,0.00011715,
 -0.00006934,0.00003177,-0.00004636,-0.00001618,-0.00194205,-0.00093665
 ,-0.00112591,0.00343239,0.00102557,0.00388435,-0.00051505,0.00006493,0
 .00099060,0.00003481,0.00011742,-0.00007747,-0.00002782,0.00000420,0.0
 0000299,0.00000521,0.00000748,-0.00000103,0.00001906,0.00000249,-0.000
 00007,-0.03664325,0.03741789,-0.04307354,0.03949941,0.00001805,0.00023
 878,-0.00004095,-0.00012200,-0.00041168,0.00008898,-0.00020935,-0.0001
 5201,-0.00031148,0.00013455,-0.00063344,0.00088054,0.00009300,-0.00016
 688,0.00017335,-0.00006803,-0.00021372,-0.00005965,-0.00012003,-0.0002
 8162,-0.00060946,0.00002058,-0.00002457,-0.00004557,-0.00004894,0.0001
 3163,-0.00008153,-0.00000696,0.00007876,-0.00000734,0.00011236,-0.0000
 3906,0.00004071,-0.00000587,0.00000004,-0.00001722,-0.00004236,0.00005
 356,0.00001033,0.00006132,0.00006740,0.00000607,0.00000432,0.00017365,
 -0.00017854,0.00002482,-0.00010666,0.00004424,-0.00023960,0.00018253,-
 0.00000012,0.00012199,-0.00004363,-0.00001284,0.00011908,0.00010797,0.
 00012660,-0.00001404,0.00003402,-0.00004206,-0.00081479,0.00005560,-0.
 00100001,0.00082346,-0.00084153,0.00333067,-0.00021169,-0.00053111,-0.
 00119160,0.00036623,0.00011014,-0.00018709,-0.00003355,0.00017331,-0.0
 0003832,0.00000191,-0.00004718,0.00002272,0.00003275,-0.00013533,0.000
 03188,0.04012867,-0.05677631,0.09034760,-0.04457183,0.06715759,0.00002
 611,-0.00006484,-0.00003994,0.00023930,0.00010303,-0.00013894,0.000042
 16,0.00001320,0.00007505,-0.00015926,0.00031979,0.00046419,-0.00002243
 ,0.00003323,-0.00000376,-0.00003825,-0.00000255,0.00011644,0.00001738,
 0.00002801,-0.00002733,0.00001026,0.00000156,-0.00002167,-0.00003064,-
 0.00002449,0.00000259,0.00000016,-0.00001713,0.00000084,-0.00000537,0.
 00001258,-0.00002251,-0.00000322,0.00000538,-0.00000375,0.00000950,-0.
 00001443,0.00000089,0.00000186,0.00001023,-0.00001699,-0.00000224,-0.0
 0002692,0.00000445,-0.00000684,0.00001456,-0.00000404,0.00005307,-0.00
 006182,-0.00001058,-0.00001081,-0.00000609,0.00001627,-0.00002311,-0.0
 0002313,-0.00008187,-0.00000112,0.00000216,0.00001005,-0.00032413,-0.0
 0115704,0.00034490,0.00059559,0.00118820,-0.00188483,0.00013279,-0.000
 98746,-0.00017512,-0.00004321,0.00000736,0.00005761,0.00000954,-0.0000
 2204,-0.00000236,-0.00000310,0.00000571,-0.00000016,-0.00000572,0.0000
 1583,0.00000080,-0.08116564,0.13727258,-0.45901475,0.07504155,-0.13018
 615,0.46144134,-0.00076422,-0.00089123,-0.00012596,0.00538744,-0.00028
 157,-0.00202127,-0.00022823,0.00028980,-0.00015771,0.00161465,-0.00387
 015,-0.00154809,0.00111079,-0.00017065,-0.00014879,-0.00122493,-0.0002
 6927,0.00063975,-0.00026505,0.00011125,-0.00019214,-0.00001170,0.00006
 383,0.00005831,-0.00034598,-0.00054017,0.00022175,-0.00014416,0.000109
 57,-0.00000004,0.00032322,0.00057830,-0.00001069,-0.00000816,-0.000008
 45,0.00002257,-0.00008119,-0.00008043,-0.00003632,-0.00013668,-0.00006
 015,0.00006825,-0.00038221,0.00007930,0.00004391,0.00009039,-0.0000374
 3,-0.00004119,-0.00009140,-0.00063023,0.00002130,-0.00008082,0.0001745
 0,0.00007185,-0.00010124,0.00025588,0.00013456,0.00007077,-0.00004533,
 -0.00003494,0.00218220,0.00422917,0.00047303,-0.01045569,-0.00294203,0
 .00297907,-0.01104006,-0.00315568,0.00058539,-0.00086291,0.00230318,0.
 00065913,-0.00007881,-0.00002338,0.00004380,0.00001091,0.00003206,-0.0
 0000781,0.00003864,0.00006564,-0.00003761,-0.19901800,0.21525565,0.003
 84604,-0.00424221,0.00444595,0.00566580,0.21873463,0.00105347,0.002110
 02,0.00016018,-0.00752978,-0.00602980,0.00257475,-0.00013930,-0.000651
 40,-0.00054133,-0.00259071,0.00183330,0.00034837,-0.00133717,-0.000296
 12,0.00065686,0.00126298,-0.00041849,-0.00119153,-0.00006319,-0.000088
 77,-0.00014632,-0.00001860,-0.00008970,-0.00007970,0.00061888,0.000907
 17,-0.00038740,0.00019767,0.00009113,-0.00000956,-0.00002978,-0.001087
 72,0.00026620,0.00000596,-0.00001703,-0.00007588,-0.00006250,0.0003134
 3,0.00006385,0.00026700,0.00017281,-0.00003014,0.00057237,0.00045826,-
 0.00054416,-0.00002404,-0.00027194,0.00019956,-0.00155001,0.00207115,0
 .00001881,0.00060173,-0.00014404,-0.00017667,0.00065434,-0.00003101,0.
 00042382,-0.00012373,0.00015311,-0.00002549,0.00094687,-0.00475478,0.0
 0013292,-0.00173760,0.00707696,-0.00125681,0.00088642,-0.00181531,-0.0
 0153126,0.00425434,0.00258318,0.00067290,-0.00001154,0.00055251,-0.000
 17114,-0.00000109,-0.00017527,0.00007856,0.00005398,-0.00049763,0.0001
 4566,0.21146789,-0.25631616,0.00132394,0.00736303,-0.00816025,-0.00643
 930,-0.21498793,0.26252238,0.00003562,-0.00000187,-0.00003777,-0.00063
 890,0.00109110,-0.00029827,-0.00003865,-0.00007200,-0.00012590,-0.0002
 4610,0.00033746,0.00152953,0.00004419,-0.00002944,0.00016584,0.0000122
 1,-0.00016510,-0.00006238,-0.00009560,-0.00010858,-0.00059371,0.000012
 38,-0.00005126,-0.00007755,0.00016569,0.00065005,-0.00017745,-0.000012
 35,0.00000840,-0.00001877,-0.00001317,-0.00006553,-0.00000064,-0.00000
 361,0.00003628,-0.00002114,0.00000824,0.00000371,-0.00000300,0.0000715
 7,0.00007836,-0.00000738,-0.00002775,0.00002771,-0.00016720,0.00000850
 ,-0.00000650,0.00002476,-0.00011315,0.00019090,-0.00001762,0.00003003,
 -0.00008579,0.00001744,-0.00001579,0.00001220,-0.00007564,0.00000101,0
 .00000919,-0.00000314,-0.00088529,-0.00006878,-0.00151322,0.00265770,-
 0.00101795,0.00215440,0.00062000,-0.00353757,-0.00471987,0.00008515,0.
 00167163,0.00013098,-0.00000385,0.00001503,-0.00003956,-0.00000392,0.0
 0000344,0.00001862,0.00000952,-0.00002688,0.00002540,0.04517622,-0.043
 34475,-0.05803671,-0.03566793,0.03890625,-0.00108685,-0.01117196,0.005
 54030,0.06301681\\0.00035353,-0.00027687,0.00065630,-0.00004338,-0.000
 01882,0.00122377,-0.00034251,0.00023438,0.00156254,0.00034460,-0.00025
 528,-0.00158175,0.00001418,0.00002694,-0.00125241,-0.00035176,0.000297
 15,-0.00063565,-0.00000047,-0.00000236,-0.00000611,-0.00000831,-0.0000
 1047,0.00000421,0.00000938,0.00000615,-0.00000622,-0.00000165,-0.00000
 310,0.00001123,0.00002912,0.00001800,0.00000794,-0.00000440,-0.0000001
 8,0.00000412,-0.00000220,-0.00000378,0.00000392,0.00000054,0.00000174,
 0.00000899,-0.00000251,0.00000895,0.00000158,0.00001253,-0.00000384,0.
 00002205,-0.00002176,-0.00002329,-0.00000417,0.00000121,-0.00000382,-0
 .00000114,0.00000353,-0.00000312,0.00002825,-0.00000099,-0.00000730,0.
 00000141,-0.00000828,0.00001076,-0.00000455,0.00000681,-0.00000545,-0.
 00000759,0.00000283,0.00000350,-0.00002374,0.00000250,0.00001672,-0.00
 000044,-0.00002463,0.00002928,0.00000424,-0.00000065,0.00001739,0.0000
 2192,0.00002542,-0.00005146,0.00001314,0.00001292,0.00000173,-0.000012
 88,-0.00000143,-0.00001163,-0.00002254,-0.00000418,0.00000808,-0.00001
 643\\\@


 IN-LAWS ARE LIKE SEEDS. YOU DON'T NEED THEM
 BUT THEY COME WITH THE TOMATO.
 Job cpu time:       0 days  1 hours 34 minutes 14.9 seconds.
 File lengths (MBytes):  RWF=    334 Int=      0 D2E=      0 Chk=      7 Scr=      2
 Normal termination of Gaussian 09 at Thu Jan 19 22:09:21 2017.
