 Entering Gaussian System, Link 0=g09
 Initial command:
 /global/software/gaussian/g09.e01/l1.exe "/scratch/10467669.yak.local/Gau-11392.inp" -scrdir="/scratch/10467669.yak.local/"
 Entering Link 1 = /global/software/gaussian/g09.e01/l1.exe PID=     11393.
  
 Copyright (c) 1988,1990,1992,1993,1995,1998,2003,2009,2015,
            Gaussian, Inc.  All Rights Reserved.
  
 This is part of the Gaussian(R) 09 program.  It is based on
 the Gaussian(R) 03 system (copyright 2003, Gaussian, Inc.),
 the Gaussian(R) 98 system (copyright 1998, Gaussian, Inc.),
 the Gaussian(R) 94 system (copyright 1995, Gaussian, Inc.),
 the Gaussian 92(TM) system (copyright 1992, Gaussian, Inc.),
 the Gaussian 90(TM) system (copyright 1990, Gaussian, Inc.),
 the Gaussian 88(TM) system (copyright 1988, Gaussian, Inc.),
 the Gaussian 86(TM) system (copyright 1986, Carnegie Mellon
 University), and the Gaussian 82(TM) system (copyright 1983,
 Carnegie Mellon University). Gaussian is a federally registered
 trademark of Gaussian, Inc.
  
 This software contains proprietary and confidential information,
 including trade secrets, belonging to Gaussian, Inc.
  
 This software is provided under written license and may be
 used, copied, transmitted, or stored only in accord with that
 written license.
  
 The following legend is applicable only to US Government
 contracts under FAR:
  
                    RESTRICTED RIGHTS LEGEND
  
 Use, reproduction and disclosure by the US Government is
 subject to restrictions as set forth in subparagraphs (a)
 and (c) of the Commercial Computer Software - Restricted
 Rights clause in FAR 52.227-19.
  
 Gaussian, Inc.
 340 Quinnipiac St., Bldg. 40, Wallingford CT 06492
  
  
 ---------------------------------------------------------------
 Warning -- This program may not be used in any manner that
 competes with the business of Gaussian, Inc. or will provide
 assistance to any competitor of Gaussian, Inc.  The licensee
 of this program is prohibited from giving any competitor of
 Gaussian, Inc. access to this program.  By using this program,
 the user acknowledges that Gaussian, Inc. is engaged in the
 business of creating and licensing software in the field of
 computational chemistry and represents and warrants to the
 licensee that it is not a competitor of Gaussian, Inc. and that
 it will not use this program in any manner prohibited above.
 ---------------------------------------------------------------
  

 Cite this work as:
 Gaussian 09, Revision E.01,
 M. J. Frisch, G. W. Trucks, H. B. Schlegel, G. E. Scuseria, 
 M. A. Robb, J. R. Cheeseman, G. Scalmani, V. Barone, B. Mennucci, 
 G. A. Petersson, H. Nakatsuji, M. Caricato, X. Li, H. P. Hratchian, 
 A. F. Izmaylov, J. Bloino, G. Zheng, J. L. Sonnenberg, M. Hada, 
 M. Ehara, K. Toyota, R. Fukuda, J. Hasegawa, M. Ishida, T. Nakajima, 
 Y. Honda, O. Kitao, H. Nakai, T. Vreven, J. A. Montgomery, Jr., 
 J. E. Peralta, F. Ogliaro, M. Bearpark, J. J. Heyd, E. Brothers, 
 K. N. Kudin, V. N. Staroverov, T. Keith, R. Kobayashi, J. Normand, 
 K. Raghavachari, A. Rendell, J. C. Burant, S. S. Iyengar, J. Tomasi, 
 M. Cossi, N. Rega, J. M. Millam, M. Klene, J. E. Knox, J. B. Cross, 
 V. Bakken, C. Adamo, J. Jaramillo, R. Gomperts, R. E. Stratmann, 
 O. Yazyev, A. J. Austin, R. Cammi, C. Pomelli, J. W. Ochterski, 
 R. L. Martin, K. Morokuma, V. G. Zakrzewski, G. A. Voth, 
 P. Salvador, J. J. Dannenberg, S. Dapprich, A. D. Daniels, 
 O. Farkas, J. B. Foresman, J. V. Ortiz, J. Cioslowski, 
 and D. J. Fox, Gaussian, Inc., Wallingford CT, 2013.
 
 ******************************************
 Gaussian 09:  ES64L-G09RevE.01 30-Nov-2015
                17-Jan-2017 
 ******************************************
 %NPROCS=4
 Will use up to    4 processors via shared memory.
 ------------------------------------------------------
 # opt=(modredundant,MaxCycle=1000) freq B3LYP/6-31G(d)
 ------------------------------------------------------
 1/6=1000,14=-1,18=120,19=15,26=3,38=1/1,3;
 2/9=110,12=2,17=6,18=5,40=1/2;
 3/5=1,6=6,7=1,11=2,16=1,25=1,30=1,71=1,74=-5/1,2,3;
 4//1;
 5/5=2,38=5/2;
 6/7=2,8=2,9=2,10=2,28=1/1;
 7//1,2,3,16;
 1/6=1000,14=-1,18=20,19=15,26=3/3(2);
 2/9=110/2;
 99//99;
 2/9=110/2;
 3/5=1,6=6,7=1,11=2,16=1,25=1,30=1,71=1,74=-5/1,2,3;
 4/5=5,16=3,69=1/1;
 5/5=2,38=5/2;
 7//1,2,3,16;
 1/6=1000,14=-1,18=20,19=15,26=3/3(-5);
 2/9=110/2;
 6/7=2,8=2,9=2,10=2,19=2,28=1/1;
 99/9=1/99;
 ------------------------
 boat2_Beta_B3LYP_6-31G_d
 ------------------------
 Symbolic Z-matrix:
 Charge =  0 Multiplicity = 1
 H                     1.15121  -0.21502  -1.5699 
 C                     1.05057  -0.37783  -0.49003 
 C                    -0.59109   0.88854   1.01875 
 C                    -1.40376  -0.88656  -0.64938 
 C                    -1.72343   0.4257    0.08436 
 O                    -0.06076  -1.32133  -0.28257 
 C                     0.73081   0.93441   0.24377 
 H                    -0.82558   1.90264   1.36588 
 H                    -1.45537  -0.77733  -1.73825 
 H                    -2.64135   0.29529   0.66933 
 H                     1.54155   1.22001   0.92421 
 C                     2.32001  -1.0346    0.04793 
 H                     2.47071  -2.01091  -0.42538 
 H                     2.24929  -1.20136   1.12857 
 O                    -2.29732  -1.91028  -0.24396 
 H                    -1.90962  -2.26872   0.57096 
 O                     3.45103  -0.21357  -0.22687 
 H                     4.22586  -0.67965   0.13589 
 O                    -2.0257    1.45876  -0.87651 
 H                    -1.71693   2.30828  -0.49146 
 O                    -0.44615   0.07129   2.18196 
 H                    -1.33814  -0.16444   2.49405 
 O                     0.63286   1.98644  -0.74347 
 H                     1.54747   2.14601  -1.05138 
 H                    -0.90908  -3.38193   2.06997 
 O                    -0.87019  -2.41835   1.97085 
 H                    -0.26596  -2.2604    1.21176 
 O                    -0.71426   3.61273   0.23865 
 H                    -0.00845   3.06716   0.59332 
 H                    -1.27728   3.91418   0.95539 
 
 Add virtual bond connecting atoms H29        and H8         Dist= 3.06D+00.
 Add virtual bond connecting atoms O26        and H16        Dist= 3.31D+00.
 Add virtual bond connecting atoms H27        and O6         Dist= 3.36D+00.
 Add virtual bond connecting atoms H27        and H16        Dist= 3.33D+00.
 The following ModRedundant input section has been read:
 D       6       4       5       3 F                                           
 D       6       2       7       3 F                                           
 

 GradGradGradGradGradGradGradGradGradGradGradGradGradGradGradGradGradGrad
 Berny optimization.
 Initialization pass.
                           ----------------------------
                           !    Initial Parameters    !
                           ! (Angstroms and Degrees)  !
 --------------------------                            --------------------------
 ! Name  Definition              Value          Derivative Info.                !
 --------------------------------------------------------------------------------
 ! R1    R(1,2)                  1.0967         estimate D2E/DX2                !
 ! R2    R(2,6)                  1.4725         estimate D2E/DX2                !
 ! R3    R(2,7)                  1.5371         estimate D2E/DX2                !
 ! R4    R(2,12)                 1.5272         estimate D2E/DX2                !
 ! R5    R(3,5)                  1.5393         estimate D2E/DX2                !
 ! R6    R(3,7)                  1.533          estimate D2E/DX2                !
 ! R7    R(3,8)                  1.0972         estimate D2E/DX2                !
 ! R8    R(3,21)                 1.429          estimate D2E/DX2                !
 ! R9    R(4,5)                  1.5371         estimate D2E/DX2                !
 ! R10   R(4,6)                  1.4585         estimate D2E/DX2                !
 ! R11   R(4,9)                  1.0956         estimate D2E/DX2                !
 ! R12   R(4,15)                 1.418          estimate D2E/DX2                !
 ! R13   R(5,10)                 1.0963         estimate D2E/DX2                !
 ! R14   R(5,19)                 1.4429         estimate D2E/DX2                !
 ! R15   R(6,27)                 1.7768         estimate D2E/DX2                !
 ! R16   R(7,11)                 1.0963         estimate D2E/DX2                !
 ! R17   R(7,23)                 1.446          estimate D2E/DX2                !
 ! R18   R(8,29)                 1.6189         estimate D2E/DX2                !
 ! R19   R(12,13)                1.0954         estimate D2E/DX2                !
 ! R20   R(12,14)                1.0957         estimate D2E/DX2                !
 ! R21   R(12,17)                1.4244         estimate D2E/DX2                !
 ! R22   R(15,16)                0.971          estimate D2E/DX2                !
 ! R23   R(16,26)                1.75           estimate D2E/DX2                !
 ! R24   R(16,27)                1.7642         estimate D2E/DX2                !
 ! R25   R(17,18)                0.9743         estimate D2E/DX2                !
 ! R26   R(19,20)                0.9825         estimate D2E/DX2                !
 ! R27   R(21,22)                0.974          estimate D2E/DX2                !
 ! R28   R(23,24)                0.9782         estimate D2E/DX2                !
 ! R29   R(25,26)                0.9694         estimate D2E/DX2                !
 ! R30   R(26,27)                0.983          estimate D2E/DX2                !
 ! R31   R(28,29)                0.96           estimate D2E/DX2                !
 ! R32   R(28,30)                0.96           estimate D2E/DX2                !
 ! A1    A(1,2,6)              107.6443         estimate D2E/DX2                !
 ! A2    A(1,2,7)              111.2485         estimate D2E/DX2                !
 ! A3    A(1,2,12)             109.5368         estimate D2E/DX2                !
 ! A4    A(6,2,7)              108.8295         estimate D2E/DX2                !
 ! A5    A(6,2,12)             107.5881         estimate D2E/DX2                !
 ! A6    A(7,2,12)             111.8327         estimate D2E/DX2                !
 ! A7    A(5,3,7)              109.6607         estimate D2E/DX2                !
 ! A8    A(5,3,8)              108.2242         estimate D2E/DX2                !
 ! A9    A(5,3,21)             113.3766         estimate D2E/DX2                !
 ! A10   A(7,3,8)              108.4553         estimate D2E/DX2                !
 ! A11   A(7,3,21)             109.9476         estimate D2E/DX2                !
 ! A12   A(8,3,21)             107.0212         estimate D2E/DX2                !
 ! A13   A(5,4,6)              109.0229         estimate D2E/DX2                !
 ! A14   A(5,4,9)              112.3047         estimate D2E/DX2                !
 ! A15   A(5,4,15)             110.4141         estimate D2E/DX2                !
 ! A16   A(6,4,9)              108.8487         estimate D2E/DX2                !
 ! A17   A(6,4,15)             107.0456         estimate D2E/DX2                !
 ! A18   A(9,4,15)             109.0534         estimate D2E/DX2                !
 ! A19   A(3,5,4)              113.1709         estimate D2E/DX2                !
 ! A20   A(3,5,10)             109.1359         estimate D2E/DX2                !
 ! A21   A(3,5,19)             110.0641         estimate D2E/DX2                !
 ! A22   A(4,5,10)             109.1052         estimate D2E/DX2                !
 ! A23   A(4,5,19)             109.69           estimate D2E/DX2                !
 ! A24   A(10,5,19)            105.3736         estimate D2E/DX2                !
 ! A25   A(2,6,4)              117.9378         estimate D2E/DX2                !
 ! A26   A(2,6,27)             122.9768         estimate D2E/DX2                !
 ! A27   A(4,6,27)             105.232          estimate D2E/DX2                !
 ! A28   A(2,7,3)              113.2761         estimate D2E/DX2                !
 ! A29   A(2,7,11)             111.3992         estimate D2E/DX2                !
 ! A30   A(2,7,23)             108.015          estimate D2E/DX2                !
 ! A31   A(3,7,11)             109.373          estimate D2E/DX2                !
 ! A32   A(3,7,23)             107.9686         estimate D2E/DX2                !
 ! A33   A(11,7,23)            106.5181         estimate D2E/DX2                !
 ! A34   A(3,8,29)             113.9537         estimate D2E/DX2                !
 ! A35   A(2,12,13)            110.2089         estimate D2E/DX2                !
 ! A36   A(2,12,14)            111.0515         estimate D2E/DX2                !
 ! A37   A(2,12,17)            110.1331         estimate D2E/DX2                !
 ! A38   A(13,12,14)           107.4201         estimate D2E/DX2                !
 ! A39   A(13,12,17)           108.7328         estimate D2E/DX2                !
 ! A40   A(14,12,17)           109.2233         estimate D2E/DX2                !
 ! A41   A(4,15,16)            104.7635         estimate D2E/DX2                !
 ! A42   A(15,16,26)           160.0605         estimate D2E/DX2                !
 ! A43   A(15,16,27)           132.4614         estimate D2E/DX2                !
 ! A44   A(12,17,18)           106.494          estimate D2E/DX2                !
 ! A45   A(5,19,20)            106.9926         estimate D2E/DX2                !
 ! A46   A(3,21,22)            107.8408         estimate D2E/DX2                !
 ! A47   A(7,23,24)            105.6795         estimate D2E/DX2                !
 ! A48   A(16,26,25)            98.2186         estimate D2E/DX2                !
 ! A49   A(25,26,27)           105.2677         estimate D2E/DX2                !
 ! A50   A(6,27,16)             78.7323         estimate D2E/DX2                !
 ! A51   A(6,27,26)            143.6474         estimate D2E/DX2                !
 ! A52   A(29,28,30)           109.5            estimate D2E/DX2                !
 ! A53   A(8,29,28)            102.3577         estimate D2E/DX2                !
 ! D1    D(1,2,6,4)            -65.4794         estimate D2E/DX2                !
 ! D2    D(1,2,6,27)           160.207          estimate D2E/DX2                !
 ! D3    D(7,2,6,4)             55.2025         estimate D2E/DX2                !
 ! D4    D(7,2,6,27)           -79.1111         estimate D2E/DX2                !
 ! D5    D(12,2,6,4)           176.5542         estimate D2E/DX2                !
 ! D6    D(12,2,6,27)           42.2406         estimate D2E/DX2                !
 ! D7    D(1,2,7,3)            120.7795         estimate D2E/DX2                !
 ! D8    D(1,2,7,11)          -115.4119         estimate D2E/DX2                !
 ! D9    D(1,2,7,23)             1.2392         estimate D2E/DX2                !
 ! D10   D(6,2,7,3)              2.3418         Frozen                          !
 ! D11   D(6,2,7,11)           126.1504         estimate D2E/DX2                !
 ! D12   D(6,2,7,23)          -117.1985         estimate D2E/DX2                !
 ! D13   D(12,2,7,3)          -116.3791         estimate D2E/DX2                !
 ! D14   D(12,2,7,11)            7.4295         estimate D2E/DX2                !
 ! D15   D(12,2,7,23)          124.0805         estimate D2E/DX2                !
 ! D16   D(1,2,12,13)          -61.553          estimate D2E/DX2                !
 ! D17   D(1,2,12,14)          179.5321         estimate D2E/DX2                !
 ! D18   D(1,2,12,17)           58.4101         estimate D2E/DX2                !
 ! D19   D(6,2,12,13)           55.1828         estimate D2E/DX2                !
 ! D20   D(6,2,12,14)          -63.7321         estimate D2E/DX2                !
 ! D21   D(6,2,12,17)          175.1459         estimate D2E/DX2                !
 ! D22   D(7,2,12,13)          174.6378         estimate D2E/DX2                !
 ! D23   D(7,2,12,14)           55.7229         estimate D2E/DX2                !
 ! D24   D(7,2,12,17)          -65.3991         estimate D2E/DX2                !
 ! D25   D(7,3,5,4)             52.4615         estimate D2E/DX2                !
 ! D26   D(7,3,5,10)           174.1535         estimate D2E/DX2                !
 ! D27   D(7,3,5,19)           -70.6654         estimate D2E/DX2                !
 ! D28   D(8,3,5,4)            170.5964         estimate D2E/DX2                !
 ! D29   D(8,3,5,10)           -67.7116         estimate D2E/DX2                !
 ! D30   D(8,3,5,19)            47.4695         estimate D2E/DX2                !
 ! D31   D(21,3,5,4)           -70.8446         estimate D2E/DX2                !
 ! D32   D(21,3,5,10)           50.8474         estimate D2E/DX2                !
 ! D33   D(21,3,5,19)          166.0284         estimate D2E/DX2                !
 ! D34   D(5,3,7,2)            -52.5178         estimate D2E/DX2                !
 ! D35   D(5,3,7,11)          -177.4278         estimate D2E/DX2                !
 ! D36   D(5,3,7,23)            67.0492         estimate D2E/DX2                !
 ! D37   D(8,3,7,2)           -170.5089         estimate D2E/DX2                !
 ! D38   D(8,3,7,11)            64.581          estimate D2E/DX2                !
 ! D39   D(8,3,7,23)           -50.942          estimate D2E/DX2                !
 ! D40   D(21,3,7,2)            72.785          estimate D2E/DX2                !
 ! D41   D(21,3,7,11)          -52.1251         estimate D2E/DX2                !
 ! D42   D(21,3,7,23)         -167.6481         estimate D2E/DX2                !
 ! D43   D(5,3,8,29)          -101.3577         estimate D2E/DX2                !
 ! D44   D(7,3,8,29)            17.5435         estimate D2E/DX2                !
 ! D45   D(21,3,8,29)          136.1179         estimate D2E/DX2                !
 ! D46   D(5,3,21,22)          -39.573          estimate D2E/DX2                !
 ! D47   D(7,3,21,22)         -162.7214         estimate D2E/DX2                !
 ! D48   D(8,3,21,22)           79.678          estimate D2E/DX2                !
 ! D49   D(6,4,5,3)             -1.9149         Frozen                          !
 ! D50   D(6,4,5,10)          -123.6241         estimate D2E/DX2                !
 ! D51   D(6,4,5,19)           121.4184         estimate D2E/DX2                !
 ! D52   D(9,4,5,3)           -122.6323         estimate D2E/DX2                !
 ! D53   D(9,4,5,10)           115.6584         estimate D2E/DX2                !
 ! D54   D(9,4,5,19)             0.701          estimate D2E/DX2                !
 ! D55   D(15,4,5,3)           115.4181         estimate D2E/DX2                !
 ! D56   D(15,4,5,10)           -6.2911         estimate D2E/DX2                !
 ! D57   D(15,4,5,19)         -121.2485         estimate D2E/DX2                !
 ! D58   D(5,4,6,2)            -55.2956         estimate D2E/DX2                !
 ! D59   D(5,4,6,27)            86.2344         estimate D2E/DX2                !
 ! D60   D(9,4,6,2)             67.5176         estimate D2E/DX2                !
 ! D61   D(9,4,6,27)          -150.9523         estimate D2E/DX2                !
 ! D62   D(15,4,6,2)          -174.7423         estimate D2E/DX2                !
 ! D63   D(15,4,6,27)          -33.2122         estimate D2E/DX2                !
 ! D64   D(5,4,15,16)          -84.2169         estimate D2E/DX2                !
 ! D65   D(6,4,15,16)           34.33           estimate D2E/DX2                !
 ! D66   D(9,4,15,16)          151.9361         estimate D2E/DX2                !
 ! D67   D(3,5,19,20)          -22.6            estimate D2E/DX2                !
 ! D68   D(4,5,19,20)         -147.7427         estimate D2E/DX2                !
 ! D69   D(10,5,19,20)          94.9397         estimate D2E/DX2                !
 ! D70   D(2,6,27,16)          157.7313         estimate D2E/DX2                !
 ! D71   D(2,6,27,26)          118.504          estimate D2E/DX2                !
 ! D72   D(4,6,27,16)           18.6625         estimate D2E/DX2                !
 ! D73   D(4,6,27,26)          -20.5647         estimate D2E/DX2                !
 ! D74   D(2,7,23,24)          -71.5937         estimate D2E/DX2                !
 ! D75   D(3,7,23,24)          165.5653         estimate D2E/DX2                !
 ! D76   D(11,7,23,24)          48.1837         estimate D2E/DX2                !
 ! D77   D(3,8,29,28)          122.4201         estimate D2E/DX2                !
 ! D78   D(2,12,17,18)        -179.9697         estimate D2E/DX2                !
 ! D79   D(13,12,17,18)        -59.1173         estimate D2E/DX2                !
 ! D80   D(14,12,17,18)         57.8213         estimate D2E/DX2                !
 ! D81   D(4,15,16,26)          11.279          estimate D2E/DX2                !
 ! D82   D(4,15,16,27)         -22.581          estimate D2E/DX2                !
 ! D83   D(15,16,26,25)       -153.5952         estimate D2E/DX2                !
 ! D84   D(15,16,27,6)           2.3631         estimate D2E/DX2                !
 ! D85   D(27,25,26,16)         76.139          estimate D2E/DX2                !
 ! D86   D(25,26,27,6)         134.9319         estimate D2E/DX2                !
 ! D87   D(30,28,29,8)          57.2673         estimate D2E/DX2                !
 --------------------------------------------------------------------------------
 Trust Radius=3.00D-01 FncErr=1.00D-07 GrdErr=1.00D-06
 Number of steps in this run=    180 maximum allowed number of steps=    180.
 GradGradGradGradGradGradGradGradGradGradGradGradGradGradGradGradGradGrad

                          Input orientation:                          
 ---------------------------------------------------------------------
 Center     Atomic      Atomic             Coordinates (Angstroms)
 Number     Number       Type             X           Y           Z
 ---------------------------------------------------------------------
      1          1           0        1.151209   -0.215020   -1.569901
      2          6           0        1.050566   -0.377832   -0.490025
      3          6           0       -0.591090    0.888539    1.018747
      4          6           0       -1.403755   -0.886561   -0.649379
      5          6           0       -1.723429    0.425703    0.084360
      6          8           0       -0.060764   -1.321333   -0.282565
      7          6           0        0.730812    0.934414    0.243771
      8          1           0       -0.825581    1.902635    1.365884
      9          1           0       -1.455369   -0.777334   -1.738249
     10          1           0       -2.641350    0.295291    0.669327
     11          1           0        1.541550    1.220008    0.924212
     12          6           0        2.320014   -1.034596    0.047929
     13          1           0        2.470706   -2.010912   -0.425384
     14          1           0        2.249289   -1.201357    1.128573
     15          8           0       -2.297322   -1.910276   -0.243958
     16          1           0       -1.909617   -2.268717    0.570961
     17          8           0        3.451029   -0.213569   -0.226865
     18          1           0        4.225855   -0.679654    0.135893
     19          8           0       -2.025700    1.458756   -0.876510
     20          1           0       -1.716933    2.308281   -0.491460
     21          8           0       -0.446151    0.071293    2.181955
     22          1           0       -1.338142   -0.164441    2.494054
     23          8           0        0.632858    1.986441   -0.743472
     24          1           0        1.547469    2.146008   -1.051382
     25          1           0       -0.909079   -3.381931    2.069971
     26          8           0       -0.870189   -2.418353    1.970853
     27          1           0       -0.265962   -2.260400    1.211757
     28          8           0       -0.714255    3.612728    0.238646
     29          1           0       -0.008449    3.067162    0.593321
     30          1           0       -1.277283    3.914177    0.955395
 ---------------------------------------------------------------------
                    Distance matrix (angstroms):
                    1          2          3          4          5
     1  H    0.000000
     2  C    1.096708   0.000000
     3  C    3.309765   2.564200   0.000000
     4  C    2.797529   2.511551   2.567888   0.000000
     5  C    3.377965   2.944594   1.539314   1.537076   0.000000
     6  O    2.085675   1.472511   2.618815   1.458494   2.439513
     7  C    2.187999   1.537104   1.533009   2.944494   2.511473
     8  H    4.124439   3.487815   1.097215   3.489296   2.151688
     9  H    2.671851   2.827963   3.335137   1.095551   2.200240
    10  H    4.433741   3.927777   2.162777   2.160417   1.096254
    11  H    2.903837   2.189572   2.160315   3.948246   3.463576
    12  C    2.157588   1.527165   3.621528   3.791386   4.299213
    13  H    2.505238   2.165162   4.457233   4.040518   4.877264
    14  H    3.075777   2.176003   3.528099   4.074916   4.418166
    15  O    4.065020   3.690161   3.512694   1.418034   2.427745
    16  H    4.262584   3.669308   3.450695   1.911931   2.744330
    17  O    2.663254   2.420425   4.370917   4.919387   5.223078
    18  H    3.546698   3.250435   5.142142   5.687879   6.051318
    19  O    3.657194   3.603587   2.444433   2.436989   1.442857
    20  H    3.969424   3.856716   2.358795   3.214037   1.968683
    21  O    4.087781   3.095376   1.428969   3.138621   2.481320
    22  H    4.766042   3.828340   1.960455   3.225978   2.510646
    23  O    2.407925   2.414229   2.410156   3.522895   2.945046
    24  H    2.449559   2.632832   3.231114   4.250624   3.866282
    25  H    5.246216   4.406631   4.409433   3.723767   4.370800
    26  O    4.634400   3.729469   3.452526   3.081670   3.517887
    27  H    3.732234   2.858910   3.171557   2.577951   3.257358
    28  O    4.626279   4.423814   2.836359   4.637629   3.346545
    29  H    4.098421   3.763394   2.294963   4.372997   3.190220
    30  H    5.415253   5.092098   3.103121   5.063436   3.623148
                    6          7          8          9         10
     6  O    0.000000
     7  C    2.447860   0.000000
     8  H    3.700851   2.149174   0.000000
     9  H    2.088031   3.411433   4.149037   0.000000
    10  H    3.190454   3.458475   2.523046   2.890242   0.000000
    11  H    3.237613   1.096294   2.502871   4.478794   4.291471
    12  C    2.420650   2.537896   4.501011   4.184511   5.173961
    13  H    2.627595   3.485677   5.421254   4.319652   5.714025
    14  H    2.709622   2.765893   4.375604   4.703505   5.135096
    15  O    2.313123   4.183269   4.392710   2.055565   2.411840
    16  H    2.245952   4.164009   4.382604   2.786219   2.668192
    17  O    3.682789   2.989807   5.030364   5.164770   6.178930
    18  H    4.354533   3.851257   5.805006   5.983164   6.956549
    19  O    3.455812   3.021311   2.581791   2.463325   2.030342
    20  H    3.995076   2.901643   2.099710   3.338251   2.500820
    21  O    2.856885   2.426268   2.040528   4.136023   2.675279
    22  H    3.267982   3.248358   2.410039   4.278057   2.288959
    23  O    3.410999   1.446031   2.565824   3.603987   3.946698
    24  H    3.898711   1.952514   3.396141   4.246734   4.892055
    25  H    3.240390   4.965388   5.331918   4.645955   4.299364
    26  O    2.633726   4.097201   4.363360   4.097903   3.492112
    27  H    1.776781   3.483876   4.203307   3.509517   3.531041
    28  O    5.004365   3.043290   2.051214   4.871346   3.860644
    29  H    4.475354   2.284142   1.618852   4.723340   3.823769
    30  H    5.515708   3.663037   2.102103   5.412736   3.877996
                   11         12         13         14         15
    11  H    0.000000
    12  C    2.541086   0.000000
    13  H    3.622649   1.095411   0.000000
    14  H    2.530942   1.095720   1.766122   0.000000
    15  O    5.089228   4.708695   4.772540   4.801883   0.000000
    16  H    4.920015   4.436936   4.499600   4.329745   0.971024
    17  O    2.650704   1.424357   2.056911   2.063278   5.993550
    18  H    3.381665   1.940606   2.273286   2.272532   6.649102
    19  O    4.003108   5.094764   5.697348   5.419602   3.438645
    20  H    3.715667   5.269033   6.016321   5.538320   4.265482
    21  O    2.617713   3.664523   4.431913   3.161431   3.638475
    22  H    3.560018   4.485845   5.141974   3.976103   3.385953
    23  O    2.048002   3.549574   4.411088   4.034781   4.901007
    24  H    2.181853   3.452760   4.303978   4.055812   5.646928
    25  H    5.338182   4.475006   4.419212   3.951762   3.073639
    26  O    4.488832   3.973640   4.131529   3.452775   2.683326
    27  H    3.932305   3.089395   3.198723   2.730381   2.523512
    28  O    3.359132   5.553448   6.496941   5.722760   5.765638
    29  H    2.433919   4.748011   5.742021   4.858408   5.542099
    30  H    3.899402   6.185014   7.145674   6.215737   6.033505
                   16         17         18         19         20
    16  H    0.000000
    17  O    5.796265   0.000000
    18  H    6.352828   0.974261   0.000000
    19  O    4.000338   5.763096   6.684287   0.000000
    20  H    4.702635   5.756525   6.681172   0.982494   0.000000
    21  O    3.195729   4.590378   5.155379   3.711366   3.710276
    22  H    2.907379   5.508355   6.065017   3.803710   3.895013
    23  O    5.128185   3.612342   4.559712   2.713684   2.385081
    24  H    5.837229   3.141810   4.070349   3.642860   3.316047
    25  H    2.118338   5.858713   6.116413   5.775885   6.292223
    26  O    1.750000   5.325782   5.688569   4.947186   5.396390
    27  H    1.764169   4.480532   4.881871   4.614071   5.087152
    28  O    6.010884   5.675108   6.545212   2.757364   1.800000
    29  H    5.664498   4.837756   5.672495   2.969288   2.161381
    30  H    6.227023   6.386937   7.215220   3.153585   2.205807
                   21         22         23         24         25
    21  O    0.000000
    22  H    0.973973   0.000000
    23  O    3.659259   4.358063   0.000000
    24  H    4.328213   5.122015   0.978153   0.000000
    25  H    3.485914   3.273558   6.253995   6.807024   0.000000
    26  O    2.534306   2.360686   5.387849   5.984343   0.969443
    27  H    2.531905   2.680839   4.760930   5.275107   1.551761
    28  O    4.048468   4.443322   2.328966   2.988451   7.233046
    29  H    3.419148   3.977955   1.834733   2.444269   6.677007
    30  H    4.118615   4.359622   3.201711   3.890090   7.389929
                   26         27         28         29         30
    26  O    0.000000
    27  H    0.982988   0.000000
    28  O    6.276846   5.970054   0.000000
    29  H    5.721106   5.369514   0.960000   0.000000
    30  H    6.426338   6.262100   0.960000   1.567952   0.000000
 Stoichiometry    C6H16O8
 Framework group  C1[X(C6H16O8)]
 Deg. of freedom    84
 Full point group                 C1      NOp   1
 Largest Abelian subgroup         C1      NOp   1
 Largest concise Abelian subgroup C1      NOp   1
                         Standard orientation:                         
 ---------------------------------------------------------------------
 Center     Atomic      Atomic             Coordinates (Angstroms)
 Number     Number       Type             X           Y           Z
 ---------------------------------------------------------------------
      1          1           0        0.175437    1.435094   -1.683302
      2          6           0        0.498607    1.198494   -0.662346
      3          6           0       -0.695130   -0.459754    0.886953
      4          6           0        0.672097   -1.262446   -1.133053
      5          6           0       -0.532041   -1.523155   -0.213987
      6          8           0        1.320977   -0.021324   -0.725897
      7          6           0       -0.705514    0.937698    0.256765
      8          1           0       -1.659980   -0.624359    1.382786
      9          1           0        0.381400   -1.180910   -2.186181
     10          1           0       -0.420701   -2.509027    0.252309
     11          1           0       -0.775587    1.693029    1.048235
     12          6           0        1.383783    2.324738   -0.132942
     13          1           0        2.280882    2.424503   -0.753577
     14          1           0        1.714586    2.117209    0.890828
     15          8           0        1.631766   -2.297441   -0.996522
     16          1           0        2.162711   -2.042329   -0.224574
     17          8           0        0.672748    3.558729   -0.154978
     18          1           0        1.282493    4.235518    0.190496
     19          8           0       -1.736890   -1.607233   -1.003359
     20          1           0       -2.468328   -1.256318   -0.449149
     21          8           0        0.312258   -0.531173    1.897904
     22          1           0        0.485399   -1.472042    2.080691
     23          8           0       -1.908378    1.060460   -0.536363
     24          1           0       -2.003510    2.015275   -0.726264
     25          1           0        3.618718   -1.336389    1.142557
     26          8           0        2.663859   -1.186426    1.217224
     27          1           0        2.459003   -0.488332    0.556191
     28          8           0       -3.504507   -0.210554    0.586569
     29          1           0       -2.826657    0.390632    0.903894
     30          1           0       -3.751340   -0.815305    1.290096
 ---------------------------------------------------------------------
 Rotational constants (GHZ):      0.6672841      0.6330011      0.4263503
 Standard basis: 6-31G(d) (6D, 7F)
 There are   242 symmetry adapted cartesian basis functions of A   symmetry.
 There are   242 symmetry adapted basis functions of A   symmetry.
   242 basis functions,   456 primitive gaussians,   242 cartesian basis functions
    58 alpha electrons       58 beta electrons
       nuclear repulsion energy      1140.4653256695 Hartrees.
 NAtoms=   30 NActive=   30 NUniq=   30 SFac= 1.00D+00 NAtFMM=   60 NAOKFM=F Big=F
 Integral buffers will be    131072 words long.
 Raffenetti 2 integral format.
 Two-electron integral symmetry is turned on.
 One-electron integrals computed using PRISM.
 NBasis=   242 RedAO= T EigKep=  1.77D-03  NBF=   242
 NBsUse=   242 1.00D-06 EigRej= -1.00D+00 NBFU=   242
 ExpMin= 1.61D-01 ExpMax= 5.48D+03 ExpMxC= 8.25D+02 IAcc=1 IRadAn=         1 AccDes= 0.00D+00
 Harris functional with IExCor=  402 and IRadAn=       1 diagonalized for initial guess.
 HarFok:  IExCor=  402 AccDes= 0.00D+00 IRadAn=         1 IDoV= 1 UseB2=F ITyADJ=14
 ICtDFT=  3500011 ScaDFX=  1.000000  1.000000  1.000000  1.000000
 FoFCou: FMM=F IPFlag=           0 FMFlag=      100000 FMFlg1=           0
         NFxFlg=           0 DoJE=T BraDBF=F KetDBF=T FulRan=T
         wScrn=  0.000000 ICntrl=     500 IOpCl=  0 I1Cent=   200000004 NGrid=           0
         NMat0=    1 NMatS0=      1 NMatT0=    0 NMatD0=    1 NMtDS0=    0 NMtDT0=    0
 Petite list used in FoFCou.
 Requested convergence on RMS density matrix=1.00D-08 within 128 cycles.
 Requested convergence on MAX density matrix=1.00D-06.
 Requested convergence on             energy=1.00D-06.
 No special actions if energy rises.
 Integral accuracy reduced to 1.0D-05 until final iterations.
 Initial convergence to 1.0D-05 achieved.  Increase integral accuracy.
 SCF Done:  E(RB3LYP) =  -839.927882442     A.U. after   14 cycles
            NFock= 14  Conv=0.56D-08     -V/T= 2.0082

 **********************************************************************

            Population analysis using the SCF density.

 **********************************************************************

 Orbital symmetries:
       Occupied  (A) (A) (A) (A) (A) (A) (A) (A) (A) (A) (A) (A)
                 (A) (A) (A) (A) (A) (A) (A) (A) (A) (A) (A) (A)
                 (A) (A) (A) (A) (A) (A) (A) (A) (A) (A) (A) (A)
                 (A) (A) (A) (A) (A) (A) (A) (A) (A) (A) (A) (A)
                 (A) (A) (A) (A) (A) (A) (A) (A) (A) (A)
       Virtual   (A) (A) (A) (A) (A) (A) (A) (A) (A) (A) (A) (A)
                 (A) (A) (A) (A) (A) (A) (A) (A) (A) (A) (A) (A)
                 (A) (A) (A) (A) (A) (A) (A) (A) (A) (A) (A) (A)
                 (A) (A) (A) (A) (A) (A) (A) (A) (A) (A) (A) (A)
                 (A) (A) (A) (A) (A) (A) (A) (A) (A) (A) (A) (A)
                 (A) (A) (A) (A) (A) (A) (A) (A) (A) (A) (A) (A)
                 (A) (A) (A) (A) (A) (A) (A) (A) (A) (A) (A) (A)
                 (A) (A) (A) (A) (A) (A) (A) (A) (A) (A) (A) (A)
                 (A) (A) (A) (A) (A) (A) (A) (A) (A) (A) (A) (A)
                 (A) (A) (A) (A) (A) (A) (A) (A) (A) (A) (A) (A)
                 (A) (A) (A) (A) (A) (A) (A) (A) (A) (A) (A) (A)
                 (A) (A) (A) (A) (A) (A) (A) (A) (A) (A) (A) (A)
                 (A) (A) (A) (A) (A) (A) (A) (A) (A) (A) (A) (A)
                 (A) (A) (A) (A) (A) (A) (A) (A) (A) (A) (A) (A)
                 (A) (A) (A) (A) (A) (A) (A) (A) (A) (A) (A) (A)
                 (A) (A) (A) (A)
 The electronic state is 1-A.
 Alpha  occ. eigenvalues --  -19.16574 -19.16562 -19.15784 -19.15005 -19.14946
 Alpha  occ. eigenvalues --  -19.14454 -19.12466 -19.10653 -10.27919 -10.25508
 Alpha  occ. eigenvalues --  -10.24983 -10.24801 -10.24229 -10.22273  -1.06131
 Alpha  occ. eigenvalues --   -1.04039  -1.03636  -1.01730  -1.01380  -1.00787
 Alpha  occ. eigenvalues --   -0.98493  -0.97740  -0.78431  -0.75710  -0.69295
 Alpha  occ. eigenvalues --   -0.64568  -0.62390  -0.57244  -0.56113  -0.54455
 Alpha  occ. eigenvalues --   -0.53868  -0.52646  -0.51721  -0.50078  -0.49231
 Alpha  occ. eigenvalues --   -0.47727  -0.45704  -0.44101  -0.43676  -0.42574
 Alpha  occ. eigenvalues --   -0.40655  -0.39526  -0.39172  -0.38002  -0.37370
 Alpha  occ. eigenvalues --   -0.36468  -0.36120  -0.34679  -0.33764  -0.31559
 Alpha  occ. eigenvalues --   -0.30481  -0.30045  -0.29100  -0.28554  -0.27703
 Alpha  occ. eigenvalues --   -0.27163  -0.24098  -0.23514
 Alpha virt. eigenvalues --    0.03345   0.05708   0.05857   0.07685   0.09501
 Alpha virt. eigenvalues --    0.10604   0.10982   0.11613   0.13333   0.14138
 Alpha virt. eigenvalues --    0.14433   0.16527   0.16716   0.18448   0.18799
 Alpha virt. eigenvalues --    0.19976   0.20807   0.21947   0.22882   0.24333
 Alpha virt. eigenvalues --    0.25729   0.26709   0.26994   0.27484   0.29050
 Alpha virt. eigenvalues --    0.31738   0.33768   0.35094   0.52297   0.53389
 Alpha virt. eigenvalues --    0.55397   0.56756   0.57732   0.59061   0.59474
 Alpha virt. eigenvalues --    0.60338   0.62125   0.63124   0.64442   0.66302
 Alpha virt. eigenvalues --    0.69300   0.71457   0.72501   0.74732   0.75526
 Alpha virt. eigenvalues --    0.76788   0.77291   0.78909   0.79734   0.81189
 Alpha virt. eigenvalues --    0.83040   0.83578   0.84543   0.85181   0.85330
 Alpha virt. eigenvalues --    0.86030   0.87578   0.88626   0.89330   0.90024
 Alpha virt. eigenvalues --    0.91089   0.91891   0.92717   0.93663   0.95523
 Alpha virt. eigenvalues --    0.96400   0.97795   0.99327   1.01282   1.02647
 Alpha virt. eigenvalues --    1.02988   1.04399   1.06655   1.07710   1.08567
 Alpha virt. eigenvalues --    1.10083   1.10984   1.14098   1.16368   1.16972
 Alpha virt. eigenvalues --    1.18966   1.21443   1.21884   1.25569   1.26774
 Alpha virt. eigenvalues --    1.29131   1.31674   1.33645   1.35693   1.38503
 Alpha virt. eigenvalues --    1.40329   1.41761   1.45435   1.48712   1.50867
 Alpha virt. eigenvalues --    1.53107   1.55423   1.55909   1.58837   1.61196
 Alpha virt. eigenvalues --    1.63739   1.65367   1.67679   1.70323   1.71250
 Alpha virt. eigenvalues --    1.72201   1.72858   1.73774   1.74726   1.76309
 Alpha virt. eigenvalues --    1.76480   1.77534   1.78372   1.78963   1.81672
 Alpha virt. eigenvalues --    1.83301   1.84504   1.86569   1.87316   1.87891
 Alpha virt. eigenvalues --    1.91346   1.92174   1.94862   1.95929   1.97298
 Alpha virt. eigenvalues --    1.98087   2.00421   2.01287   2.02944   2.03925
 Alpha virt. eigenvalues --    2.07129   2.09792   2.09845   2.11969   2.15728
 Alpha virt. eigenvalues --    2.17216   2.20524   2.21571   2.24049   2.27331
 Alpha virt. eigenvalues --    2.32965   2.34369   2.34653   2.35876   2.41645
 Alpha virt. eigenvalues --    2.42520   2.45281   2.46927   2.48897   2.49625
 Alpha virt. eigenvalues --    2.51554   2.54699   2.58088   2.59457   2.61475
 Alpha virt. eigenvalues --    2.62572   2.64068   2.65973   2.66949   2.71308
 Alpha virt. eigenvalues --    2.74043   2.76457   2.81021   2.84772   2.91076
 Alpha virt. eigenvalues --    2.92463   2.97632   3.02559   3.03718   3.09190
 Alpha virt. eigenvalues --    3.69741   3.75562   3.77605   3.80662   3.94543
 Alpha virt. eigenvalues --    4.01233   4.05838   4.08659   4.28994   4.42018
 Alpha virt. eigenvalues --    4.46320   4.61619   4.77387   4.79377
          Condensed to atoms (all electrons):
               1          2          3          4          5          6
     1  H    0.594151   0.368073   0.001300  -0.003355  -0.001673  -0.032019
     2  C    0.368073   4.930285  -0.043846  -0.010139  -0.019294   0.187285
     3  C    0.001300  -0.043846   5.084060  -0.018408   0.267321  -0.005658
     4  C   -0.003355  -0.010139  -0.018408   4.718294   0.249371   0.172492
     5  C   -0.001673  -0.019294   0.267321   0.249371   5.132677  -0.038546
     6  O   -0.032019   0.187285  -0.005658   0.172492  -0.038546   8.399345
     7  C   -0.065750   0.279877   0.304245  -0.023105  -0.009376  -0.040592
     8  H   -0.000147   0.006226   0.332663   0.005622  -0.052277   0.000297
     9  H    0.006897  -0.003613   0.003522   0.377205  -0.075521  -0.036704
    10  H    0.000042   0.000387  -0.052201  -0.064345   0.362806   0.004297
    11  H    0.004964  -0.056041  -0.042723   0.000345   0.005638   0.003172
    12  C   -0.042714   0.333690   0.000028   0.002352   0.000470  -0.025836
    13  H   -0.007526  -0.032330  -0.000023  -0.000039  -0.000010   0.003351
    14  H    0.006069  -0.030822   0.000034  -0.000028  -0.000001   0.001534
    15  O   -0.000076   0.002511   0.001645   0.279986  -0.045115  -0.039372
    16  H    0.000000   0.000150  -0.000762  -0.031125   0.000791   0.001447
    17  O    0.003974  -0.043153   0.000345  -0.000020  -0.000006   0.000745
    18  H   -0.000159   0.005495  -0.000009   0.000001   0.000000  -0.000071
    19  O    0.000239   0.001036  -0.018183  -0.034082   0.204841   0.001257
    20  H   -0.000012   0.000047   0.000541   0.004340  -0.029398  -0.000162
    21  O   -0.000014   0.006265   0.184841   0.002587  -0.031161  -0.004605
    22  H    0.000012  -0.000248  -0.027607  -0.001976  -0.002539   0.000829
    23  O    0.003227  -0.035632  -0.037022   0.001277   0.000000   0.001405
    24  H    0.002390  -0.001681   0.006289  -0.000121  -0.000132  -0.000031
    25  H    0.000003  -0.000025  -0.000080  -0.000173  -0.000025   0.000957
    26  O   -0.000038   0.001401   0.000523   0.002512   0.000243  -0.027800
    27  H    0.000461  -0.003927   0.000631  -0.003758  -0.000283   0.052260
    28  O    0.000008   0.000073  -0.020106  -0.000019  -0.002125   0.000000
    29  H   -0.000016   0.000705  -0.001615   0.000020  -0.000991  -0.000027
    30  H   -0.000001   0.000014  -0.002735   0.000005   0.000233  -0.000001
               7          8          9         10         11         12
     1  H   -0.065750  -0.000147   0.006897   0.000042   0.004964  -0.042714
     2  C    0.279877   0.006226  -0.003613   0.000387  -0.056041   0.333690
     3  C    0.304245   0.332663   0.003522  -0.052201  -0.042723   0.000028
     4  C   -0.023105   0.005622   0.377205  -0.064345   0.000345   0.002352
     5  C   -0.009376  -0.052277  -0.075521   0.362806   0.005638   0.000470
     6  O   -0.040592   0.000297  -0.036704   0.004297   0.003172  -0.025836
     7  C    5.107747  -0.066317  -0.001118   0.006014   0.362189  -0.023151
     8  H   -0.066317   0.699712  -0.000204  -0.007396  -0.004679  -0.000160
     9  H   -0.001118  -0.000204   0.587667   0.004232   0.000048  -0.000108
    10  H    0.006014  -0.007396   0.004232   0.643039  -0.000162   0.000007
    11  H    0.362189  -0.004679   0.000048  -0.000162   0.611651  -0.002836
    12  C   -0.023151  -0.000160  -0.000108   0.000007  -0.002836   4.915317
    13  H    0.006833   0.000004  -0.000032  -0.000001   0.000637   0.355467
    14  H   -0.013008   0.000009   0.000018   0.000000   0.000966   0.359137
    15  O    0.000140  -0.000109  -0.038251   0.006514   0.000003  -0.000077
    16  H    0.000045   0.000011   0.004287   0.001125  -0.000004  -0.000014
    17  O    0.003425   0.000001   0.000001  -0.000000   0.006974   0.224004
    18  H   -0.000077  -0.000000   0.000000   0.000000  -0.000244  -0.021351
    19  O   -0.001189  -0.003621   0.007840  -0.039846  -0.000100   0.000002
    20  H   -0.002872   0.004147  -0.000218  -0.000241  -0.000050  -0.000004
    21  O   -0.043489  -0.030901  -0.000102  -0.002093   0.001441  -0.001301
    22  H    0.006985  -0.003165   0.000034   0.009230  -0.000219   0.000047
    23  O    0.164755  -0.003992   0.000229  -0.000012  -0.037171   0.002557
    24  H   -0.017098  -0.000157   0.000014   0.000019  -0.007226  -0.000912
    25  H   -0.000005   0.000003   0.000007   0.000002  -0.000001  -0.000002
    26  O   -0.000270  -0.000005  -0.000159  -0.000131   0.000003  -0.000028
    27  H    0.000109   0.000041   0.000571  -0.000173  -0.000020  -0.000806
    28  O    0.000232   0.021219   0.000002  -0.000030   0.000414   0.000001
    29  H    0.001892   0.009966  -0.000009   0.000037  -0.001686  -0.000036
    30  H   -0.000162   0.009110  -0.000001  -0.000023   0.000004  -0.000000
              13         14         15         16         17         18
     1  H   -0.007526   0.006069  -0.000076   0.000000   0.003974  -0.000159
     2  C   -0.032330  -0.030822   0.002511   0.000150  -0.043153   0.005495
     3  C   -0.000023   0.000034   0.001645  -0.000762   0.000345  -0.000009
     4  C   -0.000039  -0.000028   0.279986  -0.031125  -0.000020   0.000001
     5  C   -0.000010  -0.000001  -0.045115   0.000791  -0.000006   0.000000
     6  O    0.003351   0.001534  -0.039372   0.001447   0.000745  -0.000071
     7  C    0.006833  -0.013008   0.000140   0.000045   0.003425  -0.000077
     8  H    0.000004   0.000009  -0.000109   0.000011   0.000001  -0.000000
     9  H   -0.000032   0.000018  -0.038251   0.004287   0.000001   0.000000
    10  H   -0.000001   0.000000   0.006514   0.001125  -0.000000   0.000000
    11  H    0.000637   0.000966   0.000003  -0.000004   0.006974  -0.000244
    12  C    0.355467   0.359137  -0.000077  -0.000014   0.224004  -0.021351
    13  H    0.629134  -0.053195  -0.000002   0.000005  -0.037703  -0.004195
    14  H   -0.053195   0.614029   0.000003  -0.000038  -0.038301  -0.004181
    15  O   -0.000002   0.000003   8.325295   0.195310   0.000000  -0.000000
    16  H    0.000005  -0.000038   0.195310   0.355608  -0.000000  -0.000000
    17  O   -0.037703  -0.038301   0.000000  -0.000000   8.272525   0.238472
    18  H   -0.004195  -0.004181  -0.000000  -0.000000   0.238472   0.380805
    19  O   -0.000000  -0.000000   0.001753  -0.000044   0.000000   0.000000
    20  H    0.000000   0.000000  -0.000101   0.000008   0.000000  -0.000000
    21  O    0.000017   0.002751  -0.000179   0.000683   0.000002   0.000000
    22  H   -0.000003  -0.000053   0.000369   0.000469  -0.000000  -0.000000
    23  O   -0.000127   0.000082   0.000001  -0.000000  -0.000415   0.000017
    24  H   -0.000003   0.000075   0.000000   0.000000   0.002201  -0.000059
    25  H    0.000001   0.000021   0.001512  -0.001317   0.000000   0.000000
    26  O   -0.000027   0.000316  -0.033448   0.085493   0.000000   0.000000
    27  H    0.000341   0.002328   0.004274  -0.010519   0.000010  -0.000003
    28  O   -0.000000  -0.000000   0.000000  -0.000000  -0.000000   0.000000
    29  H    0.000000  -0.000000  -0.000001   0.000000   0.000002  -0.000000
    30  H    0.000000  -0.000000  -0.000000   0.000000   0.000000  -0.000000
              19         20         21         22         23         24
     1  H    0.000239  -0.000012  -0.000014   0.000012   0.003227   0.002390
     2  C    0.001036   0.000047   0.006265  -0.000248  -0.035632  -0.001681
     3  C   -0.018183   0.000541   0.184841  -0.027607  -0.037022   0.006289
     4  C   -0.034082   0.004340   0.002587  -0.001976   0.001277  -0.000121
     5  C    0.204841  -0.029398  -0.031161  -0.002539   0.000000  -0.000132
     6  O    0.001257  -0.000162  -0.004605   0.000829   0.001405  -0.000031
     7  C   -0.001189  -0.002872  -0.043489   0.006985   0.164755  -0.017098
     8  H   -0.003621   0.004147  -0.030901  -0.003165  -0.003992  -0.000157
     9  H    0.007840  -0.000218  -0.000102   0.000034   0.000229   0.000014
    10  H   -0.039846  -0.000241  -0.002093   0.009230  -0.000012   0.000019
    11  H   -0.000100  -0.000050   0.001441  -0.000219  -0.037171  -0.007226
    12  C    0.000002  -0.000004  -0.001301   0.000047   0.002557  -0.000912
    13  H   -0.000000   0.000000   0.000017  -0.000003  -0.000127  -0.000003
    14  H   -0.000000   0.000000   0.002751  -0.000053   0.000082   0.000075
    15  O    0.001753  -0.000101  -0.000179   0.000369   0.000001   0.000000
    16  H   -0.000044   0.000008   0.000683   0.000469  -0.000000   0.000000
    17  O    0.000000   0.000000   0.000002  -0.000000  -0.000415   0.002201
    18  H    0.000000  -0.000000   0.000000  -0.000000   0.000017  -0.000059
    19  O    8.364909   0.212802   0.001598   0.000023  -0.001108   0.000765
    20  H    0.212802   0.327470   0.000073  -0.000003  -0.000154   0.000054
    21  O    0.001598   0.000073   8.320323   0.231981   0.000952  -0.000064
    22  H    0.000023  -0.000003   0.231981   0.371367  -0.000087   0.000007
    23  O   -0.001108  -0.000154   0.000952  -0.000087   8.353254   0.225646
    24  H    0.000765   0.000054  -0.000064   0.000007   0.225646   0.384341
    25  H    0.000000   0.000000   0.001537  -0.000444   0.000000   0.000000
    26  O    0.000002  -0.000000  -0.010866   0.010010   0.000000  -0.000000
    27  H   -0.000014   0.000002   0.002003  -0.001558  -0.000006   0.000001
    28  O   -0.023169   0.064892   0.000339   0.000014  -0.048959   0.001885
    29  H    0.003417  -0.009562  -0.000695  -0.000009   0.033736  -0.000758
    30  H    0.001695  -0.004231  -0.000034  -0.000008   0.003557  -0.000169
              25         26         27         28         29         30
     1  H    0.000003  -0.000038   0.000461   0.000008  -0.000016  -0.000001
     2  C   -0.000025   0.001401  -0.003927   0.000073   0.000705   0.000014
     3  C   -0.000080   0.000523   0.000631  -0.020106  -0.001615  -0.002735
     4  C   -0.000173   0.002512  -0.003758  -0.000019   0.000020   0.000005
     5  C   -0.000025   0.000243  -0.000283  -0.002125  -0.000991   0.000233
     6  O    0.000957  -0.027800   0.052260   0.000000  -0.000027  -0.000001
     7  C   -0.000005  -0.000270   0.000109   0.000232   0.001892  -0.000162
     8  H    0.000003  -0.000005   0.000041   0.021219   0.009966   0.009110
     9  H    0.000007  -0.000159   0.000571   0.000002  -0.000009  -0.000001
    10  H    0.000002  -0.000131  -0.000173  -0.000030   0.000037  -0.000023
    11  H   -0.000001   0.000003  -0.000020   0.000414  -0.001686   0.000004
    12  C   -0.000002  -0.000028  -0.000806   0.000001  -0.000036  -0.000000
    13  H    0.000001  -0.000027   0.000341  -0.000000   0.000000   0.000000
    14  H    0.000021   0.000316   0.002328  -0.000000  -0.000000  -0.000000
    15  O    0.001512  -0.033448   0.004274   0.000000  -0.000001  -0.000000
    16  H   -0.001317   0.085493  -0.010519  -0.000000   0.000000   0.000000
    17  O    0.000000   0.000000   0.000010  -0.000000   0.000002   0.000000
    18  H    0.000000   0.000000  -0.000003   0.000000  -0.000000  -0.000000
    19  O    0.000000   0.000002  -0.000014  -0.023169   0.003417   0.001695
    20  H    0.000000  -0.000000   0.000002   0.064892  -0.009562  -0.004231
    21  O    0.001537  -0.010866   0.002003   0.000339  -0.000695  -0.000034
    22  H   -0.000444   0.010010  -0.001558   0.000014  -0.000009  -0.000008
    23  O    0.000000   0.000000  -0.000006  -0.048959   0.033736   0.003557
    24  H    0.000000  -0.000000   0.000001   0.001885  -0.000758  -0.000169
    25  H    0.395072   0.223865  -0.008033  -0.000000   0.000000   0.000000
    26  O    0.223865   8.342157   0.192199   0.000000  -0.000000  -0.000000
    27  H   -0.008033   0.192199   0.346146  -0.000000   0.000001   0.000000
    28  O   -0.000000   0.000000  -0.000000   8.316579   0.202258   0.224758
    29  H    0.000000  -0.000000   0.000001   0.202258   0.359819  -0.011423
    30  H    0.000000  -0.000000   0.000000   0.224758  -0.011423   0.391716
 Mulliken charges:
               1
     1  H    0.161692
     2  C    0.157231
     3  C    0.082988
     4  C    0.374283
     5  C    0.084082
     6  O   -0.579249
     7  C    0.063091
     8  H    0.084097
     9  H    0.163466
    10  H    0.128902
    11  H    0.154715
    12  C   -0.073743
    13  H    0.139427
    14  H    0.152255
    15  O   -0.662585
    16  H    0.398393
    17  O   -0.633081
    18  H    0.405560
    19  O   -0.680821
    20  H    0.432632
    21  O   -0.631893
    22  H    0.406542
    23  O   -0.626011
    24  H    0.404725
    25  H    0.387123
    26  O   -0.785953
    27  H    0.427724
    28  O   -0.738264
    29  H    0.414976
    30  H    0.387695
 Sum of Mulliken charges =  -0.00000
 Mulliken charges with hydrogens summed into heavy atoms:
               1
     2  C    0.318922
     3  C    0.167085
     4  C    0.537749
     5  C    0.212984
     6  O   -0.579249
     7  C    0.217807
    12  C    0.217939
    15  O   -0.264192
    17  O   -0.227521
    19  O   -0.248189
    21  O   -0.225352
    23  O   -0.221285
    26  O    0.028895
    28  O    0.064407
 Electronic spatial extent (au):  <R**2>=           2886.4756
 Charge=             -0.0000 electrons
 Dipole moment (field-independent basis, Debye):
    X=              2.0374    Y=              3.7562    Z=              3.3186  Tot=              5.4105
 Quadrupole moment (field-independent basis, Debye-Ang):
   XX=            -75.3166   YY=            -77.6603   ZZ=            -86.3066
   XY=              5.3567   XZ=             -6.1773   YZ=             -7.3355
 Traceless Quadrupole moment (field-independent basis, Debye-Ang):
   XX=              4.4445   YY=              2.1009   ZZ=             -6.5454
   XY=              5.3567   XZ=             -6.1773   YZ=             -7.3355
 Octapole moment (field-independent basis, Debye-Ang**2):
  XXX=             54.9450  YYY=             55.0809  ZZZ=              0.2920  XYY=             13.0259
  XXY=              1.1688  XXZ=             36.8167  XZZ=            -14.1397  YZZ=              1.7369
  YYZ=             30.7668  XYZ=              7.2004
 Hexadecapole moment (field-independent basis, Debye-Ang**3):
 XXXX=          -1273.0044 YYYY=          -1247.1321 ZZZZ=           -505.1946 XXXY=             -8.8059
 XXXZ=            -16.4732 YYYX=             97.7094 YYYZ=            -13.1430 ZZZX=            -16.5267
 ZZZY=            -24.2455 XXYY=           -386.5559 XXZZ=           -308.3971 YYZZ=           -314.5159
 XXYZ=            -52.8799 YYXZ=             26.1455 ZZXY=              1.9071
 N-N= 1.140465325669D+03 E-N=-4.254148618922D+03  KE= 8.330952154915D+02
 Calling FoFJK, ICntrl=      2127 FMM=F ISym2X=0 I1Cent= 0 IOpClX= 0 NMat=1 NMatS=1 NMatT=0.
 ***** Axes restored to original set *****
 -------------------------------------------------------------------
 Center     Atomic                   Forces (Hartrees/Bohr)
 Number     Number              X              Y              Z
 -------------------------------------------------------------------
      1        1           0.000160446    0.004413695    0.001224470
      2        6          -0.020596690   -0.015133674    0.012838208
      3        6          -0.007189887   -0.007692583    0.008623506
      4        6          -0.003186146   -0.010585918    0.013823741
      5        6          -0.011416521    0.029579729   -0.010207936
      6        8           0.018747807   -0.003705094   -0.011536622
      7        6           0.011751608    0.008814647   -0.010814767
      8        1          -0.002215876   -0.009701375   -0.000666875
      9        1          -0.002638020    0.003171249    0.001386752
     10        1           0.000662514   -0.008917401    0.005525508
     11        1           0.000973333   -0.007209253    0.004286324
     12        6           0.005573373   -0.013104694    0.001606077
     13        1          -0.005389048   -0.003646202   -0.002033597
     14        1          -0.006863992    0.000094932    0.002647936
     15        8           0.013353335    0.010765948   -0.026183635
     16        1          -0.005225025   -0.000269535    0.013547892
     17        8          -0.000310340    0.005780880   -0.002136770
     18        1          -0.004043023    0.004276493   -0.002304902
     19        8           0.001898421   -0.012371973    0.005784606
     20        1           0.001698126   -0.000831745   -0.007522661
     21        8           0.005902382    0.008369453   -0.006870408
     22        1           0.005886372   -0.002712527   -0.002623780
     23        8           0.021906502   -0.009652221   -0.001433367
     24        1          -0.005906526   -0.001191335    0.000937473
     25        1           0.000840875   -0.002952982    0.001566955
     26        8          -0.002088237   -0.016848332    0.003030181
     27        1           0.003354192    0.005606111    0.006472415
     28        8          -0.019202571    0.031004881   -0.007478479
     29        1           0.004783783    0.008709582   -0.003403109
     30        1          -0.001221169    0.005939244    0.011914862
 -------------------------------------------------------------------
 Cartesian Forces:  Max     0.031004881 RMS     0.009594885

 GradGradGradGradGradGradGradGradGradGradGradGradGradGradGradGradGradGrad
 Berny optimization.
 FormGI is forming the generalized inverse of G from B-inverse, IUseBI=4.
 Internal  Forces:  Max     0.115948382 RMS     0.013572455
 Search for a local minimum.
 Step number   1 out of a maximum of  180
 All quantities printed in internal units (Hartrees-Bohrs-Radians)
 Mixed Optimization -- RFO/linear search
 Second derivative matrix not updated -- first step.
 ITU=  0
     Eigenvalues ---    0.00230   0.00230   0.00407   0.00716   0.00908
     Eigenvalues ---    0.00998   0.01083   0.01125   0.01309   0.01357
     Eigenvalues ---    0.01370   0.01558   0.01594   0.02088   0.03170
     Eigenvalues ---    0.03421   0.04172   0.04539   0.04694   0.04811
     Eigenvalues ---    0.05020   0.05056   0.05284   0.05762   0.05834
     Eigenvalues ---    0.05987   0.06423   0.06554   0.06714   0.06967
     Eigenvalues ---    0.07297   0.07434   0.07661   0.08220   0.09185
     Eigenvalues ---    0.09664   0.11473   0.11678   0.13811   0.14603
     Eigenvalues ---    0.15081   0.15554   0.16000   0.16000   0.16000
     Eigenvalues ---    0.16000   0.16000   0.16000   0.16000   0.16221
     Eigenvalues ---    0.16556   0.17412   0.17721   0.21986   0.25732
     Eigenvalues ---    0.25962   0.27694   0.28778   0.29687   0.31847
     Eigenvalues ---    0.33601   0.33992   0.34049   0.34095   0.34100
     Eigenvalues ---    0.34160   0.34179   0.34195   0.38770   0.39196
     Eigenvalues ---    0.39773   0.41138   0.41811   0.44003   0.49506
     Eigenvalues ---    0.50904   0.51745   0.52516   0.52573   0.53491
     Eigenvalues ---    0.55473   0.554731000.000001000.000001000.00000
     Eigenvalues --- 1000.000001000.000001000.000001000.000001000.00000
     Eigenvalues --- 1000.000001000.000001000.000001000.000001000.00000
     Eigenvalues --- 1000.000001000.000001000.000001000.000001000.00000
     Eigenvalues --- 1000.000001000.000001000.000001000.000001000.00000
     Eigenvalues --- 1000.000001000.000001000.000001000.000001000.00000
     Eigenvalues --- 1000.000001000.000001000.000001000.000001000.00000
     Eigenvalues --- 1000.000001000.000001000.000001000.000001000.00000
     Eigenvalues --- 1000.000001000.000001000.000001000.000001000.00000
     Eigenvalues --- 1000.000001000.000001000.000001000.000001000.00000
     Eigenvalues --- 1000.000001000.000001000.000001000.000001000.00000
     Eigenvalues --- 1000.000001000.000001000.000001000.000001000.00000
     Eigenvalues --- 1000.000001000.000001000.000001000.000001000.00000
     Eigenvalues --- 1000.000001000.000001000.000001000.000001000.00000
     Eigenvalues --- 1000.000001000.000001000.000001000.000001000.00000
     Eigenvalues --- 1000.000001000.000001000.000001000.000001000.00000
     Eigenvalues --- 1000.000001000.000001000.000001000.000001000.00000
     Eigenvalues --- 1000.000001000.000001000.000001000.000001000.00000
     Eigenvalues --- 1000.000001000.00000
 RFO step:  Lambda=-1.28048105D-01 EMin= 2.30000000D-03
 Linear search not attempted -- first point.
 Maximum step size (   0.300) exceeded in Quadratic search.
    -- Step size scaled by   0.565
 Iteration  1 RMS(Cart)=  0.13894049 RMS(Int)=  0.01112182
 Iteration  2 RMS(Cart)=  0.04082012 RMS(Int)=  0.00116745
 Iteration  3 RMS(Cart)=  0.00188050 RMS(Int)=  0.00024741
 Iteration  4 RMS(Cart)=  0.00000256 RMS(Int)=  0.00024740
 Iteration  5 RMS(Cart)=  0.00000000 RMS(Int)=  0.00024740
 Iteration  1 RMS(Cart)=  0.00001120 RMS(Int)=  0.00001623
 Iteration  2 RMS(Cart)=  0.00000872 RMS(Int)=  0.00001745
 Iteration  3 RMS(Cart)=  0.00000682 RMS(Int)=  0.00001993
 Iteration  4 RMS(Cart)=  0.00000535 RMS(Int)=  0.00002260
 Iteration  5 RMS(Cart)=  0.00000421 RMS(Int)=  0.00002503
 Iteration  6 RMS(Cart)=  0.00000332 RMS(Int)=  0.00002714
 Iteration  7 RMS(Cart)=  0.00000263 RMS(Int)=  0.00002891
 Iteration  8 RMS(Cart)=  0.00000209 RMS(Int)=  0.00003038
 Iteration  9 RMS(Cart)=  0.00000166 RMS(Int)=  0.00003159
 Iteration 10 RMS(Cart)=  0.00000133 RMS(Int)=  0.00003258
 Iteration 11 RMS(Cart)=  0.00000106 RMS(Int)=  0.00003339
 Iteration 12 RMS(Cart)=  0.00000085 RMS(Int)=  0.00003405
 Variable       Old X    -DE/DX   Delta X   Delta X   Delta X     New X
                                 (Linear)    (Quad)   (Total)
    R1        2.07248  -0.00054   0.00000  -0.00065  -0.00065   2.07183
    R2        2.78264  -0.02020   0.00000  -0.02624  -0.02627   2.75637
    R3        2.90471   0.00737   0.00000   0.01069   0.01074   2.91545
    R4        2.88592  -0.00711   0.00000  -0.00946  -0.00946   2.87646
    R5        2.90888   0.00858   0.00000   0.01353   0.01371   2.92259
    R6        2.89697   0.01716   0.00000   0.02645   0.02651   2.92348
    R7        2.07344   0.03716   0.00000   0.04490   0.04490   2.11833
    R8        2.70036  -0.00977   0.00000  -0.01024  -0.01024   2.69012
    R9        2.90465   0.01167   0.00000   0.01520   0.01515   2.91980
   R10        2.75615   0.00499   0.00000   0.00018   0.00001   2.75617
   R11        2.07029  -0.00094   0.00000  -0.00113  -0.00113   2.06916
   R12        2.67970  -0.01183   0.00000  -0.01393  -0.01383   2.66587
   R13        2.07162   0.00345   0.00000   0.00416   0.00416   2.07578
   R14        2.72661  -0.00905   0.00000  -0.00984  -0.00984   2.71677
   R15        3.35763   0.01393   0.00000   0.04168   0.04160   3.39923
   R16        2.07169   0.00150   0.00000   0.00181   0.00181   2.07351
   R17        2.73260  -0.00863   0.00000  -0.00947  -0.00947   2.72314
   R18        3.05919   0.02445   0.00000   0.07847   0.07847   3.13766
   R19        2.07003   0.00338   0.00000   0.00407   0.00407   2.07410
   R20        2.07061   0.00304   0.00000   0.00366   0.00366   2.07427
   R21        2.69164   0.00320   0.00000   0.00331   0.00331   2.69496
   R22        1.83497   0.01029   0.00000   0.01003   0.01006   1.84503
   R23        3.30702   0.00496   0.00000   0.01007   0.01020   3.31722
   R24        3.33380  -0.00697   0.00000  -0.01044  -0.01061   3.32318
   R25        1.84109  -0.00612   0.00000  -0.00530  -0.00530   1.83579
   R26        1.85664  -0.00314   0.00000  -0.00278  -0.00278   1.85386
   R27        1.84054  -0.00557   0.00000  -0.00482  -0.00482   1.83572
   R28        1.84844  -0.00601   0.00000  -0.00527  -0.00527   1.84317
   R29        1.83198   0.00306   0.00000   0.00261   0.00261   1.83459
   R30        1.85758   0.00788   0.00000   0.00794   0.00790   1.86548
   R31        1.81414   0.03438   0.00000   0.02847   0.02847   1.84260
   R32        1.81414   0.01148   0.00000   0.00950   0.00950   1.82364
    A1        1.87875   0.00046   0.00000   0.00278   0.00301   1.88176
    A2        1.94165  -0.01229   0.00000  -0.02482  -0.02483   1.91682
    A3        1.91178   0.00486   0.00000   0.00545   0.00540   1.91718
    A4        1.89943   0.01801   0.00000   0.03397   0.03407   1.93350
    A5        1.87777  -0.01582   0.00000  -0.02688  -0.02717   1.85059
    A6        1.95185   0.00461   0.00000   0.00942   0.00961   1.96146
    A7        1.91394  -0.00169   0.00000  -0.00115  -0.00153   1.91241
    A8        1.88887  -0.00953   0.00000  -0.01717  -0.01837   1.87050
    A9        1.97880   0.01276   0.00000   0.01834   0.01777   1.99656
   A10        1.89290   0.03318   0.00000   0.08818   0.08835   1.98125
   A11        1.91895  -0.02297   0.00000  -0.05257  -0.05207   1.86688
   A12        1.86787  -0.01017   0.00000  -0.03112  -0.02985   1.83802
   A13        1.90281   0.00580   0.00000   0.01394   0.01364   1.91645
   A14        1.96009  -0.00843   0.00000  -0.02691  -0.02673   1.93336
   A15        1.92709   0.00686   0.00000   0.02457   0.02452   1.95161
   A16        1.89977   0.00584   0.00000   0.00660   0.00672   1.90649
   A17        1.86830  -0.00637   0.00000  -0.00645  -0.00667   1.86163
   A18        1.90334  -0.00361   0.00000  -0.01099  -0.01088   1.89246
   A19        1.97521   0.00216   0.00000   0.00666   0.00686   1.98207
   A20        1.90478   0.00243   0.00000  -0.00260  -0.00270   1.90208
   A21        1.92098   0.00291   0.00000   0.01457   0.01449   1.93547
   A22        1.90424  -0.00604   0.00000  -0.02083  -0.02077   1.88348
   A23        1.91445  -0.00620   0.00000  -0.01255  -0.01279   1.90166
   A24        1.83912   0.00489   0.00000   0.01503   0.01490   1.85402
   A25        2.05840  -0.00573   0.00000  -0.00366  -0.00401   2.05439
   A26        2.14635   0.00489   0.00000   0.00805   0.00822   2.15457
   A27        1.83664   0.00196   0.00000  -0.00189  -0.00174   1.83491
   A28        1.97704  -0.00683   0.00000  -0.01040  -0.01031   1.96673
   A29        1.94428   0.00408   0.00000  -0.00093  -0.00111   1.94318
   A30        1.88522  -0.01211   0.00000  -0.02059  -0.02039   1.86483
   A31        1.90892  -0.00225   0.00000  -0.00330  -0.00335   1.90557
   A32        1.88441   0.01903   0.00000   0.03730   0.03715   1.92155
   A33        1.85909  -0.00115   0.00000  -0.00030  -0.00049   1.85860
   A34        1.98887   0.11595   0.00000   0.22759   0.22759   2.21646
   A35        1.92351   0.00037   0.00000  -0.00225  -0.00214   1.92137
   A36        1.93821  -0.00178   0.00000  -0.00791  -0.00787   1.93035
   A37        1.92218  -0.01882   0.00000  -0.03116  -0.03119   1.89099
   A38        1.87483   0.00054   0.00000   0.00411   0.00391   1.87875
   A39        1.89774   0.01044   0.00000   0.02060   0.02044   1.91819
   A40        1.90631   0.01018   0.00000   0.01840   0.01811   1.92442
   A41        1.82847   0.00988   0.00000   0.01751   0.01763   1.84610
   A42        2.79358   0.00042   0.00000   0.00312   0.00302   2.79660
   A43        2.31189  -0.00319   0.00000  -0.00386  -0.00382   2.30807
   A44        1.85867   0.00276   0.00000   0.00542   0.00542   1.86409
   A45        1.86737   0.00966   0.00000   0.01896   0.01896   1.88633
   A46        1.88218   0.00332   0.00000   0.00653   0.00653   1.88870
   A47        1.84446   0.00100   0.00000   0.00195   0.00195   1.84641
   A48        1.71424   0.00664   0.00000   0.01175   0.01179   1.72603
   A49        1.83727   0.00367   0.00000   0.00702   0.00699   1.84426
   A50        1.37414  -0.00314   0.00000  -0.00573  -0.00579   1.36834
   A51        2.50712   0.00526   0.00000   0.01392   0.01374   2.52086
   A52        1.91114  -0.00762   0.00000  -0.01495  -0.01495   1.89619
   A53        1.78648   0.01125   0.00000   0.02208   0.02208   1.80856
    D1       -1.14283  -0.00355   0.00000  -0.01641  -0.01652  -1.15935
    D2        2.79614  -0.00569   0.00000  -0.01882  -0.01893   2.77721
    D3        0.96346  -0.00774   0.00000  -0.02516  -0.02494   0.93852
    D4       -1.38075  -0.00988   0.00000  -0.02757  -0.02736  -1.40811
    D5        3.08145  -0.00113   0.00000  -0.01007  -0.01021   3.07124
    D6        0.73724  -0.00327   0.00000  -0.01248  -0.01263   0.72461
    D7        2.10800   0.00529   0.00000   0.00986   0.00971   2.11771
    D8       -2.01432   0.00030   0.00000  -0.00315  -0.00328  -2.01760
    D9        0.02163  -0.00608   0.00000  -0.01642  -0.01654   0.00509
   D10        0.04087   0.00079   0.00000   0.00000   0.00001   0.04088
   D11        2.20174  -0.00420   0.00000  -0.01301  -0.01298   2.18876
   D12       -2.04550  -0.01059   0.00000  -0.02628  -0.02623  -2.07173
   D13       -2.03120   0.00597   0.00000   0.00566   0.00549  -2.02570
   D14        0.12967   0.00098   0.00000  -0.00735  -0.00750   0.12217
   D15        2.16561  -0.00541   0.00000  -0.02062  -0.02075   2.14486
   D16       -1.07430  -0.00139   0.00000  -0.00515  -0.00523  -1.07953
   D17        3.13343  -0.00117   0.00000  -0.00382  -0.00378   3.12965
   D18        1.01945  -0.00018   0.00000  -0.00085  -0.00092   1.01853
   D19        0.96312  -0.00706   0.00000  -0.01391  -0.01384   0.94928
   D20       -1.11233  -0.00684   0.00000  -0.01258  -0.01239  -1.12473
   D21        3.05687  -0.00585   0.00000  -0.00961  -0.00953   3.04734
   D22        3.04800   0.00767   0.00000   0.01619   0.01608   3.06409
   D23        0.97255   0.00789   0.00000   0.01753   0.01753   0.99008
   D24       -1.14143   0.00888   0.00000   0.02050   0.02039  -1.12104
   D25        0.91563  -0.01282   0.00000  -0.01829  -0.01836   0.89726
   D26        3.03955  -0.01734   0.00000  -0.04231  -0.04222   2.99734
   D27       -1.23334  -0.00848   0.00000  -0.01764  -0.01761  -1.25095
   D28        2.97747   0.02058   0.00000   0.07712   0.07670   3.05417
   D29       -1.18179   0.01606   0.00000   0.05310   0.05285  -1.12894
   D30        0.82850   0.02492   0.00000   0.07777   0.07746   0.90596
   D31       -1.23647   0.00927   0.00000   0.03792   0.03787  -1.19860
   D32        0.88745   0.00475   0.00000   0.01391   0.01402   0.90147
   D33        2.89774   0.01361   0.00000   0.03857   0.03863   2.93637
   D34       -0.91661   0.00690   0.00000   0.01977   0.01988  -0.89673
   D35       -3.09670   0.00826   0.00000   0.03112   0.03125  -3.06545
   D36        1.17023   0.00044   0.00000   0.01290   0.01297   1.18320
   D37       -2.97594   0.00003   0.00000  -0.01022  -0.01109  -2.98703
   D38        1.12715   0.00140   0.00000   0.00113   0.00028   1.12744
   D39       -0.88911  -0.00642   0.00000  -0.01708  -0.01799  -0.90710
   D40        1.27034   0.00596   0.00000   0.00575   0.00629   1.27662
   D41       -0.90975   0.00733   0.00000   0.01710   0.01766  -0.89210
   D42       -2.92601  -0.00049   0.00000  -0.00112  -0.00062  -2.92663
   D43       -1.76903   0.01413   0.00000   0.05707   0.05704  -1.71198
   D44        0.30619   0.02533   0.00000   0.09543   0.09581   0.40200
   D45        2.37571   0.01026   0.00000   0.06315   0.06280   2.43850
   D46       -0.69068   0.00245   0.00000   0.00999   0.01025  -0.68043
   D47       -2.84002   0.01283   0.00000   0.03796   0.03852  -2.80151
   D48        1.39064  -0.00859   0.00000  -0.02118  -0.02199   1.36866
   D49       -0.03342   0.00821   0.00000   0.00000  -0.00001  -0.03344
   D50       -2.15765   0.00798   0.00000   0.01378   0.01366  -2.14399
   D51        2.11915   0.00889   0.00000   0.01427   0.01406   2.13321
   D52       -2.14034   0.00234   0.00000  -0.00047  -0.00033  -2.14067
   D53        2.01862   0.00211   0.00000   0.01331   0.01334   2.03196
   D54        0.01223   0.00302   0.00000   0.01380   0.01375   0.02598
   D55        2.01443   0.00792   0.00000   0.01475   0.01502   2.02945
   D56       -0.10980   0.00768   0.00000   0.02853   0.02870  -0.08111
   D57       -2.11619   0.00860   0.00000   0.02903   0.02910  -2.08709
   D58       -0.96509   0.00326   0.00000   0.02730   0.02723  -0.93787
   D59        1.50507   0.00702   0.00000   0.03373   0.03371   1.53879
   D60        1.17840   0.00021   0.00000   0.00711   0.00712   1.18552
   D61       -2.63462   0.00397   0.00000   0.01355   0.01360  -2.62102
   D62       -3.04983  -0.00446   0.00000  -0.00591  -0.00585  -3.05568
   D63       -0.57966  -0.00070   0.00000   0.00052   0.00063  -0.57903
   D64       -1.46986  -0.00592   0.00000  -0.02446  -0.02431  -1.49417
   D65        0.59917   0.00107   0.00000   0.00203   0.00196   0.60113
   D66        2.65179   0.00257   0.00000   0.00050   0.00062   2.65240
   D67       -0.39444   0.00066   0.00000   0.01067   0.01058  -0.38387
   D68       -2.57860   0.00022   0.00000   0.00085   0.00080  -2.57780
   D69        1.65701   0.00769   0.00000   0.02326   0.02341   1.68042
   D70        2.75293   0.00021   0.00000   0.00338   0.00323   2.75616
   D71        2.06829   0.00543   0.00000   0.02031   0.02028   2.08857
   D72        0.32572   0.00150   0.00000   0.00258   0.00261   0.32833
   D73       -0.35892   0.00671   0.00000   0.01950   0.01966  -0.33926
   D74       -1.24955  -0.00012   0.00000   0.00526   0.00516  -1.24439
   D75        2.88966   0.00400   0.00000   0.00786   0.00804   2.89770
   D76        0.84096  -0.00234   0.00000  -0.00686  -0.00694   0.83402
   D77        2.13663   0.05234   0.00000   0.22705   0.22705   2.36369
   D78       -3.14106  -0.00135   0.00000  -0.00417  -0.00417   3.13795
   D79       -1.03179  -0.00587   0.00000  -0.01309  -0.01340  -1.04519
   D80        1.00917   0.00633   0.00000   0.01369   0.01399   1.02316
   D81        0.19685  -0.00268   0.00000  -0.00895  -0.00896   0.18789
   D82       -0.39411  -0.00053   0.00000   0.00258   0.00260  -0.39151
   D83       -2.68074   0.00382   0.00000   0.01772   0.01770  -2.66305
   D84        0.04124  -0.00316   0.00000  -0.00681  -0.00680   0.03445
   D85        1.32888  -0.00595   0.00000  -0.00899  -0.00904   1.31984
   D86        2.35501  -0.00302   0.00000  -0.01335  -0.01337   2.34164
   D87        0.99950   0.00926   0.00000   0.03646   0.03646   1.03596
         Item               Value     Threshold  Converged?
 Maximum Force            0.115948     0.000450     NO 
 RMS     Force            0.013586     0.000300     NO 
 Maximum Displacement     1.028767     0.001800     NO 
 RMS     Displacement     0.172679     0.001200     NO 
 Predicted change in Energy=-6.451180D-02
 GradGradGradGradGradGradGradGradGradGradGradGradGradGradGradGradGradGrad

                          Input orientation:                          
 ---------------------------------------------------------------------
 Center     Atomic      Atomic             Coordinates (Angstroms)
 Number     Number       Type             X           Y           Z
 ---------------------------------------------------------------------
      1          1           0        1.190688   -0.316927   -1.586298
      2          6           0        1.075795   -0.445076   -0.503526
      3          6           0       -0.537716    0.951161    0.932311
      4          6           0       -1.371877   -0.913259   -0.654476
      5          6           0       -1.676363    0.444921    0.016300
      6          8           0       -0.036083   -1.361839   -0.278104
      7          6           0        0.801788    0.921049    0.158910
      8          1           0       -0.827417    1.974860    1.285434
      9          1           0       -1.430509   -0.829772   -1.744667
     10          1           0       -2.590842    0.329236    0.613756
     11          1           0        1.615984    1.206468    0.836837
     12          6           0        2.308355   -1.130272    0.069419
     13          1           0        2.422815   -2.129394   -0.370244
     14          1           0        2.211584   -1.253925    1.155789
     15          8           0       -2.269075   -1.917940   -0.235221
     16          1           0       -1.895834   -2.278886    0.591619
     17          8           0        3.449255   -0.331373   -0.237009
     18          1           0        4.220185   -0.786137    0.140597
     19          8           0       -1.982161    1.411234   -1.003292
     20          1           0       -1.671295    2.288813   -0.694070
     21          8           0       -0.350820    0.183872    2.116723
     22          1           0       -1.225182   -0.072009    2.453884
     23          8           0        0.786035    1.901537   -0.896997
     24          1           0        1.712037    1.990957   -1.190021
     25          1           0       -0.917853   -3.407681    2.114862
     26          8           0       -0.872747   -2.443756    2.008495
     27          1           0       -0.264052   -2.287745    1.247147
     28          8           0       -1.145185    3.953351    0.611019
     29          1           0       -0.325324    3.427595    0.657487
     30          1           0       -1.513248    4.030087    1.499795
 ---------------------------------------------------------------------
                    Distance matrix (angstroms):
                    1          2          3          4          5
     1  H    0.000000
     2  C    1.096366   0.000000
     3  C    3.307389   2.571872   0.000000
     4  C    2.791173   2.496614   2.586461   0.000000
     5  C    3.371752   2.938824   1.546568   1.545091   0.000000
     6  O    2.075615   1.458610   2.658328   1.458501   2.457962
     7  C    2.174760   1.542790   1.547039   2.958227   2.527503
     8  H    4.191883   3.560714   1.120974   3.521494   2.161510
     9  H    2.675586   2.823116   3.336916   1.094955   2.187759
    10  H    4.422412   3.910512   2.168776   2.153620   1.098457
    11  H    2.893647   2.194533   2.170880   3.955322   3.477468
    12  C    2.156875   1.522157   3.630023   3.757024   4.285094
    13  H    2.506384   2.160822   4.466678   3.994929   4.855901
    14  H    3.072334   2.167390   3.531430   4.029182   4.393250
    15  O    4.044578   3.664625   3.548588   1.410717   2.449017
    16  H    4.256668   3.659615   3.520476   1.921514   2.792541
    17  O    2.630953   2.391081   4.348349   4.874032   5.190256
    18  H    3.518548   3.227755   5.126660   5.649731   6.024967
    19  O    3.659700   3.612028   2.458586   2.428454   1.437651
    20  H    3.972015   3.880330   2.391533   3.216285   1.976003
    21  O    4.042204   3.049019   1.423550   3.150523   2.497397
    22  H    4.713755   3.765628   1.958231   3.223526   2.532311
    23  O    2.358063   2.396950   2.449877   3.555064   3.003206
    24  H    2.398994   2.609662   3.262953   4.269873   3.914932
    25  H    5.262821   4.428049   4.532376   3.754665   4.452173
    26  O    4.658724   3.755235   3.577133   3.111746   3.599875
    27  H    3.745504   2.873235   3.265658   2.594736   3.313166
    28  O    5.340391   5.051843   3.079836   5.033564   3.597905
    29  H    4.621072   4.278863   2.500673   4.653981   3.336581
    30  H    5.977606   5.544685   3.279251   5.394214   3.883398
                    6          7          8          9         10
     6  O    0.000000
     7  C    2.470746   0.000000
     8  H    3.768875   2.243632   0.000000
[...]
 .00051162,0.00010598,-0.00014916,-0.00010367,-0.00002491,0.00017221,-0
 .00088549,0.00031862,-0.00058854,0.00026934,0.00080135,-0.00011261,0.0
 0002193,0.00012038,-0.00018380,-0.00038158,-0.00002677,-0.00001247,-0.
 00161257,0.00005175,0.00098101,0.00004354,-0.00033410,0.00039895,0.013
 09709,-0.03719713,0.01470518,0.02240272,0.04517169,-0.00013025,-0.0006
 6849,-0.00076432,-0.00093207,-0.00064349,0.00274703,-0.00187732,0.0038
 6042,-0.00213551,-0.00008960,0.00012919,0.00027033,0.00008081,0.000384
 14,-0.00025196,0.00041648,-0.00006317,-0.00080453,0.02625373,0.0047036
 3,-0.01236000,-0.00045057,0.00002203,0.00010096,-0.00001503,-0.0000084
 4,-0.00004218,-0.00000984,-0.00004694,-0.00005377,0.00055064,-0.001300
 98,0.00040675,0.00055724,0.00047105,-0.00007608,-0.00005949,-0.0002152
 3,-0.00006621,-0.00017348,0.00014006,-0.00015864,0.00002348,-0.0000705
 8,-0.00009527,-0.00000084,0.00001379,0.00002737,0.00010500,-0.00089002
 ,-0.00060394,-0.00010144,-0.00010603,0.00005108,-0.00080826,-0.0004606
 3,0.00005511,0.00040518,-0.00004010,-0.00001811,0.00115572,0.00029715,
 -0.00090789,0.00013123,0.00040892,-0.00022200,0.14783945,0.02889142,-0
 .07623872,-0.17342511,-0.03404100,0.09129962,-0.00010089,0.00002707,-0
 .00002471,0.00041023,0.00002163,0.00014960,0.00016491,-0.00020362,-0.0
 0009553,0.00315298,0.00247261,-0.00054619,-0.00042477,-0.00005351,-0.0
 0001465,-0.00249266,-0.00016102,-0.00016597,0.00003645,-0.00010568,0.0
 0000083,-0.00006917,-0.00008658,0.00001715,-0.00040350,-0.00016611,0.0
 0006838,-0.00002240,0.00005731,0.00002641,-0.00003971,-0.00004330,-0.0
 0004340,-0.00018387,-0.00063249,0.00063445,-0.00008610,0.00005606,0.00
 016038,-0.00010727,-0.00016877,-0.00036559,0.00027789,-0.00363154,0.00
 099458,-0.00495580,0.00537903,-0.00006473,0.00014769,0.00046828,-0.000
 27574,-0.00012528,-0.00005002,0.00004366,-0.00004757,-0.00018708,-0.00
 005074,0.00007130,0.00007373,0.00001606,-0.00057844,-0.00137240,0.0002
 3052,-0.00007674,0.00019334,0.00005481,-0.00009353,0.00009420,-0.00002
 416,0.00002470,-0.00003645,0.00002455,0.17499916,0.00039971,0.00043800
 ,-0.00020848,-0.00185689,-0.00110257,-0.00017124,-0.00011853,-0.000253
 85,-0.00056499,0.00194981,-0.00150723,0.00073246,0.00013084,-0.0003246
 8,-0.00013536,0.00043026,0.00233828,-0.00187229,0.00019016,-0.00038746
 ,-0.00003156,0.00001766,0.00001869,0.00017556,-0.00023406,0.00024050,-
 0.00021044,-0.00008550,0.00002183,0.00010468,0.00001835,0.00007841,0.0
 0007151,-0.00048622,0.00002057,0.00046439,-0.00001296,-0.00000936,-0.0
 0006385,-0.00010216,-0.00004091,-0.00020106,-0.00141156,0.00066676,-0.
 00083679,0.00400536,-0.00118363,0.00114324,0.00053432,0.00015730,-0.00
 014061,-0.00005542,0.00003292,0.00002041,-0.00014793,0.00045709,0.0000
 5026,-0.00001178,-0.00015327,-0.00003229,-0.00094445,-0.00162384,0.000
 94330,-0.00003907,0.00056203,0.00003942,-0.00004167,0.00050534,0.00000
 617,-0.00007420,-0.00014309,0.00000265,-0.12857409,0.17978597,-0.00024
 246,-0.00017354,0.00004767,0.00129994,0.00053548,0.00017455,0.00003910
 ,-0.00031934,0.00070956,-0.00039472,0.00169989,-0.00035900,-0.00017293
 ,0.00007021,0.00022206,-0.00058417,-0.00072308,-0.00086393,-0.00018672
 ,0.00008191,0.00015443,-0.00005308,0.00001999,-0.00015785,0.00004173,-
 0.00011231,0.00006877,0.00010813,0.00000784,-0.00010324,-0.00005565,-0
 .00009333,-0.00008521,0.00020577,-0.00004524,0.00060694,0.00008316,-0.
 00004506,-0.00009821,-0.00004599,-0.00002737,-0.00019588,0.00060853,-0
 .00169453,-0.00100977,-0.00330238,0.00318892,0.00241187,-0.00021849,-0
 .00001258,-0.00024007,-0.00003520,-0.00000784,0.00007561,0.00002033,-0
 .00028576,-0.00019920,0.00004367,0.00006935,0.00003903,0.00008897,0.00
 099204,-0.00034754,-0.00000176,-0.00012029,-0.00011123,0.00003017,-0.0
 0027183,-0.00011593,0.00004730,0.00008269,0.00002311,-0.17738817,0.174
 02114,0.21688567,-0.00006240,-0.00020402,0.00011093,0.00002354,-0.0001
 3605,0.00006067,-0.00022332,0.00042894,-0.00202114,-0.00903637,-0.0047
 3414,-0.00062237,-0.00015532,-0.00055256,0.00067392,0.00381751,-0.0017
 6478,0.00326660,0.00000396,0.00031801,-0.00014462,0.00019511,-0.000166
 65,0.00051669,0.00133405,0.00081865,-0.00015450,0.00042415,-0.00000043
 ,-0.00035767,0.00018340,0.00009611,0.00005156,0.00029053,0.00084255,-0
 .00145170,0.00004255,-0.00004575,0.00002809,0.00035747,0.00018792,0.00
 059554,0.00150630,0.00804341,-0.01176887,-0.00140689,-0.00245424,0.006
 61722,-0.00021540,-0.00057132,0.00054289,0.00019983,0.00004795,-0.0001
 2456,0.00049991,0.00076036,0.00003087,-0.00030021,-0.00023060,-0.00010
 518,0.00290774,-0.00217581,0.00112380,-0.00032558,-0.00160297,-0.00051
 184,0.00012737,-0.00024574,0.00022732,-0.00002367,0.00005208,-0.000044
 12,-0.18067707,0.09654474,0.17306094,0.31647730,-0.00034085,-0.0002079
 0,0.00021834,0.00135417,0.00037980,-0.00004110,-0.00008381,0.00174302,
 -0.00489113,0.00046743,0.00082385,-0.00207430,-0.00031079,0.00064774,-
 0.00074525,-0.00223836,-0.00105216,0.00279165,0.00065759,0.00022477,-0
 .00038678,0.00008703,-0.00083614,0.00091707,-0.00006943,-0.00014878,0.
 00026418,-0.00033643,-0.00004590,0.00021103,0.00007482,-0.00005419,-0.
 00006047,0.00037883,-0.00043722,0.00004552,-0.00013548,0.00013530,0.00
 017014,0.00002032,-0.00015342,-0.00006943,0.00268842,0.00263463,0.0065
 9660,-0.00162156,-0.00991582,-0.00218038,-0.00042713,0.00027391,0.0000
 3611,0.00001392,-0.00005729,-0.00002043,0.00051110,-0.00085259,0.00092
 942,-0.00014425,0.00048711,-0.00006589,-0.00271302,-0.01320456,0.00122
 762,-0.00010814,0.00053311,0.00119830,-0.00047661,-0.00046157,0.000582
 87,0.00011810,0.00002194,0.00000799,0.14322728,-0.15600517,-0.17784681
 ,0.05952195,0.53256440,0.00067423,0.00066231,-0.00019491,-0.00299786,-
 0.00219271,-0.00082400,-0.00056987,0.00060662,-0.00322805,-0.00587955,
 -0.00780309,0.00053966,0.00070722,-0.00051091,-0.00034843,0.00611374,0
 .00452603,-0.00274932,0.00044274,-0.00048169,-0.00031004,0.00024777,-0
 .00020608,0.00078554,0.00090885,0.00125863,-0.00037119,-0.00014743,0.0
 0008503,0.00013322,0.00022937,0.00021708,0.00016564,-0.00045675,0.0005
 2900,-0.00067305,-0.00006771,0.00003114,0.00006057,0.00009211,-0.00002
 435,0.00019027,-0.00585253,0.01109724,-0.01463899,0.00780776,-0.004270
 72,0.00167918,0.00067520,-0.00000769,0.00036856,0.00007123,0.00002159,
 -0.00012014,0.00014650,0.00113581,0.00066006,-0.00025044,-0.00030787,-
 0.00017558,-0.00066788,-0.00479025,0.00508108,-0.00026563,0.00204647,-
 0.00031288,-0.00014745,0.00062542,0.00043607,-0.00012255,-0.00025782,-
 0.00005556,0.19096042,-0.14087356,-0.21409821,-0.19238865,0.17472515,0
 .25572016,-0.00012994,0.00005950,-0.00007308,0.00023689,-0.00028943,0.
 00066653,-0.00041250,0.00098158,0.00079872,0.00305245,0.00140287,-0.00
 178690,0.00058405,0.00106315,-0.00071792,-0.00243219,0.00020966,-0.000
 75695,0.00012521,-0.00057493,0.00020179,-0.00007553,0.00013852,-0.0003
 9266,-0.00041797,0.00001598,0.00010865,-0.00059590,0.00011106,0.000323
 16,-0.00012853,-0.00010699,-0.00005379,-0.00026299,-0.00060767,0.00139
 401,-0.00001052,0.00003659,-0.00019416,-0.00062980,0.00005194,-0.00046
 527,-0.00027170,-0.00031995,0.00199846,-0.00336105,-0.00317091,-0.0037
 7320,0.00035473,0.00044780,-0.00051250,-0.00015468,-0.00000184,0.00009
 504,-0.00035162,-0.00063745,0.00027371,0.00016087,0.00016547,0.0000895
 1,-0.00480841,-0.00290359,-0.00094880,0.00022551,0.00468200,0.00158634
 ,-0.00018607,0.00022548,-0.00009495,0.00000243,-0.00005987,0.00005106,
 0.01119217,0.02992499,0.00703607,-0.13598834,-0.20014136,0.00061822,0.
 13428767,-0.00010907,-0.00035405,-0.00008413,0.00017621,0.00101916,0.0
 0117832,-0.00017441,-0.00433255,0.00967429,0.00159441,0.00402331,0.001
 39860,0.00130690,0.00002267,0.00060108,-0.00065467,-0.00297630,0.00016
 300,-0.00139166,-0.00014912,0.00073647,-0.00035602,0.00163588,-0.00183
 328,-0.00010026,-0.00052373,-0.00009621,0.00024979,-0.00003906,-0.0000
 0171,-0.00027505,-0.00008295,0.00000417,-0.00007593,0.00038538,-0.0003
 1342,0.00022922,-0.00019324,-0.00022459,-0.00015579,0.00036383,0.00022
 189,0.00032049,-0.00436243,0.00307021,-0.00308795,0.00468277,-0.004797
 89,0.00001574,-0.00051742,-0.00003293,0.00000489,0.00004888,0.00002139
 ,-0.00108146,0.00016615,-0.00151746,0.00040293,-0.00043052,0.00021496,
 0.00210308,0.00393347,-0.00573391,0.00055497,-0.00173381,-0.00266951,0
 .00079210,0.00017160,-0.00107532,-0.00008666,0.00018960,0.00001107,-0.
 01653773,-0.02260660,0.00103567,-0.15293981,-0.35690752,-0.03597577,0.
 16940519,0.37847709,-0.00057040,-0.00058460,0.00019495,0.00271578,0.00
 214197,0.00002340,0.00022935,0.00138590,0.00343184,-0.00272941,0.00243
 816,-0.00269272,0.00001402,0.00116953,0.00012056,-0.00097383,-0.002478
 98,0.00242941,-0.00043323,0.00057220,0.00022966,-0.00011430,0.00043749
 ,-0.00082206,0.00035302,-0.00023774,0.00022673,-0.00001200,0.00002103,
 -0.00006762,-0.00015275,-0.00015617,-0.00010192,0.00041303,-0.00015739
 ,0.00008697,0.00006834,-0.00004483,-0.00005769,0.00017261,0.00006111,0
 .00010127,0.00108625,0.00027680,0.00058074,-0.00400511,-0.00309746,-0.
 00176471,-0.00053185,-0.00016673,-0.00012750,-0.00000849,-0.00000253,0
 .00007496,-0.00014180,-0.00069861,-0.00038841,0.00014062,0.00012923,0.
 00015671,0.00066896,0.00097835,-0.00859725,0.00062587,-0.00377742,0.00
 043513,0.00021660,-0.00049931,-0.00034865,0.00007745,0.00020118,0.0000
 2816,-0.01431462,-0.03243217,-0.00342528,0.02273565,-0.00160927,-0.027
 77398,-0.00543615,0.03616999,0.03808801,0.00011207,-0.00004338,-0.0002
 0758,-0.00068806,-0.00023066,-0.00074256,-0.00066154,-0.00028057,0.000
 12946,-0.00120559,0.00022321,0.00023030,-0.00126755,0.00176541,-0.0024
 6327,0.00163233,0.00044537,0.00018090,-0.00152505,-0.00310018,0.003678
 71,-0.00067530,0.00047142,-0.00013879,0.00001623,0.00004920,0.00016663
 ,0.00023094,-0.00006686,0.00034024,0.00008853,0.00045295,-0.00039862,0
 .00003380,0.00002608,0.00017287,-0.00012241,0.00015491,0.00001480,-0.0
 0000148,0.00001457,-0.00004691,0.00047503,-0.00027249,-0.00006447,-0.0
 0020689,0.00011415,-0.00003372,-0.00001085,0.00024427,0.00003010,0.000
 05434,0.00002893,-0.00002372,0.00205580,-0.00628149,-0.00113122,-0.004
 71325,-0.00006437,0.00343798,0.00084145,0.00046289,-0.00009240,-0.0001
 2327,0.00012050,-0.00014529,-0.00513376,0.00879940,0.00036941,0.000265
 70,0.00162715,-0.00049131,-0.00005430,-0.00004864,0.00000827,0.0001880
 5,0.00004167,0.00002314,-0.00013065,-0.00009617,0.00001067,0.42855373,
 0.00002833,0.00002464,-0.00009378,-0.00032004,0.00011490,0.00052551,-0
 .00072382,0.00274024,0.00101325,-0.00007803,0.00126468,0.00090241,-0.0
 0028372,0.00259293,-0.00372727,0.00084230,-0.00093202,-0.00024064,-0.0
 0036215,0.00090583,-0.00107352,0.00079939,-0.00271693,-0.00048305,0.00
 002301,0.00006889,0.00009018,-0.00011410,-0.00057707,0.00066769,0.0002
 1931,-0.00025021,0.00025225,-0.00055614,-0.00003660,-0.00010923,0.0001
 5014,-0.00011573,-0.00001839,0.00002366,0.00004457,0.00001088,-0.00034
 453,-0.00148513,0.00002376,-0.00004885,0.00042152,-0.00025956,0.000687
 73,0.00006302,-0.00009647,-0.00011452,-0.00009621,0.00002717,-0.004081
 38,-0.01181493,-0.00332539,0.00238089,-0.00250962,0.00239039,0.0006649
 4,-0.00286310,0.00180569,0.00014620,0.00018669,-0.00048690,0.00731236,
 -0.00177137,-0.00201732,0.00026340,-0.00276055,0.00034446,-0.00006068,
 0.00025432,-0.00011524,0.00006513,-0.00076599,0.00035655,-0.00003798,0
 .00081517,-0.00012777,-0.13752609,0.23860109,-0.00009091,0.00013336,0.
 00021786,-0.00019587,-0.00033434,0.00003879,0.00071121,-0.00320679,-0.
 00192373,0.00036399,-0.00043496,0.00000342,-0.00165201,0.00115942,-0.0
 0235173,0.00008534,-0.00025187,0.00017138,0.00157533,0.00129330,-0.001
 35850,-0.00029973,0.00185513,0.00110179,-0.00005052,0.00017956,0.00025
 769,-0.00001721,-0.00042148,0.00050807,0.00007633,-0.00038037,0.000302
 75,0.00008156,0.00006878,-0.00002730,-0.00003611,0.00001896,-0.0000013
 9,0.00002082,-0.00004537,0.00003851,0.00002357,0.00008954,0.00015870,-
 0.00005111,-0.00001211,-0.00012917,-0.00007919,-0.00003816,0.00011626,
 0.00002158,-0.00001092,-0.00003554,-0.00160599,-0.00846261,0.00270682,
 0.00293309,0.00494629,-0.00522604,-0.00014858,0.00241154,-0.00017319,-
 0.00024326,-0.00050558,0.00000446,0.00127244,-0.00354034,0.00339615,0.
 00012935,-0.00008772,0.00009604,0.00000525,0.00000036,-0.00003296,0.00
 008314,0.00027372,0.00016554,-0.00003375,-0.00048367,-0.00014977,0.008
 91745,0.26486048,0.44331131,-0.00015704,0.00011065,0.00029478,0.000739
 34,-0.00008326,0.00127080,0.00188375,-0.00146077,-0.00098794,0.0016108
 7,-0.00059122,-0.00007716,0.00068765,-0.00213048,0.00213565,-0.0018209
 8,-0.00080172,-0.00025545,0.00298936,0.00411162,-0.00602501,0.00020699
 ,0.00007822,0.00101257,-0.00004850,-0.00001164,-0.00009742,-0.00020430
 ,0.00027509,-0.00050618,-0.00004679,-0.00075918,0.00071357,-0.00010789
 ,-0.00007224,-0.00024992,0.00016566,-0.00018998,-0.00001101,0.00001085
 ,-0.00001986,0.00005749,-0.00048284,0.00033549,0.00008001,0.00019401,-
 0.00012002,0.00000134,0.00007946,-0.00024536,-0.00002980,-0.00007072,-
 0.00005565,0.00002188,0.00055055,0.00407739,-0.00041814,-0.00613601,-0
 .00457865,-0.00021977,-0.00113491,0.00071312,-0.00007106,-0.00005678,-
 0.00023657,0.00021731,-0.00457320,-0.00361577,0.00483929,-0.00086952,-
 0.00091483,0.00088053,0.00006132,0.00006567,-0.00002338,-0.00015519,0.
 00003811,0.00003034,0.00011631,-0.00007257,-0.00006848,-0.35268225,0.1
 7968488,0.09720809,0.35016513,0.00012077,-0.00010115,-0.00018615,-0.00
 030704,-0.00031455,-0.00078747,-0.00073443,-0.00088793,0.00140543,-0.0
 0094537,-0.00050762,-0.00021820,-0.00068321,-0.00107799,0.00023055,0.0
 0084175,0.00090458,0.00024535,-0.00119701,-0.00542034,0.00380563,-0.00
 045368,-0.00004363,0.00044356,0.00001833,-0.00002209,0.00003020,0.0003
 1098,0.00025761,-0.00015980,-0.00013221,0.00096710,-0.00084079,0.00037
 608,0.00000433,0.00015008,-0.00017852,0.00017810,0.00002816,-0.0000331
 1,-0.00000188,-0.00004379,0.00048787,0.00054679,-0.00010597,-0.0000927
 3,-0.00014552,0.00014140,-0.00048171,0.00012822,0.00006206,0.00011920,
 0.00012672,-0.00002805,0.00229623,-0.00063405,-0.00056023,-0.00559745,
 0.00289559,0.00150594,0.00041604,0.00095732,-0.00106849,-0.00002528,0.
 00016286,0.00011186,-0.00038672,-0.00442635,-0.00042601,-0.00082735,0.
 00476109,-0.00113704,-0.00000643,-0.00017968,0.00007731,0.00006022,0.0
 0038044,-0.00021692,-0.00005095,-0.00037650,0.00011774,0.15152216,-0.1
 0807886,-0.06833139,-0.16437807,0.11916322,0.00009103,-0.00009782,-0.0
 0014532,-0.00012071,-0.00004029,-0.00013160,-0.00090105,0.00233460,0.0
 0087690,-0.00035636,0.00022398,0.00025508,0.00075995,-0.00054586,0.000
 17586,0.00026449,0.00007771,-0.00010364,-0.00253349,-0.00020391,0.0012
 7673,0.00065365,-0.00023869,-0.00115695,0.00002681,-0.00010137,-0.0001
 2260,0.00000395,0.00012866,-0.00018123,-0.00008390,0.00074745,-0.00057
 020,-0.00001911,-0.00000658,0.00004477,-0.00000462,0.00000148,0.000006
 99,-0.00001462,0.00002610,-0.00002452,0.00002823,-0.00017282,-0.000140
 38,0.00000684,0.00004526,0.00005383,0.00004955,0.00001995,-0.00008507,
 -0.00000461,0.00001723,0.00002892,0.00003000,-0.00016480,-0.00150494,0
 .00007786,0.00154851,0.00272119,0.00021508,-0.00143123,0.00019646,0.00
 016031,0.00023922,-0.00004253,0.00321097,0.00199796,-0.00540917,0.0000
 3344,-0.00072997,-0.00023174,-0.00001151,0.00000116,0.00001679,-0.0000
 2577,-0.00017010,-0.00007631,0.00000182,0.00028100,0.00008076,0.047766
 22,-0.05240646,-0.06371565,-0.08876528,0.06885537,0.08022339,0.0000015
 7,0.00000451,0.00001101,-0.00001525,0.00000404,0.00001696,-0.00016399,
 -0.00005202,-0.00015500,0.00006887,0.00008429,0.00017739,-0.00002750,0
 .00012635,-0.00085263,-0.00000162,-0.00014756,-0.00001473,-0.00012452,
 0.00053519,-0.00005760,0.00030755,-0.00008817,0.00010703,-0.00000717,0
 .00003530,0.00003740,-0.00009030,-0.00018324,0.00018242,-0.00004429,0.
 00008536,-0.00004055,0.00000723,0.00004034,-0.00001146,0.00000619,-0.0
 0002240,-0.00000482,0.00000034,-0.00000191,0.00001005,-0.00009392,-0.0
 0019390,0.00002563,0.00001165,0.00004113,-0.00005515,-0.00000099,-0.00
 006409,-0.00002343,-0.00000845,0.00001639,0.00001124,-0.00018130,-0.00
 216245,0.00048299,0.00110475,0.00362235,-0.00124182,-0.00000390,-0.000
 09963,0.00021225,0.00004507,-0.00008538,-0.00004855,-0.00095622,0.0001
 0471,-0.00071338,-0.00015585,0.00031008,0.00013362,0.00000028,0.000033
 23,-0.00001695,-0.00000900,-0.00005353,0.00006548,0.00001013,0.0000393
 0,-0.00003578,-0.06534578,-0.04863963,-0.10900429,0.00908571,0.0199416
 4,0.03946082,0.05658074,-0.00002217,0.00006154,0.00008026,-0.00014569,
 -0.00025147,-0.00008964,0.00040119,-0.00204310,-0.00038706,0.00002682,
 -0.00041402,0.00000590,-0.00084975,0.00066038,-0.00090207,0.00011682,0
 .00008102,0.00011991,0.00036472,0.00003306,-0.00013083,-0.00008758,-0.
 00014325,0.00082704,-0.00003581,0.00009506,0.00011950,0.00003026,-0.00
 012260,0.00015772,0.00004572,-0.00002894,-0.00001333,0.00014510,0.0000
 3627,0.00002187,-0.00005835,0.00004469,0.00000730,0.00000200,-0.000024
 46,0.00000374,0.00012571,0.00025152,0.00002158,-0.00003191,-0.00007016
 ,-0.00000546,-0.00015959,0.00000287,0.00006462,0.00004057,0.00001852,-
 0.00001928,-0.00056690,-0.00229175,0.00063325,0.00141935,0.00130833,-0
 .00140631,-0.00002059,0.00128665,-0.00035117,-0.00012255,-0.00027370,0
 .00004908,0.00016871,0.00004277,0.00070408,0.00012494,0.00010278,0.000
 00417,0.00000696,-0.00005668,0.00001169,0.00003686,0.00025619,-0.00000
 463,-0.00001885,-0.00034914,-0.00002969,-0.01855334,-0.11132418,-0.190
 74275,-0.00915237,-0.00921586,-0.02023575,0.02676972,0.12232766,0.0000
 1672,-0.00001696,-0.00004377,0.00000036,0.00007236,-0.00000426,-0.0001
 3636,0.00040887,0.00008255,-0.00012230,0.00011173,0.00006367,0.0001692
 8,-0.00048735,0.00030841,0.00003851,0.00005629,-0.00003190,-0.00007529
 ,-0.00046936,0.00031560,0.00001378,0.00007687,0.00012971,0.00000498,-0
 .00001621,-0.00004409,0.00003518,0.00004120,-0.00006335,-0.00003025,0.
 00004373,-0.00003640,-0.00002750,-0.00002215,0.00001752,0.00000219,0.0
 0000471,-0.00000159,-0.00000106,0.00001114,-0.00001150,0.00001282,-0.0
 0003602,-0.00004070,0.00000050,0.00000543,0.00002285,0.00002482,0.0000
 2912,-0.00002477,-0.00000432,0.00000168,0.00001015,0.00043508,0.002325
 16,0.00074963,-0.00119472,-0.00250400,-0.00087065,-0.00001612,-0.00015
 520,-0.00011785,0.00004095,0.00013510,0.00004835,-0.00002841,0.0007820
 7,0.00008967,-0.00003661,-0.00011577,-0.00001913,-0.00000135,-0.000002
 00,0.00000746,-0.00000482,-0.00003436,-0.00003493,-0.00000300,0.000057
 69,0.00002830,-0.05949726,-0.20868967,-0.37747058,-0.01095766,-0.00310
 035,-0.01231579,0.07134186,0.21148625,0.38925736\\-0.00000165,-0.00000
 627,0.00000342,0.00568267,-0.00566970,0.01067673,0.00252640,-0.0040825
 4,0.00707930,-0.00126903,-0.00209851,0.00268652,0.00125704,0.00201528,
 -0.00256563,-0.00256847,0.00459791,-0.00790575,-0.00564044,0.00524998,
 -0.00998876,0.00000094,-0.00000332,-0.00002564,0.00000011,-0.00001374,
 0.00000556,-0.00000122,-0.00000849,0.00000361,0.00000270,0.00000077,-0
 .00000683,0.00001081,0.00000365,0.00001074,-0.00000049,-0.00000193,-0.
 00000077,0.00000227,-0.00000081,-0.00000096,0.00001343,0.00005519,0.00
 006202,-0.00000920,-0.00003444,-0.00003036,-0.00000904,-0.00000689,-0.
 00001000,-0.00000098,-0.00000232,-0.00000170,-0.00000025,-0.00002097,0
 .00001022,0.00000872,0.00000932,-0.00000157,-0.00001409,-0.00002007,0.
 00002324,0.00001086,-0.00000259,0.00000263,-0.00000967,0.00000967,-0.0
 0001276,0.00000312,-0.00000065,-0.00000807,0.00001642,0.00002013,0.000
 00910,-0.00005104,-0.00003011,0.00001483,0.00004043,0.00004847,-0.0000
 1254,0.00001338,-0.00002082,0.00000188,-0.00001653,0.00001198,-0.00000
 669,0.00000279,0.00000181,-0.00001178\\\@


 EDUCATION IS NOT TRAINING BUT RATHER THE PROCESS THAT EQUIPS YOU TO
 ENTERTAIN YOURSELF, A FRIEND, OR AN IDEA.  -- WALLACE STERLING
 Job cpu time:       0 days  0 hours 38 minutes 58.2 seconds.
 File lengths (MBytes):  RWF=    221 Int=      0 D2E=      0 Chk=      6 Scr=      1
 Normal termination of Gaussian 09 at Tue Jan 17 02:30:34 2017.
