 Entering Gaussian System, Link 0=g09
 Initial command:
 /global/software/gaussian/g09.d01/l1.exe "/home/iawad/Gau-16347.inp" -scrdir="/home/iawad/"
 Entering Link 1 = /global/software/gaussian/g09.d01/l1.exe PID=     16348.
  
 Copyright (c) 1988,1990,1992,1993,1995,1998,2003,2009,2013,
            Gaussian, Inc.  All Rights Reserved.
  
 This is part of the Gaussian(R) 09 program.  It is based on
 the Gaussian(R) 03 system (copyright 2003, Gaussian, Inc.),
 the Gaussian(R) 98 system (copyright 1998, Gaussian, Inc.),
 the Gaussian(R) 94 system (copyright 1995, Gaussian, Inc.),
 the Gaussian 92(TM) system (copyright 1992, Gaussian, Inc.),
 the Gaussian 90(TM) system (copyright 1990, Gaussian, Inc.),
 the Gaussian 88(TM) system (copyright 1988, Gaussian, Inc.),
 the Gaussian 86(TM) system (copyright 1986, Carnegie Mellon
 University), and the Gaussian 82(TM) system (copyright 1983,
 Carnegie Mellon University). Gaussian is a federally registered
 trademark of Gaussian, Inc.
  
 This software contains proprietary and confidential information,
 including trade secrets, belonging to Gaussian, Inc.
  
 This software is provided under written license and may be
 used, copied, transmitted, or stored only in accord with that
 written license.
  
 The following legend is applicable only to US Government
 contracts under FAR:
  
                    RESTRICTED RIGHTS LEGEND
  
 Use, reproduction and disclosure by the US Government is
 subject to restrictions as set forth in subparagraphs (a)
 and (c) of the Commercial Computer Software - Restricted
 Rights clause in FAR 52.227-19.
  
 Gaussian, Inc.
 340 Quinnipiac St., Bldg. 40, Wallingford CT 06492
  
  
 ---------------------------------------------------------------
 Warning -- This program may not be used in any manner that
 competes with the business of Gaussian, Inc. or will provide
 assistance to any competitor of Gaussian, Inc.  The licensee
 of this program is prohibited from giving any competitor of
 Gaussian, Inc. access to this program.  By using this program,
 the user acknowledges that Gaussian, Inc. is engaged in the
 business of creating and licensing software in the field of
 computational chemistry and represents and warrants to the
 licensee that it is not a competitor of Gaussian, Inc. and that
 it will not use this program in any manner prohibited above.
 ---------------------------------------------------------------
  

 Cite this work as:
 Gaussian 09, Revision D.01,
 M. J. Frisch, G. W. Trucks, H. B. Schlegel, G. E. Scuseria, 
 M. A. Robb, J. R. Cheeseman, G. Scalmani, V. Barone, B. Mennucci, 
 G. A. Petersson, H. Nakatsuji, M. Caricato, X. Li, H. P. Hratchian, 
 A. F. Izmaylov, J. Bloino, G. Zheng, J. L. Sonnenberg, M. Hada, 
 M. Ehara, K. Toyota, R. Fukuda, J. Hasegawa, M. Ishida, T. Nakajima, 
 Y. Honda, O. Kitao, H. Nakai, T. Vreven, J. A. Montgomery, Jr., 
 J. E. Peralta, F. Ogliaro, M. Bearpark, J. J. Heyd, E. Brothers, 
 K. N. Kudin, V. N. Staroverov, T. Keith, R. Kobayashi, J. Normand, 
 K. Raghavachari, A. Rendell, J. C. Burant, S. S. Iyengar, J. Tomasi, 
 M. Cossi, N. Rega, J. M. Millam, M. Klene, J. E. Knox, J. B. Cross, 
 V. Bakken, C. Adamo, J. Jaramillo, R. Gomperts, R. E. Stratmann, 
 O. Yazyev, A. J. Austin, R. Cammi, C. Pomelli, J. W. Ochterski, 
 R. L. Martin, K. Morokuma, V. G. Zakrzewski, G. A. Voth, 
 P. Salvador, J. J. Dannenberg, S. Dapprich, A. D. Daniels, 
 O. Farkas, J. B. Foresman, J. V. Ortiz, J. Cioslowski, 
 and D. J. Fox, Gaussian, Inc., Wallingford CT, 2013.
 
 ******************************************
 Gaussian 09:  ES64L-G09RevD.01 24-Apr-2013
                19-Jan-2017 
 ******************************************
 %NPROCS=22
 Will use up to   22 processors via shared memory.
 ------------------------------------------------------
 # opt=(modredundant,MaxCycle=1000) freq B3LYP/6-31G(d)
 ------------------------------------------------------
 1/6=1000,14=-1,18=120,19=15,26=3,38=1/1,3;
 2/9=110,12=2,17=6,18=5,40=1/2;
 3/5=1,6=6,7=1,11=2,16=1,25=1,30=1,71=1,74=-5/1,2,3;
 4//1;
 5/5=2,38=5/2;
 6/7=2,8=2,9=2,10=2,28=1/1;
 7//1,2,3,16;
 1/6=1000,14=-1,18=20,19=15,26=3/3(2);
 2/9=110/2;
 99//99;
 2/9=110/2;
 3/5=1,6=6,7=1,11=2,16=1,25=1,30=1,71=1,74=-5/1,2,3;
 4/5=5,16=3,69=1/1;
 5/5=2,38=5/2;
 7//1,2,3,16;
 1/6=1000,14=-1,18=20,19=15,26=3/3(-5);
 2/9=110/2;
 6/7=2,8=2,9=2,10=2,19=2,28=1/1;
 99/9=1/99;
 ------------------------
 boat4_Beta_B3LYP_6-31G_d
 ------------------------
 Symbolic Z-matrix:
 Charge =  0 Multiplicity = 1
 O                     0.00254  -1.66653  -0.47866 
 C                     0.49864   0.77281   0.2304 
 C                    -1.91461  -0.08522  -0.11645 
 C                    -0.94286   1.10461  -0.16737 
 C                    -1.18504  -1.2774    0.29999 
 C                     0.97436  -0.47672  -0.52951 
 H                    -0.93736   1.52672  -1.18117 
 H                     1.07462  -0.23627  -1.59531 
 H                     0.56566   0.638     1.31552 
 H                    -1.85719  -2.13476   0.17016 
 C                     2.32849  -0.97457  -0.01772 
 H                     2.26008  -1.24129   1.04244 
 H                     2.64289  -1.87929  -0.54974 
 H                    -2.73549   0.142     0.57421 
 O                    -0.83177  -1.27046   1.67564 
 H                    -0.74516  -2.2055    1.92883 
 O                     3.33213   0.0282   -0.16317 
 H                     3.65683  -0.02831  -1.08138 
 O                    -2.49872  -0.25842  -1.42032 
 H                    -3.27587  -0.83433  -1.31695 
 O                    -1.41949   2.17661   0.66826 
 H                    -0.71009   2.84935   0.63907 
 O                     1.32299   1.91424  -0.06438 
 H                     2.24568   1.63339   0.1194 
 O                     0.37091  -4.43331  -0.66745 
 H                     1.293    -4.65402  -0.81791 
 H                     0.28189  -3.48329  -0.56191 
 O                    -0.32416  -3.99258   1.97795 
 H                     0.50922  -3.93489   2.45097 
 H                    -0.15364  -4.0653    1.03602 
 
 Add virtual bond connecting atoms H30        and O25        Dist= 3.44D+00.
 Add virtual bond connecting atoms H30        and H27        Dist= 3.32D+00.
 Add virtual bond connecting atoms H27        and O1         Dist= 3.48D+00.
 Add virtual bond connecting atoms O28        and H16        Dist= 3.47D+00.
 The following ModRedundant input section has been read:
 D       5       3       4       2 F                                           
 D       5       1       6       2 F                                           
 

 GradGradGradGradGradGradGradGradGradGradGradGradGradGradGradGradGradGrad
 Berny optimization.
 Initialization pass.
                           ----------------------------
                           !    Initial Parameters    !
                           ! (Angstroms and Degrees)  !
 --------------------------                            --------------------------
 ! Name  Definition              Value          Derivative Info.                !
 --------------------------------------------------------------------------------
 ! R1    R(1,5)                  1.4724         estimate D2E/DX2                !
 ! R2    R(1,6)                  1.5371         estimate D2E/DX2                !
 ! R3    R(1,27)                 1.84           estimate D2E/DX2                !
 ! R4    R(2,4)                  1.5317         estimate D2E/DX2                !
 ! R5    R(2,6)                  1.5379         estimate D2E/DX2                !
 ! R6    R(2,9)                  1.0955         estimate D2E/DX2                !
 ! R7    R(2,23)                 1.4385         estimate D2E/DX2                !
 ! R8    R(3,4)                  1.5371         estimate D2E/DX2                !
 ! R9    R(3,5)                  1.4584         estimate D2E/DX2                !
 ! R10   R(3,14)                 1.0966         estimate D2E/DX2                !
 ! R11   R(3,19)                 1.4392         estimate D2E/DX2                !
 ! R12   R(4,7)                  1.0982         estimate D2E/DX2                !
 ! R13   R(4,21)                 1.4404         estimate D2E/DX2                !
 ! R14   R(5,10)                 1.0971         estimate D2E/DX2                !
 ! R15   R(5,15)                 1.4203         estimate D2E/DX2                !
 ! R16   R(6,8)                  1.0972         estimate D2E/DX2                !
 ! R17   R(6,11)                 1.5308         estimate D2E/DX2                !
 ! R18   R(11,12)                1.0953         estimate D2E/DX2                !
 ! R19   R(11,13)                1.0956         estimate D2E/DX2                !
 ! R20   R(11,17)                1.4262         estimate D2E/DX2                !
 ! R21   R(15,16)                0.9726         estimate D2E/DX2                !
 ! R22   R(16,28)                1.8367         estimate D2E/DX2                !
 ! R23   R(17,18)                0.9756         estimate D2E/DX2                !
 ! R24   R(19,20)                0.9728         estimate D2E/DX2                !
 ! R25   R(21,22)                0.9781         estimate D2E/DX2                !
 ! R26   R(23,24)                0.9818         estimate D2E/DX2                !
 ! R27   R(25,26)                0.96           estimate D2E/DX2                !
 ! R28   R(25,27)                0.96           estimate D2E/DX2                !
 ! R29   R(25,30)                1.82           estimate D2E/DX2                !
 ! R30   R(27,30)                1.7555         estimate D2E/DX2                !
 ! R31   R(28,29)                0.96           estimate D2E/DX2                !
 ! R32   R(28,30)                0.96           estimate D2E/DX2                !
 ! A1    A(5,1,6)              108.8361         estimate D2E/DX2                !
 ! A2    A(5,1,27)             114.0363         estimate D2E/DX2                !
 ! A3    A(6,1,27)             131.8208         estimate D2E/DX2                !
 ! A4    A(4,2,6)              109.8036         estimate D2E/DX2                !
 ! A5    A(4,2,9)              109.9647         estimate D2E/DX2                !
 ! A6    A(4,2,23)             108.3124         estimate D2E/DX2                !
 ! A7    A(6,2,9)              111.7487         estimate D2E/DX2                !
 ! A8    A(6,2,23)             111.4802         estimate D2E/DX2                !
 ! A9    A(9,2,23)             105.4003         estimate D2E/DX2                !
 ! A10   A(4,3,5)              109.0246         estimate D2E/DX2                !
 ! A11   A(4,3,14)             109.4953         estimate D2E/DX2                !
 ! A12   A(4,3,19)             108.6468         estimate D2E/DX2                !
 ! A13   A(5,3,14)             111.3472         estimate D2E/DX2                !
 ! A14   A(5,3,19)             111.3059         estimate D2E/DX2                !
 ! A15   A(14,3,19)            106.9614         estimate D2E/DX2                !
 ! A16   A(2,4,3)              114.751          estimate D2E/DX2                !
 ! A17   A(2,4,7)              108.5593         estimate D2E/DX2                !
 ! A18   A(2,4,21)             108.7829         estimate D2E/DX2                !
 ! A19   A(3,4,7)              109.347          estimate D2E/DX2                !
 ! A20   A(3,4,21)             110.3462         estimate D2E/DX2                !
 ! A21   A(7,4,21)             104.5461         estimate D2E/DX2                !
 ! A22   A(1,5,3)              117.9374         estimate D2E/DX2                !
 ! A23   A(1,5,10)             103.0042         estimate D2E/DX2                !
 ! A24   A(1,5,15)             108.2325         estimate D2E/DX2                !
 ! A25   A(3,5,10)             107.3696         estimate D2E/DX2                !
 ! A26   A(3,5,15)             113.3905         estimate D2E/DX2                !
 ! A27   A(10,5,15)            105.7124         estimate D2E/DX2                !
 ! A28   A(1,6,2)              114.6453         estimate D2E/DX2                !
 ! A29   A(1,6,8)              105.0439         estimate D2E/DX2                !
 ! A30   A(1,6,11)             107.2457         estimate D2E/DX2                !
 ! A31   A(2,6,8)              109.2804         estimate D2E/DX2                !
 ! A32   A(2,6,11)             111.8799         estimate D2E/DX2                !
 ! A33   A(8,6,11)             108.3732         estimate D2E/DX2                !
 ! A34   A(6,11,12)            110.3362         estimate D2E/DX2                !
 ! A35   A(6,11,13)            111.1021         estimate D2E/DX2                !
 ! A36   A(6,11,17)            111.0837         estimate D2E/DX2                !
 ! A37   A(12,11,13)           106.6687         estimate D2E/DX2                !
 ! A38   A(12,11,17)           108.2935         estimate D2E/DX2                !
 ! A39   A(13,11,17)           109.2166         estimate D2E/DX2                !
 ! A40   A(5,15,16)            105.6409         estimate D2E/DX2                !
 ! A41   A(15,16,28)           164.3288         estimate D2E/DX2                !
 ! A42   A(11,17,18)           106.8274         estimate D2E/DX2                !
 ! A43   A(3,19,20)            107.4107         estimate D2E/DX2                !
 ! A44   A(4,21,22)            104.7482         estimate D2E/DX2                !
 ! A45   A(2,23,24)            105.8553         estimate D2E/DX2                !
 ! A46   A(26,25,27)           109.5            estimate D2E/DX2                !
 ! A47   A(26,25,30)           118.0351         estimate D2E/DX2                !
 ! A48   A(1,27,30)            104.3887         estimate D2E/DX2                !
 ! A49   A(16,28,29)            98.8408         estimate D2E/DX2                !
 ! A50   A(16,28,30)            95.0588         estimate D2E/DX2                !
 ! A51   A(29,28,30)           109.5            estimate D2E/DX2                !
 ! A52   A(27,30,28)           155.7918         estimate D2E/DX2                !
 ! A53   L(1,27,25,28,-1)      182.7539         estimate D2E/DX2                !
 ! A54   L(25,30,28,2,-1)      186.6834         estimate D2E/DX2                !
 ! A55   L(1,27,25,28,-2)      175.7821         estimate D2E/DX2                !
 ! A56   L(25,30,28,2,-2)      187.4254         estimate D2E/DX2                !
 ! D1    D(6,1,5,3)             55.2014         estimate D2E/DX2                !
 ! D2    D(6,1,5,10)           173.1891         estimate D2E/DX2                !
 ! D3    D(6,1,5,15)           -75.1752         estimate D2E/DX2                !
 ! D4    D(27,1,5,3)          -147.3455         estimate D2E/DX2                !
 ! D5    D(27,1,5,10)          -29.3577         estimate D2E/DX2                !
 ! D6    D(27,1,5,15)           82.278          estimate D2E/DX2                !
 ! D7    D(5,1,6,2)              0.7829         Frozen                          !
 ! D8    D(5,1,6,8)           -119.1831         estimate D2E/DX2                !
 ! D9    D(5,1,6,11)           125.6542         estimate D2E/DX2                !
 ! D10   D(27,1,6,2)          -151.1889         estimate D2E/DX2                !
 ! D11   D(27,1,6,8)            88.8451         estimate D2E/DX2                !
 ! D12   D(27,1,6,11)          -26.3176         estimate D2E/DX2                !
 ! D13   D(5,1,25,26)         -154.8506         estimate D2E/DX2                !
 ! D14   D(6,1,25,26)           -1.9779         estimate D2E/DX2                !
 ! D15   D(5,1,27,30)          -38.2163         estimate D2E/DX2                !
 ! D16   D(6,1,27,30)          112.6423         estimate D2E/DX2                !
 ! D17   D(6,2,4,3)             49.1506         estimate D2E/DX2                !
 ! D18   D(6,2,4,7)            -73.5058         estimate D2E/DX2                !
 ! D19   D(6,2,4,21)           173.289          estimate D2E/DX2                !
 ! D20   D(9,2,4,3)            -74.204          estimate D2E/DX2                !
 ! D21   D(9,2,4,7)            163.1395         estimate D2E/DX2                !
 ! D22   D(9,2,4,21)            49.9343         estimate D2E/DX2                !
 ! D23   D(23,2,4,3)           171.0976         estimate D2E/DX2                !
 ! D24   D(23,2,4,7)            48.4412         estimate D2E/DX2                !
 ! D25   D(23,2,4,21)          -64.7641         estimate D2E/DX2                !
 ! D26   D(4,2,6,1)            -49.0909         estimate D2E/DX2                !
 ! D27   D(4,2,6,8)             68.492          estimate D2E/DX2                !
 ! D28   D(4,2,6,11)          -171.4858         estimate D2E/DX2                !
 ! D29   D(9,2,6,1)             73.2102         estimate D2E/DX2                !
 ! D30   D(9,2,6,8)           -169.2069         estimate D2E/DX2                !
 ! D31   D(9,2,6,11)           -49.1847         estimate D2E/DX2                !
 ! D32   D(23,2,6,1)          -169.129          estimate D2E/DX2                !
 ! D33   D(23,2,6,8)           -51.546          estimate D2E/DX2                !
 ! D34   D(23,2,6,11)           68.4762         estimate D2E/DX2                !
 ! D35   D(4,2,23,24)         -174.5562         estimate D2E/DX2                !
 ! D36   D(6,2,23,24)          -53.6428         estimate D2E/DX2                !
 ! D37   D(9,2,23,24)           67.7845         estimate D2E/DX2                !
 ! D38   D(5,3,4,2)             -0.637          Frozen                          !
 ! D39   D(5,3,4,7)            121.5939         estimate D2E/DX2                !
 ! D40   D(5,3,4,21)          -123.9429         estimate D2E/DX2                !
 ! D41   D(14,3,4,2)           121.405          estimate D2E/DX2                !
 ! D42   D(14,3,4,7)          -116.3641         estimate D2E/DX2                !
 ! D43   D(14,3,4,21)           -1.9009         estimate D2E/DX2                !
 ! D44   D(19,3,4,2)          -122.1026         estimate D2E/DX2                !
 ! D45   D(19,3,4,7)             0.1283         estimate D2E/DX2                !
 ! D46   D(19,3,4,21)          114.5915         estimate D2E/DX2                !
 ! D47   D(4,3,5,1)            -55.2912         estimate D2E/DX2                !
 ! D48   D(4,3,5,10)          -170.9338         estimate D2E/DX2                !
 ! D49   D(4,3,5,15)            72.6779         estimate D2E/DX2                !
 ! D50   D(14,3,5,1)          -176.2069         estimate D2E/DX2                !
 ! D51   D(14,3,5,10)           68.1505         estimate D2E/DX2                !
 ! D52   D(14,3,5,15)          -48.2379         estimate D2E/DX2                !
 ! D53   D(19,3,5,1)            64.5431         estimate D2E/DX2                !
 ! D54   D(19,3,5,10)          -51.0995         estimate D2E/DX2                !
 ! D55   D(19,3,5,15)         -167.4878         estimate D2E/DX2                !
 ! D56   D(4,3,19,20)         -164.4941         estimate D2E/DX2                !
 ! D57   D(5,3,19,20)           75.4478         estimate D2E/DX2                !
 ! D58   D(14,3,19,20)         -46.3848         estimate D2E/DX2                !
 ! D59   D(2,4,21,22)           48.4062         estimate D2E/DX2                !
 ! D60   D(3,4,21,22)          175.1165         estimate D2E/DX2                !
 ! D61   D(7,4,21,22)          -67.4154         estimate D2E/DX2                !
 ! D62   D(1,5,15,16)          -72.6605         estimate D2E/DX2                !
 ! D63   D(3,5,15,16)          154.5019         estimate D2E/DX2                !
 ! D64   D(10,5,15,16)          37.1423         estimate D2E/DX2                !
 ! D65   D(1,6,11,12)          -66.0843         estimate D2E/DX2                !
 ! D66   D(1,6,11,13)           52.0099         estimate D2E/DX2                !
 ! D67   D(1,6,11,17)          173.8058         estimate D2E/DX2                !
 ! D68   D(2,6,11,12)           60.4417         estimate D2E/DX2                !
 ! D69   D(2,6,11,13)          178.5359         estimate D2E/DX2                !
 ! D70   D(2,6,11,17)          -59.6681         estimate D2E/DX2                !
 ! D71   D(8,6,11,12)         -179.0065         estimate D2E/DX2                !
 ! D72   D(8,6,11,13)          -60.9123         estimate D2E/DX2                !
 ! D73   D(8,6,11,17)           60.8837         estimate D2E/DX2                !
 ! D74   D(6,11,17,18)         -83.2127         estimate D2E/DX2                !
 ! D75   D(12,11,17,18)        155.4721         estimate D2E/DX2                !
 ! D76   D(13,11,17,18)         39.6764         estimate D2E/DX2                !
 ! D77   D(5,15,16,28)          45.7762         estimate D2E/DX2                !
 ! D78   D(15,16,28,29)         89.9639         estimate D2E/DX2                !
 ! D79   D(15,16,28,30)        -20.7015         estimate D2E/DX2                !
 ! D80   D(26,25,28,16)        113.9015         estimate D2E/DX2                !
 ! D81   D(26,25,28,29)         11.5577         estimate D2E/DX2                !
 ! D82   D(1,27,30,28)         -20.1841         estimate D2E/DX2                !
 ! D83   D(16,28,30,27)         24.9006         estimate D2E/DX2                !
 ! D84   D(29,28,30,27)        -76.3457         estimate D2E/DX2                !
 --------------------------------------------------------------------------------
 Trust Radius=3.00D-01 FncErr=1.00D-07 GrdErr=1.00D-06
 Number of steps in this run=    180 maximum allowed number of steps=    180.
 GradGradGradGradGradGradGradGradGradGradGradGradGradGradGradGradGradGrad

                          Input orientation:                          
 ---------------------------------------------------------------------
 Center     Atomic      Atomic             Coordinates (Angstroms)
 Number     Number       Type             X           Y           Z
 ---------------------------------------------------------------------
      1          8           0        0.002543   -1.666527   -0.478657
      2          6           0        0.498642    0.772809    0.230395
      3          6           0       -1.914607   -0.085219   -0.116449
      4          6           0       -0.942855    1.104614   -0.167373
      5          6           0       -1.185036   -1.277396    0.299987
      6          6           0        0.974363   -0.476724   -0.529513
      7          1           0       -0.937361    1.526723   -1.181165
      8          1           0        1.074625   -0.236265   -1.595312
      9          1           0        0.565655    0.638004    1.315523
     10          1           0       -1.857188   -2.134761    0.170158
     11          6           0        2.328491   -0.974568   -0.017716
     12          1           0        2.260075   -1.241285    1.042435
     13          1           0        2.642885   -1.879288   -0.549735
     14          1           0       -2.735493    0.142004    0.574214
     15          8           0       -0.831771   -1.270461    1.675637
     16          1           0       -0.745157   -2.205497    1.928833
     17          8           0        3.332125    0.028202   -0.163174
     18          1           0        3.656830   -0.028311   -1.081380
     19          8           0       -2.498717   -0.258421   -1.420318
     20          1           0       -3.275865   -0.834332   -1.316952
     21          8           0       -1.419494    2.176615    0.668261
     22          1           0       -0.710089    2.849347    0.639069
     23          8           0        1.322991    1.914237   -0.064384
     24          1           0        2.245675    1.633392    0.119403
     25          8           0        0.370905   -4.433311   -0.667451
     26          1           0        1.292995   -4.654017   -0.817913
     27          1           0        0.281888   -3.483292   -0.561908
     28          8           0       -0.324160   -3.992583    1.977954
     29          1           0        0.509221   -3.934891    2.450972
     30          1           0       -0.153639   -4.065302    1.036022
 ---------------------------------------------------------------------
                    Distance matrix (angstroms):
                    1          2          3          4          5
     1  O    0.000000
     2  C    2.588287   0.000000
     3  C    2.511413   2.584624   0.000000
     4  C    2.944469   1.531740   1.537074   0.000000
     5  C    1.472431   2.653857   1.458417   2.439477   0.000000
     6  C    1.537092   1.537889   2.944494   2.511474   2.447887
     7  H    3.402026   2.150115   2.164945   1.098171   3.180918
     8  H    2.107588   2.164069   3.338467   2.811973   3.127648
     9  H    2.974397   1.095521   2.953861   2.166174   2.786573
    10  H    2.024550   3.742663   2.070281   3.382822   1.097141
    11  C    2.470083   2.542289   4.336424   3.879059   3.540835
    12  H    2.755177   2.796181   4.484135   4.150378   3.524390
    13  H    2.649854   3.498571   4.917027   4.680534   3.967024
    14  H    3.446181   3.312968   1.096585   2.165669   2.119862
    15  O    2.343914   2.834374   2.406014   3.008323   1.420302
    16  H    2.577897   3.647195   3.169601   3.923009   1.925618
    17  O    3.749367   2.956004   5.248166   4.408416   4.724812
    18  H    4.049795   3.512364   5.654665   4.824524   5.187683
    19  O    3.020892   3.573856   1.439187   2.418355   2.392387
    20  H    3.484716   4.384528   1.963518   3.244068   2.679993
    21  O    4.255273   2.416949   2.444749   1.440366   3.481492
    22  H    4.706408   2.437223   3.260882   1.936136   4.167800
    23  O    3.838890   1.438507   3.805598   2.408351   4.075474
    24  H    4.034697   1.950653   4.507460   3.244776   4.502785
    25  O    2.797576   5.284518   4.942983   5.713551   3.649204
    26  H    3.271919   5.583940   5.626249   6.211607   4.334963
    27  H    1.840000   4.334642   4.070617   4.764928   2.785805
    28  O    3.398854   5.141977   4.709940   5.564767   3.305892
    29  H    3.739642   5.205143   5.223655   5.861814   3.815694
    30  H    2.841262   4.947911   4.502251   5.366475   3.062344
                    6          7          8          9         10
     6  C    0.000000
     7  H    2.844844   0.000000
     8  H    1.097178   2.706978   0.000000
     9  H    2.194042   3.046692   3.081616   0.000000
    10  H    3.355042   4.009816   3.913655   3.856197   0.000000
    11  C    1.530832   4.275027   2.146178   2.735965   4.347557
    12  H    2.169938   4.778061   3.061546   2.545066   4.302444
    13  H    2.179807   4.981744   2.500439   3.759100   4.564446
    14  H    3.919703   2.869160   4.400787   3.419522   2.473528
    15  O    2.958855   3.999588   3.924667   2.392639   2.016175
    16  H    3.462495   4.861944   4.428214   3.190592   2.081959
    17  O    2.438892   4.637929   2.686497   3.195584   5.631917
    18  H    2.775115   4.851255   2.641052   3.967932   6.033894
    19  O    3.592141   2.383645   3.577693   4.204614   2.542012
    20  H    4.337324   3.325901   4.400220   4.884155   2.432130
    21  O    3.769008   2.018710   4.143233   2.593663   4.362069
    22  H    3.907136   2.261468   4.206978   2.641051   5.135859
    23  O    2.460606   2.550796   2.651431   2.026443   5.153924
    24  H    2.547531   3.440142   2.794141   2.289971   5.570910
    25  O    4.004719   6.123518   4.355611   5.448702   3.308976
    26  H    4.199342   6.580880   4.490942   5.752048   4.152901
    27  H    3.085454   5.193294   3.498506   4.537660   2.632509
    28  O    4.509414   6.388958   5.369800   4.761609   3.011611
    29  H    4.588961   6.716714   5.511073   4.712090   3.747329
    30  H    4.074455   6.066373   4.805630   4.766193   2.716393
                   11         12         13         14         15
    11  C    0.000000
    12  H    1.095326   0.000000
    13  H    1.095630   1.757440   0.000000
    14  H    5.219296   5.204654   5.854557   0.000000
    15  O    3.597534   3.156154   4.170873   2.613876   0.000000
    16  H    3.840775   3.278235   4.210527   3.362617   0.972575
    17  O    1.426179   2.052896   2.064703   6.113320   4.733475
    18  H    1.947118   2.816526   2.176430   6.605437   5.412173
    19  O    5.077607   5.447685   5.460879   2.048063   3.658944
    20  H    5.754693   6.031496   6.059056   2.195847   3.888366
    21  O    4.944483   5.035998   5.868287   2.424941   3.639033
    22  H    4.928150   5.071277   5.917405   3.381741   4.249953
    23  O    3.059151   3.472822   4.045802   4.474361   4.220542
    24  H    2.612875   3.019265   3.597839   5.219495   4.508315
    25  O    4.027059   4.084325   3.420349   5.667888   4.115837
    26  H    3.905241   4.005356   3.097296   6.416272   4.709658
    27  H    3.283051   3.393190   2.854345   4.851611   3.338183
    28  O    4.486388   3.888844   4.433800   4.987968   2.785501
    29  H    4.262355   3.507845   4.216902   5.538182   3.081978
    30  H    4.101703   3.714987   3.887651   4.957889   2.946202
                   16         17         18         19         20
    16  H    0.000000
    17  O    5.098052   0.000000
    18  H    5.760122   0.975566   0.000000
    19  O    4.252398   5.971707   6.169164   0.000000
    20  H    4.338167   6.763187   6.983368   0.972788   0.000000
    21  O    4.609412   5.280610   5.804482   3.384713   4.056228
    22  H    5.216912   4.994191   5.505528   4.135032   4.896807
    23  O    5.022187   2.757446   3.202277   4.600484   5.502094
    24  H    5.191934   1.958790   2.488874   5.334693   6.216123
    25  O    3.598534   5.378496   5.511140   5.121645   5.164633
    26  H    4.206415   5.148777   5.201373   5.836200   5.976079
    27  H    2.981841   4.668354   4.857672   4.343780   4.499409
    28  O    1.836662   5.841196   6.397129   5.497355   5.435395
    29  H    2.199295   5.523463   6.135659   6.127888   6.175564
    30  H    2.146131   5.508666   5.941411   5.101504   5.071879
                   21         22         23         24         25
    21  O    0.000000
    22  H    0.978098   0.000000
    23  O    2.850760   2.345782   0.000000
    24  H    3.745637   3.238077   0.981834   0.000000
    25  O    6.977162   7.477477   6.446823   6.398343   0.000000
    26  H    7.498256   7.901621   6.611404   6.427882   0.960000
    27  H    6.036768   6.521402   5.519488   5.522780   0.960000
    28  O    6.401098   6.982375   6.463341   6.458317   2.770474
    29  H    6.651955   7.127103   6.418842   6.281501   3.161031
    30  H    6.379590   6.948351   6.256694   6.250761   1.820000
                   26         27         28         29         30
    26  H    0.000000
    27  H    1.567952   0.000000
    28  O    3.296901   2.660370   0.000000
    29  H    3.437594   3.055007   0.960000   0.000000
    30  H    2.424131   1.755506   0.960000   1.567952   0.000000
 Stoichiometry    C6H16O8
 Framework group  C1[X(C6H16O8)]
 Deg. of freedom    84
 Full point group                 C1      NOp   1
 Largest Abelian subgroup         C1      NOp   1
 Largest concise Abelian subgroup C1      NOp   1
                         Standard orientation:                         
 ---------------------------------------------------------------------
 Center     Atomic      Atomic             Coordinates (Angstroms)
 Number     Number       Type             X           Y           Z
 ---------------------------------------------------------------------
      1          8           0        0.874988   -0.041846   -0.687941
      2          6           0       -1.440110    0.553682    0.304481
      3          6           0       -0.769515   -1.884230   -0.231404
      4          6           0       -1.897963   -0.847431   -0.112029
      5          6           0        0.501821   -1.241211    0.080384
      6          6           0       -0.253419    0.995016   -0.568499
      7          1           0       -2.425529   -0.771723   -1.072198
      8          1           0       -0.600661    1.157711   -1.596484
      9          1           0       -1.185686    0.562721    1.370010
     10          1           0        1.298723   -1.952571   -0.169884
     11          6           0        0.376273    2.294590   -0.060521
     12          1           0        0.750862    2.162483    0.960248
     13          1           0        1.235658    2.583319   -0.675742
     14          1           0       -0.969632   -2.722633    0.446484
     15          8           0        0.663848   -0.952391    1.461538
     16          1           0        1.624172   -0.928996    1.613633
     17          8           0       -0.574795    3.357332   -0.054322
     18          1           0       -0.598089    3.720761   -0.959367
     19          8           0       -0.772560   -2.415743   -1.568842
     20          1           0       -0.236160   -3.227241   -1.560786
     21          8           0       -2.900381   -1.302926    0.816592
     22          1           0       -3.528927   -0.557138    0.890124
     23          8           0       -2.555508    1.452136    0.170426
     24          1           0       -2.202113    2.348510    0.359167
     25          8           0        3.622435    0.182742   -1.164933
     26          1           0        3.880180    1.097347   -1.301550
     27          1           0        2.685663    0.141103   -0.959206
     28          8           0        3.428055   -0.609285    1.482790
     29          1           0        3.471255    0.203129    1.992415
     30          1           0        3.409115   -0.399426    0.546200
 ---------------------------------------------------------------------
 Rotational constants (GHZ):      0.6850812      0.5018771      0.3629664
 Standard basis: 6-31G(d) (6D, 7F)
 There are   242 symmetry adapted cartesian basis functions of A   symmetry.
 There are   242 symmetry adapted basis functions of A   symmetry.
   242 basis functions,   456 primitive gaussians,   242 cartesian basis functions
    58 alpha electrons       58 beta electrons
       nuclear repulsion energy      1096.8168340430 Hartrees.
 NAtoms=   30 NActive=   30 NUniq=   30 SFac= 1.00D+00 NAtFMM=   60 NAOKFM=F Big=F
 Integral buffers will be    131072 words long.
 Raffenetti 2 integral format.
 Two-electron integral symmetry is turned on.
 One-electron integrals computed using PRISM.
 NBasis=   242 RedAO= T EigKep=  1.24D-03  NBF=   242
 NBsUse=   242 1.00D-06 EigRej= -1.00D+00 NBFU=   242
 ExpMin= 1.61D-01 ExpMax= 5.48D+03 ExpMxC= 8.25D+02 IAcc=1 IRadAn=         1 AccDes= 0.00D+00
 Harris functional with IExCor=  402 and IRadAn=       1 diagonalized for initial guess.
 HarFok:  IExCor=  402 AccDes= 0.00D+00 IRadAn=         1 IDoV= 1 UseB2=F ITyADJ=14
 ICtDFT=  3500011 ScaDFX=  1.000000  1.000000  1.000000  1.000000
 FoFCou: FMM=F IPFlag=           0 FMFlag=      100000 FMFlg1=           0
         NFxFlg=           0 DoJE=T BraDBF=F KetDBF=T FulRan=T
         wScrn=  0.000000 ICntrl=     500 IOpCl=  0 I1Cent=   200000004 NGrid=           0
         NMat0=    1 NMatS0=      1 NMatT0=    0 NMatD0=    1 NMtDS0=    0 NMtDT0=    0
 Petite list used in FoFCou.
 Requested convergence on RMS density matrix=1.00D-08 within 128 cycles.
 Requested convergence on MAX density matrix=1.00D-06.
 Requested convergence on             energy=1.00D-06.
 No special actions if energy rises.
 Integral accuracy reduced to 1.0D-05 until final iterations.
 Initial convergence to 1.0D-05 achieved.  Increase integral accuracy.
 SCF Done:  E(RB3LYP) =  -839.963943641     A.U. after   14 cycles
            NFock= 14  Conv=0.40D-08     -V/T= 2.0085

 **********************************************************************

            Population analysis using the SCF density.

 **********************************************************************

 Orbital symmetries:
       Occupied  (A) (A) (A) (A) (A) (A) (A) (A) (A) (A) (A) (A)
                 (A) (A) (A) (A) (A) (A) (A) (A) (A) (A) (A) (A)
                 (A) (A) (A) (A) (A) (A) (A) (A) (A) (A) (A) (A)
                 (A) (A) (A) (A) (A) (A) (A) (A) (A) (A) (A) (A)
                 (A) (A) (A) (A) (A) (A) (A) (A) (A) (A)
       Virtual   (A) (A) (A) (A) (A) (A) (A) (A) (A) (A) (A) (A)
                 (A) (A) (A) (A) (A) (A) (A) (A) (A) (A) (A) (A)
                 (A) (A) (A) (A) (A) (A) (A) (A) (A) (A) (A) (A)
                 (A) (A) (A) (A) (A) (A) (A) (A) (A) (A) (A) (A)
                 (A) (A) (A) (A) (A) (A) (A) (A) (A) (A) (A) (A)
                 (A) (A) (A) (A) (A) (A) (A) (A) (A) (A) (A) (A)
                 (A) (A) (A) (A) (A) (A) (A) (A) (A) (A) (A) (A)
                 (A) (A) (A) (A) (A) (A) (A) (A) (A) (A) (A) (A)
                 (A) (A) (A) (A) (A) (A) (A) (A) (A) (A) (A) (A)
                 (A) (A) (A) (A) (A) (A) (A) (A) (A) (A) (A) (A)
                 (A) (A) (A) (A) (A) (A) (A) (A) (A) (A) (A) (A)
                 (A) (A) (A) (A) (A) (A) (A) (A) (A) (A) (A) (A)
                 (A) (A) (A) (A) (A) (A) (A) (A) (A) (A) (A) (A)
                 (A) (A) (A) (A) (A) (A) (A) (A) (A) (A) (A) (A)
                 (A) (A) (A) (A) (A) (A) (A) (A) (A) (A) (A) (A)
                 (A) (A) (A) (A)
 The electronic state is 1-A.
 Alpha  occ. eigenvalues --  -19.18819 -19.17953 -19.15280 -19.15206 -19.14989
 Alpha  occ. eigenvalues --  -19.14545 -19.13800 -19.13224 -10.28722 -10.25999
 Alpha  occ. eigenvalues --  -10.25759 -10.24358 -10.24028 -10.23433  -1.06240
 Alpha  occ. eigenvalues --   -1.05503  -1.02669  -1.02201  -1.01872  -1.01091
 Alpha  occ. eigenvalues --   -0.99544  -0.98532  -0.78830  -0.77681  -0.70337
 Alpha  occ. eigenvalues --   -0.64536  -0.63120  -0.56756  -0.56000  -0.55236
 Alpha  occ. eigenvalues --   -0.54806  -0.53584  -0.52352  -0.51740  -0.49305
 Alpha  occ. eigenvalues --   -0.47700  -0.46263  -0.44783  -0.44188  -0.41862
 Alpha  occ. eigenvalues --   -0.41465  -0.40655  -0.39633  -0.38872  -0.38005
 Alpha  occ. eigenvalues --   -0.37623  -0.35616  -0.35112  -0.33705  -0.32429
 Alpha  occ. eigenvalues --   -0.31378  -0.30955  -0.30390  -0.29386  -0.28063
 Alpha  occ. eigenvalues --   -0.27522  -0.26641  -0.25413
 Alpha virt. eigenvalues --    0.02559   0.03566   0.05772   0.07208   0.08360
 Alpha virt. eigenvalues --    0.09825   0.10762   0.12257   0.12673   0.13896
 Alpha virt. eigenvalues --    0.14238   0.15470   0.16129   0.17652   0.18471
 Alpha virt. eigenvalues --    0.19319   0.20852   0.21264   0.21983   0.22424
 Alpha virt. eigenvalues --    0.24612   0.25246   0.26959   0.28493   0.29356
 Alpha virt. eigenvalues --    0.30792   0.32246   0.35090   0.51349   0.51722
 Alpha virt. eigenvalues --    0.53996   0.54367   0.56631   0.58893   0.59168
 Alpha virt. eigenvalues --    0.61268   0.62413   0.62812   0.66720   0.69357
 Alpha virt. eigenvalues --    0.70623   0.71975   0.74746   0.75740   0.76681
 Alpha virt. eigenvalues --    0.77340   0.77830   0.78576   0.80099   0.80696
 Alpha virt. eigenvalues --    0.82572   0.82926   0.83201   0.84398   0.85426
 Alpha virt. eigenvalues --    0.86048   0.87259   0.88022   0.89127   0.89916
 Alpha virt. eigenvalues --    0.90786   0.91067   0.92098   0.92709   0.93779
 Alpha virt. eigenvalues --    0.96529   0.98948   0.99320   0.99881   1.01060
 Alpha virt. eigenvalues --    1.02842   1.04459   1.05929   1.06752   1.07695
 Alpha virt. eigenvalues --    1.07952   1.08262   1.09380   1.12567   1.14071
 Alpha virt. eigenvalues --    1.16686   1.17219   1.20871   1.21591   1.24974
 Alpha virt. eigenvalues --    1.27011   1.30546   1.30938   1.33164   1.33943
 Alpha virt. eigenvalues --    1.39913   1.41570   1.44619   1.48539   1.50370
 Alpha virt. eigenvalues --    1.52352   1.55048   1.56019   1.58654   1.60066
 Alpha virt. eigenvalues --    1.61001   1.62665   1.67079   1.67258   1.70222
 Alpha virt. eigenvalues --    1.71253   1.72214   1.72610   1.73524   1.74973
 Alpha virt. eigenvalues --    1.75456   1.76085   1.76767   1.78748   1.79534
 Alpha virt. eigenvalues --    1.80931   1.83250   1.84408   1.86905   1.87508
 Alpha virt. eigenvalues --    1.88203   1.89643   1.89964   1.91592   1.93191
 Alpha virt. eigenvalues --    1.96060   1.98335   2.00984   2.01379   2.03302
 Alpha virt. eigenvalues --    2.05505   2.06452   2.09691   2.11234   2.14784
 Alpha virt. eigenvalues --    2.17550   2.19693   2.24085   2.26994   2.29246
 Alpha virt. eigenvalues --    2.30435   2.34151   2.35716   2.38134   2.39535
 Alpha virt. eigenvalues --    2.41775   2.42921   2.45029   2.49191   2.50842
 Alpha virt. eigenvalues --    2.51079   2.52123   2.53920   2.54762   2.57181
 Alpha virt. eigenvalues --    2.59775   2.61017   2.63022   2.68310   2.72922
 Alpha virt. eigenvalues --    2.74152   2.78003   2.82210   2.85316   2.89154
 Alpha virt. eigenvalues --    2.93357   2.94855   3.00463   3.04753   3.09628
 Alpha virt. eigenvalues --    3.71058   3.72767   3.79022   3.83425   3.87948
 Alpha virt. eigenvalues --    3.93393   3.98894   4.12191   4.28247   4.35293
 Alpha virt. eigenvalues --    4.45134   4.56163   4.58802   4.82883
          Condensed to atoms (all electrons):
               1          2          3          4          5          6
     1  O    8.398762  -0.019179  -0.023657  -0.008900   0.166166   0.149539
     2  C   -0.019179   4.980234  -0.035156   0.340294   0.003993   0.268961
     3  C   -0.023657  -0.035156   4.973555   0.296322   0.292273  -0.019940
     4  C   -0.008900   0.340294   0.296322   4.909030  -0.037527  -0.029893
     5  C    0.166166   0.003993   0.292273  -0.037527   4.860580  -0.020974
     6  C    0.149539   0.268961  -0.019940  -0.029893  -0.020974   5.065436
     7  H    0.000612  -0.042591  -0.047481   0.348391   0.001375  -0.003953
     8  H   -0.028340  -0.045491   0.001195  -0.007555   0.000062   0.354645
     9  H    0.001807   0.356289  -0.002803  -0.039769  -0.004118  -0.043784
    10  H   -0.049092   0.000464  -0.057550   0.007084   0.371431   0.005652
    11  C   -0.025354  -0.020578   0.000214   0.003400   0.000480   0.318321
    12  H    0.003518  -0.008678   0.000024   0.000000   0.000458  -0.042032
    13  H    0.001286   0.004433  -0.000010  -0.000119   0.000032  -0.043661
    14  H    0.002780   0.002692   0.363128  -0.038283  -0.045464   0.000334
    15  O   -0.068043  -0.009742  -0.039595   0.002463   0.195832   0.005915
    16  H    0.004639   0.000279   0.005167  -0.000389  -0.014086  -0.000865
    17  O    0.001217  -0.002303  -0.000002   0.000021  -0.000002  -0.041235
    18  H   -0.000017  -0.000863   0.000001   0.000001  -0.000003  -0.000787
    19  O    0.001426   0.001373   0.214258  -0.035610  -0.042715   0.001372
    20  H   -0.000090  -0.000269  -0.021844   0.007197  -0.002896  -0.000019
    21  O    0.000028  -0.032963  -0.028095   0.216966   0.000892   0.003937
    22  H   -0.000009  -0.010251   0.006333  -0.028021  -0.000315   0.000787
    23  O    0.000828   0.205809   0.002639  -0.038703  -0.000091  -0.029763
    24  H   -0.000016  -0.020238  -0.000226   0.004739   0.000074  -0.006666
    25  O   -0.018658  -0.000006  -0.000021   0.000000   0.000577   0.000394
    26  H    0.000568   0.000002   0.000000   0.000000   0.000013  -0.000099
    27  H    0.056646   0.000237   0.000606  -0.000022  -0.001477  -0.003565
    28  O   -0.001355   0.000003   0.000111  -0.000002   0.003027  -0.000031
    29  H    0.000110   0.000000  -0.000005   0.000000  -0.000054  -0.000012
    30  H    0.002211  -0.000004   0.000049   0.000000   0.001464  -0.000099
               7          8          9         10         11         12
     1  O    0.000612  -0.028340   0.001807  -0.049092  -0.025354   0.003518
     2  C   -0.042591  -0.045491   0.356289   0.000464  -0.020578  -0.008678
     3  C   -0.047481   0.001195  -0.002803  -0.057550   0.000214   0.000024
     4  C    0.348391  -0.007555  -0.039769   0.007084   0.003400   0.000000
     5  C    0.001375   0.000062  -0.004118   0.371431   0.000480   0.000458
     6  C   -0.003953   0.354645  -0.043784   0.005652   0.318321  -0.042032
     7  H    0.615904   0.005084   0.006830  -0.000381  -0.000157   0.000004
     8  H    0.005084   0.613366   0.006407  -0.000219  -0.057987   0.006012
     9  H    0.006830   0.006407   0.588458   0.000173  -0.010248   0.005087
    10  H   -0.000381  -0.000219   0.000173   0.641855  -0.000144   0.000024
    11  C   -0.000157  -0.057987  -0.010248  -0.000144   4.965230   0.364465
    12  H    0.000004   0.006012   0.005087   0.000024   0.364465   0.565124
    13  H    0.000007  -0.005470   0.000011   0.000001   0.360711  -0.039891
    14  H    0.004060   0.000001   0.000214  -0.003561   0.000013  -0.000002
    15  O    0.000031  -0.000050   0.011909  -0.037632  -0.001242   0.003142
    16  H    0.000009   0.000023   0.000178  -0.008119   0.000083   0.000159
    17  O   -0.000010   0.003213   0.000122   0.000001   0.212235  -0.031095
    18  H    0.000001   0.003711   0.000064   0.000000  -0.025557   0.006465
    19  O    0.003432   0.000317  -0.000028   0.000548   0.000007   0.000000
    20  H    0.000085  -0.000003   0.000010   0.005829  -0.000001   0.000000
    21  O   -0.040807  -0.000025   0.001725  -0.000099  -0.000061  -0.000002
    22  H   -0.003312  -0.000007  -0.000268   0.000009  -0.000010   0.000000
    23  O   -0.000364   0.003711  -0.044098   0.000004  -0.000129   0.000123
    24  H   -0.000127  -0.000241  -0.002360   0.000000  -0.004685  -0.000200
    25  O    0.000000  -0.000027   0.000000   0.000875  -0.000094  -0.000033
    26  H    0.000000   0.000001   0.000000  -0.000030   0.000012   0.000002
    27  H    0.000000   0.000187  -0.000010  -0.001909  -0.000129   0.000211
    28  O    0.000000  -0.000001  -0.000003   0.001738  -0.000025   0.000154
    29  H    0.000000   0.000000   0.000000  -0.000092   0.000018   0.000308
    30  H    0.000000   0.000007   0.000000  -0.000170   0.000078   0.000100
              13         14         15         16         17         18
     1  O    0.001286   0.002780  -0.068043   0.004639   0.001217  -0.000017
     2  C    0.004433   0.002692  -0.009742   0.000279  -0.002303  -0.000863
     3  C   -0.000010   0.363128  -0.039595   0.005167  -0.000002   0.000001
     4  C   -0.000119  -0.038283   0.002463  -0.000389   0.000021   0.000001
     5  C    0.000032  -0.045464   0.195832  -0.014086  -0.000002  -0.000003
     6  C   -0.043661   0.000334   0.005915  -0.000865  -0.041235  -0.000787
     7  H    0.000007   0.004060   0.000031   0.000009  -0.000010   0.000001
     8  H   -0.005470   0.000001  -0.000050   0.000023   0.003213   0.003711
     9  H    0.000011   0.000214   0.011909   0.000178   0.000122   0.000064
    10  H    0.000001  -0.003561  -0.037632  -0.008119   0.000001   0.000000
    11  C    0.360711   0.000013  -0.001242   0.000083   0.212235  -0.025557
    12  H   -0.039891  -0.000002   0.003142   0.000159  -0.031095   0.006465
    13  H    0.627012   0.000000   0.000044  -0.000010  -0.027786  -0.010966
    14  H    0.000000   0.568392   0.005669   0.000027   0.000000   0.000000
    15  O    0.000044   0.005669   8.405698   0.196572   0.000006  -0.000001
    16  H   -0.000010   0.000027   0.196572   0.321714   0.000000   0.000000
    17  O   -0.027786   0.000000   0.000006   0.000000   8.232839   0.237347
    18  H   -0.010966   0.000000  -0.000001   0.000000   0.237347   0.382332
    19  O    0.000000  -0.031960   0.001595  -0.000078   0.000000   0.000000
    20  H    0.000000  -0.007358  -0.000078  -0.000013   0.000000   0.000000
    21  O    0.000000   0.003282   0.000072   0.000008   0.000000   0.000000
    22  H    0.000000  -0.000107   0.000006  -0.000001   0.000005   0.000000
    23  O   -0.000210  -0.000050   0.000111  -0.000003  -0.015623   0.001601
    24  H    0.000627   0.000004  -0.000009   0.000000   0.045851  -0.002360
    25  O    0.000555   0.000000  -0.000048  -0.000027   0.000000   0.000000
    26  H    0.001076   0.000000   0.000003  -0.000014   0.000000   0.000000
    27  H    0.001884  -0.000018   0.000168   0.000609   0.000005   0.000000
    28  O   -0.000005   0.000001  -0.025135   0.077746   0.000000   0.000000
    29  H    0.000007   0.000000   0.002118  -0.004598   0.000000   0.000000
    30  H   -0.000066  -0.000001   0.001691  -0.004660   0.000000   0.000000
              19         20         21         22         23         24
     1  O    0.001426  -0.000090   0.000028  -0.000009   0.000828  -0.000016
     2  C    0.001373  -0.000269  -0.032963  -0.010251   0.205809  -0.020238
     3  C    0.214258  -0.021844  -0.028095   0.006333   0.002639  -0.000226
     4  C   -0.035610   0.007197   0.216966  -0.028021  -0.038703   0.004739
     5  C   -0.042715  -0.002896   0.000892  -0.000315  -0.000091   0.000074
     6  C    0.001372  -0.000019   0.003937   0.000787  -0.029763  -0.006666
     7  H    0.003432   0.000085  -0.040807  -0.003312  -0.000364  -0.000127
     8  H    0.000317  -0.000003  -0.000025  -0.000007   0.003711  -0.000241
     9  H   -0.000028   0.000010   0.001725  -0.000268  -0.044098  -0.002360
    10  H    0.000548   0.005829  -0.000099   0.000009   0.000004   0.000000
    11  C    0.000007  -0.000001  -0.000061  -0.000010  -0.000129  -0.004685
    12  H    0.000000   0.000000  -0.000002   0.000000   0.000123  -0.000200
    13  H    0.000000   0.000000   0.000000   0.000000  -0.000210   0.000627
    14  H   -0.031960  -0.007358   0.003282  -0.000107  -0.000050   0.000004
    15  O    0.001595  -0.000078   0.000072   0.000006   0.000111  -0.000009
    16  H   -0.000078  -0.000013   0.000008  -0.000001  -0.000003   0.000000
    17  O    0.000000   0.000000   0.000000   0.000005  -0.015623   0.045851
    18  H    0.000000   0.000000   0.000000   0.000000   0.001601  -0.002360
    19  O    8.284588   0.230194   0.000709  -0.000137  -0.000008   0.000001
    20  H    0.230194   0.393550  -0.000160   0.000013   0.000001   0.000000
    21  O    0.000709  -0.000160   8.299033   0.233857  -0.003161   0.000021
    22  H   -0.000137   0.000013   0.233857   0.379119   0.017366  -0.000316
    23  O   -0.000008   0.000001  -0.003161   0.017366   8.356949   0.223687
    24  H    0.000001   0.000000   0.000021  -0.000316   0.223687   0.341825
    25  O    0.000000   0.000000   0.000000   0.000000   0.000000   0.000000
    26  H    0.000000   0.000000   0.000000   0.000000   0.000000   0.000000
    27  H   -0.000030  -0.000003   0.000000   0.000000  -0.000001   0.000000
    28  O    0.000000   0.000000   0.000000   0.000000   0.000000   0.000000
    29  H    0.000000   0.000000   0.000000   0.000000   0.000000   0.000000
    30  H   -0.000001  -0.000001   0.000000   0.000000   0.000000   0.000000
              25         26         27         28         29         30
     1  O   -0.018658   0.000568   0.056646  -0.001355   0.000110   0.002211
     2  C   -0.000006   0.000002   0.000237   0.000003   0.000000  -0.000004
     3  C   -0.000021   0.000000   0.000606   0.000111  -0.000005   0.000049
     4  C    0.000000   0.000000  -0.000022  -0.000002   0.000000   0.000000
     5  C    0.000577   0.000013  -0.001477   0.003027  -0.000054   0.001464
     6  C    0.000394  -0.000099  -0.003565  -0.000031  -0.000012  -0.000099
     7  H    0.000000   0.000000   0.000000   0.000000   0.000000   0.000000
     8  H   -0.000027   0.000001   0.000187  -0.000001   0.000000   0.000007
     9  H    0.000000   0.000000  -0.000010  -0.000003   0.000000   0.000000
    10  H    0.000875  -0.000030  -0.001909   0.001738  -0.000092  -0.000170
    11  C   -0.000094   0.000012  -0.000129  -0.000025   0.000018   0.000078
    12  H   -0.000033   0.000002   0.000211   0.000154   0.000308   0.000100
    13  H    0.000555   0.001076   0.001884  -0.000005   0.000007  -0.000066
    14  H    0.000000   0.000000  -0.000018   0.000001   0.000000  -0.000001
    15  O   -0.000048   0.000003   0.000168  -0.025135   0.002118   0.001691
    16  H   -0.000027  -0.000014   0.000609   0.077746  -0.004598  -0.004660
    17  O    0.000000   0.000000   0.000005   0.000000   0.000000   0.000000
    18  H    0.000000   0.000000   0.000000   0.000000   0.000000   0.000000
    19  O    0.000000   0.000000  -0.000030   0.000000   0.000000  -0.000001
    20  H    0.000000   0.000000  -0.000003   0.000000   0.000000  -0.000001
    21  O    0.000000   0.000000   0.000000   0.000000   0.000000   0.000000
    22  H    0.000000   0.000000   0.000000   0.000000   0.000000   0.000000
    23  O    0.000000   0.000000  -0.000001   0.000000   0.000000   0.000000
    24  H    0.000000   0.000000   0.000000   0.000000   0.000000   0.000000
    25  O    8.330366   0.246476   0.198205  -0.027250   0.001181   0.081159
    26  H    0.246476   0.368828  -0.012097   0.001353   0.000046  -0.003589
    27  H    0.198205  -0.012097   0.326440   0.006406   0.000148  -0.007267
    28  O   -0.027250   0.001353   0.006406   8.331046   0.244677   0.199205
    29  H    0.001181   0.000046   0.000148   0.244677   0.375292  -0.015135
    30  H    0.081159  -0.003589  -0.007267   0.199205  -0.015135   0.326094
 Mulliken charges:
               1
     1  O   -0.549431
     2  C    0.083248
     3  C    0.120508
     4  C    0.128883
     5  C    0.270993
     6  C    0.112083
     7  H    0.153358
     8  H    0.147474
     9  H    0.168204
    10  H    0.123315
    11  C   -0.078867
    12  H    0.166555
    13  H    0.130509
    14  H    0.176209
    15  O   -0.651470
    16  H    0.425646
    17  O   -0.614807
    18  H    0.409032
    19  O   -0.629252
    20  H    0.395855
    21  O   -0.655159
    22  H    0.405260
    23  O   -0.680627
    24  H    0.420613
    25  O   -0.813625
    26  H    0.397452
    27  H    0.434779
    28  O   -0.811661
    29  H    0.395989
    30  H    0.418934
 Sum of Mulliken charges =   0.00000
 Mulliken charges with hydrogens summed into heavy atoms:
               1
     1  O   -0.549431
     2  C    0.251452
     3  C    0.296717
     4  C    0.282241
     5  C    0.394307
     6  C    0.259557
    11  C    0.218197
    15  O   -0.225823
    17  O   -0.205775
    19  O   -0.233397
    21  O   -0.249899
    23  O   -0.260014
    25  O    0.018606
    28  O    0.003262
 Electronic spatial extent (au):  <R**2>=           3265.5574
 Charge=              0.0000 electrons
 Dipole moment (field-independent basis, Debye):
    X=              1.9252    Y=              4.2402    Z=             -1.3132  Tot=              4.8385
 Quadrupole moment (field-independent basis, Debye-Ang):
   XX=            -92.5900   YY=            -70.9269   ZZ=            -86.6751
   XY=              6.0774   XZ=              1.5872   YZ=             -1.8892
 Traceless Quadrupole moment (field-independent basis, Debye-Ang):
   XX=             -9.1926   YY=             12.4704   ZZ=             -3.2778
   XY=              6.0774   XZ=              1.5872   YZ=             -1.8892
 Octapole moment (field-independent basis, Debye-Ang**2):
  XXX=             -4.3922  YYY=             -7.8420  ZZZ=              7.8125  XYY=             23.8287
  XXY=             54.2844  XXZ=              7.3980  XZZ=              7.9614  YZZ=             25.2339
  YYZ=            -35.3552  XYZ=              4.1640
 Hexadecapole moment (field-independent basis, Debye-Ang**3):
 XXXX=          -2024.4472 YYYY=          -1175.5191 ZZZZ=           -465.2168 XXXY=            148.1382
 XXXZ=            -12.5669 YYYX=            -42.2316 YYYZ=            -47.2061 ZZZX=             21.9054
 ZZZY=              0.1445 XXYY=           -558.1068 XXZZ=           -397.6066 YYZZ=           -278.0582
 XXYZ=             15.0721 YYXZ=            -13.2323 ZZXY=             11.3252
 N-N= 1.096816834043D+03 E-N=-4.165973273669D+03  KE= 8.328866841251D+02
 Calling FoFJK, ICntrl=      2127 FMM=F ISym2X=0 I1Cent= 0 IOpClX= 0 NMat=1 NMatS=1 NMatT=0.
 ***** Axes restored to original set *****
 -------------------------------------------------------------------
 Center     Atomic                   Forces (Hartrees/Bohr)
 Number     Number              X              Y              Z
 -------------------------------------------------------------------
      1        8           0.000898265    0.055650875    0.007495175
      2        6           0.001499884    0.000049075    0.002742763
      3        6          -0.007660642    0.039825535   -0.016640562
      4        6          -0.002165311    0.033979609    0.001678312
      5        6           0.016333215   -0.078211832    0.032262240
      6        6          -0.004225721   -0.027027248   -0.004389845
      7        1           0.003159741   -0.010553538   -0.005722116
      8        1          -0.002765637    0.002024098    0.000580348
      9        1          -0.006314839   -0.008805128   -0.001380037
     10        1           0.001424686   -0.003833817   -0.008077908
     11        6          -0.003045718   -0.007693674    0.000098635
     12        1          -0.000177318    0.003998157    0.000519195
     13        1          -0.002704264   -0.003033978   -0.001766376
     14        1           0.007901944   -0.001027686    0.007740294
     15        8          -0.007774117    0.023860081   -0.013954066
     16        1           0.001832204   -0.011746652    0.003477039
     17        8           0.006726583   -0.000138767   -0.002586887
     18        1          -0.001648225    0.003931921    0.005422963
     19        8           0.006016066   -0.000036542    0.001575892
     20        1           0.002854969    0.001196266   -0.000175875
     21        8           0.002086304   -0.004617521    0.002395986
     22        1          -0.004089841   -0.003770912    0.000247153
     23        8          -0.003561499   -0.005361175   -0.008082273
     24        1          -0.005973214    0.001454169   -0.001725421
     25        8          -0.014613359   -0.020105406    0.003184965
     26        1           0.007597345    0.004490257    0.000316176
     27        1           0.008311904    0.021960733   -0.012672747
     28        8          -0.022425532    0.010539797    0.022554596
     29        1           0.009303435   -0.001761222   -0.002847490
     30        1           0.013198691   -0.015235475   -0.012270128
 -------------------------------------------------------------------
 Cartesian Forces:  Max     0.078211832 RMS     0.014744508

 GradGradGradGradGradGradGradGradGradGradGradGradGradGradGradGradGradGrad
 Berny optimization.
 FormGI is forming the generalized inverse of G from B-inverse, IUseBI=4.
 Internal  Forces:  Max     0.036329702 RMS     0.006482897
 Search for a local minimum.
 Step number   1 out of a maximum of  180
 All quantities printed in internal units (Hartrees-Bohrs-Radians)
 Mixed Optimization -- RFO/linear search
 Second derivative matrix not updated -- first step.
 ITU=  0
     Eigenvalues ---    0.00358   0.00433   0.00724   0.00811   0.00896
     Eigenvalues ---    0.01158   0.01173   0.01182   0.01262   0.01345
     Eigenvalues ---    0.01417   0.01689   0.02041   0.02742   0.03201
     Eigenvalues ---    0.03695   0.04284   0.04486   0.04724   0.04892
     Eigenvalues ---    0.04974   0.05095   0.05185   0.05420   0.05700
     Eigenvalues ---    0.05706   0.06028   0.06124   0.06493   0.06573
     Eigenvalues ---    0.06751   0.07077   0.07586   0.08091   0.09327
     Eigenvalues ---    0.09891   0.10110   0.10544   0.11319   0.11587
     Eigenvalues ---    0.12580   0.13888   0.14108   0.15817   0.16000
     Eigenvalues ---    0.16000   0.16000   0.16000   0.16664   0.17030
     Eigenvalues ---    0.17599   0.19228   0.20449   0.21971   0.25736
     Eigenvalues ---    0.26753   0.28076   0.28778   0.29347   0.32520
     Eigenvalues ---    0.33885   0.33996   0.34000   0.34063   0.34170
     Eigenvalues ---    0.34182   0.34204   0.35273   0.39535   0.39697
     Eigenvalues ---    0.39791   0.41153   0.41543   0.50902   0.51030
     Eigenvalues ---    0.51756   0.52256   0.52291   0.52811   0.54134
     Eigenvalues ---    0.55473   0.554731000.000001000.000001000.00000
     Eigenvalues --- 1000.000001000.000001000.000001000.000001000.00000
     Eigenvalues --- 1000.000001000.000001000.000001000.000001000.00000
     Eigenvalues --- 1000.000001000.000001000.000001000.000001000.00000
     Eigenvalues --- 1000.000001000.000001000.000001000.000001000.00000
     Eigenvalues --- 1000.000001000.000001000.000001000.000001000.00000
     Eigenvalues --- 1000.000001000.000001000.000001000.000001000.00000
     Eigenvalues --- 1000.000001000.000001000.000001000.000001000.00000
     Eigenvalues --- 1000.000001000.000001000.000001000.000001000.00000
     Eigenvalues --- 1000.000001000.000001000.000001000.000001000.00000
     Eigenvalues --- 1000.000001000.000001000.000001000.000001000.00000
     Eigenvalues --- 1000.000001000.000001000.000001000.000001000.00000
     Eigenvalues --- 1000.000001000.000001000.000001000.000001000.00000
     Eigenvalues --- 1000.000001000.000001000.000001000.000001000.00000
     Eigenvalues --- 1000.000001000.000001000.000001000.000001000.00000
     Eigenvalues --- 1000.000001000.000001000.000001000.000001000.00000
     Eigenvalues --- 1000.000001000.000001000.000001000.000001000.00000
     Eigenvalues --- 1000.000001000.000001000.000001000.000001000.00000
     Eigenvalues --- 1000.000001000.00000
 RFO step:  Lambda=-3.25775284D-02 EMin= 3.58095532D-03
 Linear search not attempted -- first point.
 Maximum step size (   0.300) exceeded in Quadratic search.
    -- Step size scaled by   0.821
 Iteration  1 RMS(Cart)=  0.04449625 RMS(Int)=  0.00134952
 Iteration  2 RMS(Cart)=  0.00170458 RMS(Int)=  0.00065067
 Iteration  3 RMS(Cart)=  0.00000254 RMS(Int)=  0.00065067
 Iteration  4 RMS(Cart)=  0.00000000 RMS(Int)=  0.00065067
 Iteration  1 RMS(Cart)=  0.00005974 RMS(Int)=  0.00009101
 Iteration  2 RMS(Cart)=  0.00004681 RMS(Int)=  0.00009792
 Iteration  3 RMS(Cart)=  0.00003680 RMS(Int)=  0.00011191
 Iteration  4 RMS(Cart)=  0.00002902 RMS(Int)=  0.00012688
 Iteration  5 RMS(Cart)=  0.00002295 RMS(Int)=  0.00014057
 Iteration  6 RMS(Cart)=  0.00001820 RMS(Int)=  0.00015236
 Iteration  7 RMS(Cart)=  0.00001446 RMS(Int)=  0.00016224
 Iteration  8 RMS(Cart)=  0.00001152 RMS(Int)=  0.00017041
 Iteration  9 RMS(Cart)=  0.00000919 RMS(Int)=  0.00017710
 Iteration 10 RMS(Cart)=  0.00000735 RMS(Int)=  0.00018257
 Iteration 11 RMS(Cart)=  0.00000588 RMS(Int)=  0.00018701
 Iteration 12 RMS(Cart)=  0.00000472 RMS(Int)=  0.00019062
 Iteration 13 RMS(Cart)=  0.00000379 RMS(Int)=  0.00019354
 Iteration 14 RMS(Cart)=  0.00000304 RMS(Int)=  0.00019591
 Iteration 15 RMS(Cart)=  0.00000245 RMS(Int)=  0.00019783
 Iteration 16 RMS(Cart)=  0.00000197 RMS(Int)=  0.00019938
 Iteration 17 RMS(Cart)=  0.00000159 RMS(Int)=  0.00020063
 Iteration 18 RMS(Cart)=  0.00000128 RMS(Int)=  0.00020165
 Iteration 19 RMS(Cart)=  0.00000103 RMS(Int)=  0.00020247
 Iteration 20 RMS(Cart)=  0.00000083 RMS(Int)=  0.00020313
 Variable       Old X    -DE/DX   Delta X   Delta X   Delta X     New X
                                 (Linear)    (Quad)   (Total)
    R1        2.78249  -0.01593   0.00000  -0.03462  -0.03342   2.74907
    R2        2.90468  -0.02922   0.00000  -0.08070  -0.08003   2.82466
    R3        3.47710   0.00209   0.00000   0.00938   0.00964   3.48673
    R4        2.89457  -0.00483   0.00000  -0.01575  -0.01707   2.87749
    R5        2.90619   0.00052   0.00000  -0.00361  -0.00401   2.90218
    R6        2.07023  -0.00068   0.00000  -0.00148  -0.00148   2.06875
    R7        2.71839  -0.00655   0.00000  -0.01249  -0.01249   2.70589
    R8        2.90465  -0.00484   0.00000  -0.00663  -0.00730   2.89735
    R9        2.75601   0.03633   0.00000   0.08026   0.08109   2.83709
   R10        2.07225  -0.00126   0.00000  -0.00277  -0.00277   2.06948
   R11        2.71967  -0.00500   0.00000  -0.00956  -0.00956   2.71011
   R12        2.07524   0.00125   0.00000   0.00277   0.00277   2.07801
   R13        2.72190  -0.00406   0.00000  -0.00780  -0.00780   2.71410
   R14        2.07330   0.00308   0.00000   0.00678   0.00678   2.08008
   R15        2.68398  -0.01160   0.00000  -0.02154  -0.02129   2.66269
   R16        2.07337  -0.00037   0.00000  -0.00082  -0.00082   2.07254
   R17        2.89285   0.00078   0.00000   0.00197   0.00197   2.89482
   R18        2.06987  -0.00046   0.00000  -0.00100  -0.00100   2.06887
   R19        2.07044   0.00259   0.00000   0.00568   0.00568   2.07612
   R20        2.69509   0.00594   0.00000   0.01090   0.01090   2.70598
   R21        1.83790   0.01069   0.00000   0.01694   0.01678   1.85468
   R22        3.47079  -0.00169   0.00000  -0.00596  -0.00620   3.46459
   R23        1.84355  -0.00588   0.00000  -0.00870  -0.00870   1.83486
   R24        1.83830  -0.00301   0.00000  -0.00441  -0.00441   1.83390
   R25        1.84834  -0.00556   0.00000  -0.00830  -0.00830   1.84004
   R26        1.85540  -0.00635   0.00000  -0.00961  -0.00961   1.84579
   R27        1.81414   0.00621   0.00000   0.00868   0.00868   1.82282
   R28        1.81414   0.01557   0.00000   0.02222   0.02273   1.83687
   R29        3.43930  -0.00222   0.00000  -0.02158  -0.02242   3.41688
   R30        3.31743   0.01114   0.00000   0.13096   0.13134   3.44876
   R31        1.81414   0.00657   0.00000   0.00919   0.00919   1.82332
   R32        1.81414   0.02227   0.00000   0.03189   0.03160   1.84574
    A1        1.89955   0.01395   0.00000   0.06346   0.06474   1.96429
    A2        1.99031  -0.00813   0.00000  -0.02826  -0.02803   1.96228
    A3        2.30071  -0.00650   0.00000  -0.02974  -0.03137   2.26934
    A4        1.91643   0.00574   0.00000   0.00696   0.00737   1.92380
    A5        1.91925   0.00014   0.00000  -0.00162  -0.00166   1.91759
    A6        1.89041  -0.00939   0.00000  -0.04375  -0.04406   1.84635
    A7        1.95038  -0.00461   0.00000  -0.01059  -0.01138   1.93901
    A8        1.94570  -0.00029   0.00000  -0.01453  -0.01468   1.93102
    A9        1.83958   0.00816   0.00000   0.06382   0.06422   1.90381
   A10        1.90284   0.00688   0.00000   0.04530   0.04653   1.94937
   A11        1.91105   0.00013   0.00000  -0.00697  -0.00683   1.90423
   A12        1.89624  -0.00763   0.00000  -0.03655  -0.03669   1.85955
   A13        1.94338  -0.00594   0.00000  -0.03044  -0.03067   1.91271
   A14        1.94265  -0.00046   0.00000  -0.01835  -0.01831   1.92434
   A15        1.86683   0.00683   0.00000   0.04588   0.04595   1.91278
   A16        2.00278  -0.00923   0.00000  -0.03197  -0.03307   1.96971
   A17        1.89472  -0.00030   0.00000  -0.00545  -0.00634   1.88838
   A18        1.89862   0.00748   0.00000   0.01840   0.01806   1.91668
   A19        1.90846  -0.00013   0.00000  -0.01374  -0.01439   1.89407
   A20        1.92591  -0.00067   0.00000  -0.01530  -0.01431   1.91160
   A21        1.82467   0.00410   0.00000   0.05662   0.05643   1.88110
   A22        2.05840  -0.01663   0.00000  -0.06241  -0.06411   1.99428
   A23        1.79776   0.00170   0.00000   0.00510   0.00545   1.80321
   A24        1.88901   0.01335   0.00000   0.03154   0.02879   1.91781
   A25        1.87395   0.00937   0.00000   0.04413   0.04435   1.91830
   A26        1.97904  -0.00878   0.00000  -0.04817  -0.04828   1.93076
   A27        1.84503   0.00401   0.00000   0.04834   0.04843   1.89346
   A28        2.00094  -0.00153   0.00000  -0.01022  -0.01004   1.99090
   A29        1.83336   0.00354   0.00000   0.01257   0.01258   1.84594
   A30        1.87179  -0.00737   0.00000  -0.02959  -0.02936   1.84243
   A31        1.90730  -0.00522   0.00000  -0.00930  -0.00936   1.89795
   A32        1.95267   0.00865   0.00000   0.01646   0.01581   1.96849
   A33        1.89147   0.00180   0.00000   0.02169   0.02178   1.91325
   A34        1.92573  -0.00138   0.00000  -0.01080  -0.01082   1.91491
   A35        1.93910  -0.00445   0.00000  -0.01489  -0.01509   1.92401
   A36        1.93878   0.00512   0.00000   0.01632   0.01629   1.95507
   A37        1.86172   0.00237   0.00000   0.01024   0.01022   1.87194
   A38        1.89008  -0.00408   0.00000  -0.02363  -0.02355   1.86653
   A39        1.90619   0.00231   0.00000   0.02243   0.02247   1.92865
   A40        1.84378   0.00047   0.00000  -0.00339  -0.00262   1.84116
   A41        2.86808  -0.00330   0.00000  -0.00292  -0.00270   2.86538
   A42        1.86449   0.00529   0.00000   0.02258   0.02258   1.88707
   A43        1.87467  -0.00046   0.00000  -0.00197  -0.00197   1.87270
   A44        1.82820   0.00019   0.00000   0.00079   0.00079   1.82899
   A45        1.84752  -0.00035   0.00000  -0.00147  -0.00147   1.84605
   A46        1.91114  -0.00883   0.00000  -0.04755  -0.04718   1.86396
   A47        2.06010  -0.00084   0.00000  -0.00872  -0.00872   2.05139
   A48        1.82193   0.00339   0.00000  -0.00338  -0.00382   1.81811
   A49        1.72510   0.00207   0.00000   0.01058   0.01058   1.73568
   A50        1.65909  -0.00151   0.00000   0.00647   0.00581   1.66490
   A51        1.91114  -0.00589   0.00000  -0.04677  -0.04706   1.86408
   A52        2.71908  -0.00623   0.00000  -0.03098  -0.03053   2.68855
   A53        3.18966  -0.00634   0.00000  -0.08532  -0.08449   3.10517
   A54        3.25824  -0.00192   0.00000  -0.03112  -0.03224   3.22600
   A55        3.06798  -0.00298   0.00000  -0.01383  -0.01355   3.05443
   A56        3.27119  -0.00167   0.00000  -0.01111  -0.01199   3.25920
    D1        0.96345  -0.00504   0.00000  -0.05514  -0.05325   0.91020
    D2        3.02272  -0.00108   0.00000  -0.02996  -0.02899   2.99373
    D3       -1.31205   0.00922   0.00000   0.03836   0.04023  -1.27183
    D4       -2.57166  -0.00793   0.00000  -0.05155  -0.05034  -2.62201
    D5       -0.51239  -0.00397   0.00000  -0.02637  -0.02608  -0.53847
    D6        1.43602   0.00633   0.00000   0.04195   0.04313   1.47915
    D7        0.01366  -0.00773   0.00000   0.00000   0.00001   0.01368
    D8       -2.08014  -0.00280   0.00000   0.00881   0.00885  -2.07129
    D9        2.19308  -0.00324   0.00000  -0.00864  -0.00850   2.18458
   D10       -2.63874  -0.00520   0.00000  -0.01206  -0.01163  -2.65038
   D11        1.55064  -0.00026   0.00000  -0.00325  -0.00279   1.54785
   D12       -0.45933  -0.00071   0.00000  -0.02070  -0.02015  -0.47948
   D13       -2.70265   0.00068   0.00000  -0.00331  -0.00419  -2.70684
   D14       -0.03452   0.00050   0.00000  -0.00424  -0.00331  -0.03783
   D15       -0.66700   0.00206   0.00000  -0.00591  -0.00619  -0.67319
   D16        1.96598   0.00407   0.00000   0.02581   0.02531   1.99129
   D17        0.85784  -0.00214   0.00000   0.01030   0.00903   0.86687
   D18       -1.28292   0.00466   0.00000   0.05454   0.05373  -1.22919
   D19        3.02446  -0.00382   0.00000  -0.01850  -0.01938   3.00508
   D20       -1.29510  -0.00029   0.00000   0.02002   0.01951  -1.27559
   D21        2.84732   0.00651   0.00000   0.06426   0.06421   2.91153
   D22        0.87152  -0.00197   0.00000  -0.00878  -0.00890   0.86262
   D23        2.98622  -0.00489   0.00000  -0.03087  -0.03123   2.95498
   D24        0.84546   0.00191   0.00000   0.01337   0.01346   0.85892
   D25       -1.13035  -0.00657   0.00000  -0.05967  -0.05965  -1.19000
   D26       -0.85680  -0.00531   0.00000  -0.03307  -0.03274  -0.88954
   D27        1.19541  -0.00544   0.00000  -0.03011  -0.02960   1.16581
   D28       -2.99299  -0.00116   0.00000   0.00131   0.00168  -2.99131
   D29        1.27776  -0.00424   0.00000  -0.03745  -0.03745   1.24031
   D30       -2.95322  -0.00437   0.00000  -0.03448  -0.03431  -2.98753
   D31       -0.85843  -0.00009   0.00000  -0.00306  -0.00302  -0.86146
   D32       -2.95186   0.00283   0.00000   0.02647   0.02631  -2.92555
   D33       -0.89965   0.00271   0.00000   0.02944   0.02944  -0.87020
   D34        1.19514   0.00699   0.00000   0.06086   0.06073   1.25586
   D35       -3.04658   0.00006   0.00000   0.01996   0.01867  -3.02791
   D36       -0.93624   0.00084   0.00000  -0.00917  -0.00831  -0.94455
   D37        1.18306   0.00022   0.00000   0.00997   0.01039   1.19345
   D38       -0.01112   0.00446   0.00000   0.00000  -0.00001  -0.01113
   D39        2.12221  -0.00255   0.00000  -0.04022  -0.04056   2.08166
   D40       -2.16321   0.00193   0.00000   0.01156   0.01103  -2.15218
   D41        2.11892   0.00156   0.00000  -0.01321  -0.01282   2.10609
   D42       -2.03094  -0.00544   0.00000  -0.05344  -0.05336  -2.08430
   D43       -0.03318  -0.00096   0.00000  -0.00165  -0.00178  -0.03495
   D44       -2.13109   0.00551   0.00000   0.01722   0.01763  -2.11347
   D45        0.00224  -0.00150   0.00000  -0.02300  -0.02292  -0.02068
   D46        2.00000   0.00298   0.00000   0.02878   0.02867   2.02867
   D47       -0.96501   0.00531   0.00000   0.05332   0.05138  -0.91363
   D48       -2.98336   0.00621   0.00000   0.05174   0.05225  -2.93111
   D49        1.26847   0.00026   0.00000  -0.00856  -0.00694   1.26152
   D50       -3.07539   0.00437   0.00000   0.05139   0.04946  -3.02593
   D51        1.18945   0.00528   0.00000   0.04980   0.05032   1.23977
   D52       -0.84191  -0.00067   0.00000  -0.01049  -0.00887  -0.85078
   D53        1.12649   0.00001   0.00000   0.02591   0.02389   1.15038
   D54       -0.89185   0.00092   0.00000   0.02433   0.02475  -0.86710
   D55       -2.92321  -0.00503   0.00000  -0.03597  -0.03444  -2.95765
   D56       -2.87096   0.00073   0.00000   0.00014   0.00106  -2.86990
   D57        1.31681  -0.00257   0.00000  -0.02101  -0.02188   1.29493
   D58       -0.80957   0.00059   0.00000  -0.00228  -0.00234  -0.81190
   D59        0.84485   0.00400   0.00000   0.02294   0.02371   0.86856
   D60        3.05636  -0.00290   0.00000  -0.01540  -0.01553   3.04083
   D61       -1.17662  -0.00111   0.00000  -0.00763  -0.00827  -1.18489
   D62       -1.26816  -0.00849   0.00000  -0.03838  -0.03969  -1.30786
   D63        2.69657   0.01001   0.00000   0.06060   0.06068   2.75725
   D64        0.64826   0.00082   0.00000   0.00239   0.00358   0.65184
   D65       -1.15339   0.00055   0.00000   0.01029   0.01016  -1.14323
   D66        0.90774  -0.00017   0.00000   0.00681   0.00678   0.91453
   D67        3.03348   0.00324   0.00000   0.03643   0.03632   3.06980
   D68        1.05491  -0.00086   0.00000  -0.01310  -0.01325   1.04165
   D69        3.11604  -0.00159   0.00000  -0.01657  -0.01663   3.09941
   D70       -1.04141   0.00183   0.00000   0.01304   0.01290  -1.02850
   D71       -3.12425  -0.00078   0.00000  -0.00005   0.00012  -3.12413
   D72       -1.06312  -0.00151   0.00000  -0.00353  -0.00326  -1.06638
   D73        1.06262   0.00191   0.00000   0.02609   0.02628   1.08890
   D74       -1.45234   0.00109   0.00000   0.01404   0.01386  -1.43848
   D75        2.71350   0.00228   0.00000   0.03270   0.03263   2.74614
   D76        0.69248   0.00046   0.00000   0.02146   0.02170   0.71419
   D77        0.79894  -0.00762   0.00000  -0.02884  -0.02783   0.77111
   D78        1.57017  -0.00689   0.00000  -0.03864  -0.03838   1.53178
   D79       -0.36131  -0.00088   0.00000   0.00633   0.00702  -0.35429
   D80        1.98796  -0.00097   0.00000   0.00153   0.00154   1.98950
   D81        0.20172  -0.00103   0.00000   0.00521   0.00486   0.20658
   D82       -0.35228   0.00369   0.00000   0.02386   0.02339  -0.32889
   D83        0.43460  -0.00031   0.00000  -0.01234  -0.01243   0.42216
   D84       -1.33248  -0.00101   0.00000  -0.01863  -0.01825  -1.35073
         Item               Value     Threshold  Converged?
 Maximum Force            0.034477     0.000450     NO 
 RMS     Force            0.006337     0.000300     NO 
 Maximum Displacement     0.156566     0.001800     NO 
 RMS     Displacement     0.045129     0.001200     NO 
 Predicted change in Energy=-1.831857D-02
 GradGradGradGradGradGradGradGradGradGradGradGradGradGradGradGradGradGrad

                          Input orientation:                          
 ---------------------------------------------------------------------
 Center     Atomic      Atomic             Coordinates (Angstroms)
 Number     Number       Type             X           Y           Z
 ---------------------------------------------------------------------
      1          8           0       -0.002687   -1.623884   -0.473455
      2          6           0        0.484799    0.768921    0.235205
      3          6           0       -1.897464   -0.060791   -0.110316
      4          6           0       -0.939244    1.135044   -0.160631
      5          6           0       -1.192735   -1.319407    0.305884
      6          6           0        0.948740   -0.472969   -0.540073
      7          1           0       -0.920470    1.524620   -1.188773
      8          1           0        1.030235   -0.214868   -1.602894
      9          1           0        0.539393    0.602042    1.315769
     10          1           0       -1.842565   -2.189618    0.126823
     11          6           0        2.289563   -1.018583   -0.038938
     12          1           0        2.204886   -1.293410    1.017415
     13          1           0        2.560034   -1.928657   -0.591757
     14          1           0       -2.706342    0.157495    0.594920
     15          8           0       -0.869970   -1.277371    1.676807
     16          1           0       -0.757959   -2.213779    1.948566
     17          8           0        3.334851   -0.044543   -0.134252
     18          1           0        3.672463   -0.051969   -1.044600
     19          8           0       -2.437247   -0.207425   -1.430869
     20          1           0       -3.215152   -0.783573   -1.362295
     21          8           0       -1.429310    2.179223    0.695123
     22          1           0       -0.730604    2.857317    0.685126
     23          8           0        1.287759    1.904889   -0.104139
     24          1           0        2.212734    1.631944    0.050662
     25          8           0        0.398298   -4.404744   -0.636048
     26          1           0        1.330170   -4.600383   -0.790273
     27          1           0        0.318511   -3.437153   -0.588699
     28          8           0       -0.291890   -3.985402    2.022216
     29          1           0        0.565556   -3.905629    2.457394
     30          1           0       -0.115875   -4.073842    1.065564
 ---------------------------------------------------------------------
                    Distance matrix (angstroms):
                    1          2          3          4          5
     1  O    0.000000
     2  C    2.542707   0.000000
     3  C    2.483004   2.546171   0.000000
     4  C    2.930304   1.522705   1.533213   0.000000
     5  C    1.454747   2.679595   1.501326   2.511220   0.000000
     6  C    1.494743   1.535769   2.907827   2.508817   2.453165
     7  H    3.356648   2.138592   2.152002   1.099635   3.224378
     8  H    2.080358   2.154982   3.289826   2.789486   3.131300
     9  H    2.906875   1.094736   2.900231   2.156435   2.777068
    10  H    2.016318   3.765809   2.142697   3.457166   1.100731
    11  C    2.410313   2.554897   4.295773   3.883055   3.512236
    12  H    2.684266   2.797098   4.429492   4.143758   3.471423
    13  H    2.583490   3.502484   4.856954   4.670876   3.906434
    14  H    3.409470   3.269039   1.095121   2.156177   2.134429
    15  O    2.344329   2.846213   2.393663   3.033270   1.409033
    16  H    2.604725   3.657396   3.189486   3.961842   1.920243
    17  O    3.707902   2.986808   5.232396   4.433961   4.724197
    18  H    4.037804   3.531709   5.647748   4.843371   5.205801
    19  O    2.974908   3.502485   1.434129   2.379021   2.408656
    20  H    3.437454   4.318783   1.956059   3.210117   2.675839
    21  O    4.226636   2.421629   2.426018   1.436241   3.528157
    22  H    4.685439   2.457851   3.241859   1.930041   4.219291
    23  O    3.775432   1.431896   3.742938   2.356988   4.088650
    24  H    3.972809   1.940264   4.448033   3.197893   4.513628
    25  O    2.814322   5.247225   4.941341   5.718767   3.596933
    26  H    3.276649   5.531337   5.611404   6.200147   4.281520
    27  H    1.845099   4.289233   4.066843   4.761321   2.751180
[...]
 00034130,-0.00035394,-0.00034310,-0.00018512,0.00005370,0.00006649,-0.
 00098063,0.00424413,0.00108756,0.00136602,0.00094379,-0.00084067,-0.00
 025160,-0.00047305,-0.00012814,-0.00010490,0.00000676,-0.00012753,0.00
 079867,0.00029656,-0.00026218,-0.00052595,0.00041083,0.00080374,0.1381
 1816,-0.07787617,0.04790296,-0.09123019,0.07853239,0.00125359,0.000690
 14,-0.00058921,0.01180560,0.00043323,0.00156297,0.00013850,-0.00000232
 ,0.00060224,0.00044236,0.00091537,-0.00094841,-0.00061204,0.00016865,0
 .00108197,-0.00152896,-0.00012045,0.00093124,0.00011395,-0.00011241,0.
 00039537,-0.00011631,-0.00008256,-0.00061464,0.00111857,-0.00021057,0.
 00033622,0.00011887,-0.00004148,-0.00010609,-0.00173106,-0.00218675,0.
 00122497,0.00010823,0.00057373,-0.00031299,0.00025925,0.00038939,-0.00
 003472,0.00000151,-0.00007713,-0.00002073,-0.00012974,-0.00023692,-0.0
 0055723,-0.00004071,0.00001604,0.00006478,-0.00043590,0.00459619,-0.00
 407423,0.00241501,-0.00364541,-0.00181383,0.00020999,0.00004696,-0.000
 07609,-0.00000481,0.00002994,0.00005987,0.00049665,0.00007700,-0.00003
 834,-0.00058119,0.00047566,0.00029367,-0.11510504,0.03998208,-0.041785
 73,0.10179225,-0.04155633,0.04442741,0.00476028,0.00638310,-0.00051810
 ,0.00053043,0.00000685,0.00001276,0.00036577,-0.00010007,-0.00005984,-
 0.00028180,-0.00024655,-0.00016316,-0.00042666,-0.00145175,-0.00020525
 ,-0.00283104,-0.00020618,0.00013976,0.00003711,0.00004918,-0.00000662,
 0.00033406,0.00017215,-0.00006333,-0.00008071,-0.00000610,0.00001951,0
 .00068662,0.00006006,0.00005755,-0.00068621,0.00242133,0.00085134,-0.0
 0003535,0.00021504,0.00029797,0.00050636,-0.00090206,-0.00106379,0.000
 00861,-0.00000810,0.00000503,0.00041574,0.00094735,0.00004605,-0.00017
 793,-0.00144241,-0.00009950,0.00020437,-0.00142966,0.00001042,-0.00015
 874,0.00018682,-0.00003345,-0.00012507,0.00028540,-0.00006421,0.000159
 74,-0.00012807,0.00003689,0.00018522,0.00010242,0.00003592,-0.00004172
 ,0.00002775,0.00000376,0.00041281,0.00033749,0.00006101,-0.00024308,0.
 00025032,0.00005486,0.56136667,0.00600360,-0.01622849,-0.00167542,-0.0
 0066100,0.00060715,0.00107003,0.00051217,0.00038137,-0.00157991,-0.000
 42258,0.00086401,0.00010779,-0.00580469,-0.00213799,0.00550266,0.00491
 657,0.00157327,-0.00164317,-0.00000952,-0.00007317,0.00000470,-0.00048
 271,-0.00056061,0.00029989,0.00004317,-0.00003882,-0.00005417,0.000486
 77,0.00017215,0.00000721,0.00088215,0.00148232,0.00060731,0.00006833,0
 .00015685,0.00023183,0.00016852,-0.00064019,-0.00066876,0.00040846,-0.
 00048473,0.00013261,0.00085542,0.00106985,-0.00302461,-0.00035915,-0.0
 0203980,0.00131950,-0.00145339,-0.00106780,0.00003549,0.00033577,-0.00
 004132,-0.00015579,0.00054268,-0.00018820,0.00059479,-0.00023881,0.000
 06333,-0.00018129,0.00040846,-0.00068478,-0.00029296,-0.00014737,0.000
 22640,0.00004840,-0.00037764,-0.00158478,-0.00040579,0.00019973,0.0003
 1735,0.00019038,-0.11696379,0.47511231,-0.00188830,0.00174915,0.004962
 29,0.00024965,0.00001717,-0.00049750,-0.00050492,0.00004603,0.00004020
 ,0.00014056,-0.00002451,-0.00008288,0.00101217,0.00109566,-0.00472349,
 -0.00070940,0.00035350,0.00023168,-0.00000940,-0.00006320,0.00005375,0
 .00002762,-0.00028757,0.00015997,0.00004294,0.00012892,0.00016851,0.00
 005204,0.00008429,0.00003337,0.00033112,-0.00059555,-0.00152561,0.0000
 2263,0.00053817,0.00065111,-0.00041823,0.00042080,-0.00017080,-0.00012
 969,0.00016081,0.00004492,0.00116516,-0.00313965,0.00339838,-0.0017168
 4,0.00516586,-0.00113276,0.00011988,0.00024551,0.00052562,-0.00003985,
 -0.00025029,-0.00003484,0.00013128,0.00003955,0.00061888,0.00005340,-0
 .00009147,-0.00018809,-0.00005860,0.00001421,0.00017093,0.00000052,-0.
 00000152,-0.00005374,-0.00008100,0.00016344,0.00030582,0.00001006,-0.0
 0004728,-0.00012049,-0.05194195,-0.10528311,0.06850627,0.00061746,-0.0
 0082230,-0.00011704,-0.00006292,0.00001274,-0.00007115,0.00002314,0.00
 006973,-0.00007237,0.00001616,0.00005668,0.00002977,-0.00038869,-0.000
 12010,0.00014474,0.00034735,0.00053770,0.00007535,-0.00000021,-0.00000
 354,-0.00000004,-0.00004824,-0.00000197,-0.00000096,0.00001059,-0.0000
 0210,0.00000143,0.00000872,0.00002737,0.00002842,-0.00017989,-0.000226
 79,-0.00010473,0.00004078,0.00002781,0.00001796,0.00010756,-0.00017552
 ,0.00004464,0.00001846,-0.00002896,0.00000442,0.00011152,-0.00008206,-
 0.00003768,-0.00010325,0.00011459,0.00001991,-0.00014848,-0.00000363,0
 .00000602,0.00006360,-0.00006336,-0.00000423,0.00002879,-0.00004066,0.
 00001422,-0.00002211,0.00000895,-0.00000174,-0.00001753,-0.00003005,-0
 .00001323,0.00000467,0.00000131,0.00000214,-0.00005907,-0.00005971,-0.
 00000501,0.00003102,-0.00002001,-0.00000238,-0.49288055,0.07832877,0.0
 4527498,0.50420190,-0.00178730,-0.00185874,0.00021162,-0.00036785,-0.0
 0020293,-0.00017785,0.00005487,-0.00000384,0.00020367,0.00020794,-0.00
 005862,0.00005726,0.00046641,0.00032743,-0.00026101,0.00090763,-0.0001
 9143,0.00037113,-0.00001112,0.00001045,-0.00000538,-0.00011083,-0.0000
 0611,-0.00005412,0.00002103,-0.00000319,-0.00002089,-0.00010578,-0.000
 06164,-0.00001272,0.00002049,-0.00211798,-0.00107173,-0.00000594,-0.00
 011114,-0.00018177,-0.00066576,0.00039571,0.00105490,-0.00004416,0.000
 03600,-0.00001371,-0.00032604,0.00000371,0.00014103,0.00019813,0.00003
 759,-0.00007804,0.00052803,0.00145639,0.00007105,-0.00003906,-0.000130
 24,0.00008350,-0.00014072,0.00001680,-0.00013352,0.00004267,-0.0000197
 8,0.00003614,-0.00021477,0.00021259,0.00007498,0.00006017,-0.00008781,
 -0.00001300,-0.00008450,0.00020460,0.00001641,0.00009617,-0.00026320,-
 0.00008411,0.02198726,-0.04863464,0.01320419,-0.06962850,0.05265058,-0
 .00001860,0.00073202,-0.00035078,0.00003473,-0.00002269,0.00000666,0.0
 0003149,0.00000043,0.00008592,0.00002366,-0.00002583,0.00001903,0.0002
 1596,0.00003394,0.00017530,-0.00004092,-0.00010502,0.00019118,-0.00000
 307,0.00001509,-0.00001240,-0.00005345,0.00013337,-0.00009896,0.000005
 68,-0.00003050,-0.00003536,-0.00000078,-0.00006945,-0.00007077,-0.0002
 7835,0.00026977,0.00064682,0.00008751,-0.00038970,-0.00042481,0.000122
 32,-0.00018021,0.00036716,-0.00000843,0.00000726,-0.00001439,-0.000248
 46,0.00011339,-0.00015073,0.00026410,-0.00003009,0.00006811,0.00002957
 ,-0.00000938,-0.00028045,-0.00000330,0.00013868,0.00003394,-0.00004924
 ,-0.00000547,-0.00012723,0.00000614,0.00000508,0.00003754,-0.00002701,
 0.00002720,-0.00002260,0.00001389,-0.00001611,0.00001247,0.00000626,0.
 00007309,-0.00004228,-0.00000003,-0.00002590,0.00002405,0.05729109,0.0
 0665363,-0.01377176,-0.04830346,-0.00655838,0.01218912,-0.00944022,-0.
 00296986,0.00114631,-0.00108799,0.00000287,0.00044408,-0.00063109,-0.0
 0001635,0.00007704,0.00021760,0.00034902,0.00025721,-0.00114516,0.0036
 5602,0.00235133,0.00485307,-0.00079719,-0.00111495,-0.00004360,-0.0000
 5748,-0.00000656,-0.00047567,-0.00032442,0.00017935,0.00008368,-0.0000
 0560,-0.00007461,-0.00106701,-0.00013776,-0.00002896,0.00078793,-0.003
 30307,-0.00106697,-0.00003687,-0.00009388,-0.00024904,-0.00108042,0.00
 074736,0.00109435,0.00003693,-0.00002967,-0.00002975,-0.00052301,0.000
 09503,-0.00169205,0.00055728,-0.00076741,0.00088463,-0.00025602,0.0018
 1238,0.00007666,0.00019721,-0.00022349,0.00003648,0.00024341,-0.000384
 18,-0.00001301,-0.00025293,0.00018109,-0.00003002,-0.00011836,-0.00020
 531,-0.00012090,0.00001515,0.00000377,0.00000957,-0.00049059,-0.000791
 58,-0.00025389,0.00033150,-0.00024623,-0.00001672,-0.06505702,0.029662
 84,0.00357801,-0.01071382,0.04931289,-0.01218630,0.08380110,-0.0015603
 6,0.00081589,0.00344847,0.00142566,-0.00066251,-0.00140793,-0.00098710
 ,-0.00048372,0.00240177,0.00045798,-0.00121789,-0.00018265,0.01022055,
 0.00339737,-0.00924824,-0.00846491,-0.00381614,0.00262445,0.00002094,0
 .00008166,-0.00000252,0.00086611,0.00076915,-0.00049004,-0.00008730,0.
 00009422,0.00013587,-0.00100016,-0.00022001,0.00003422,-0.00196680,0.0
 0076536,-0.00010994,-0.00011403,0.00013005,0.00008376,-0.00016511,-0.0
 0044709,-0.00042046,-0.00063274,0.00077646,-0.00020864,-0.00095813,-0.
 00199342,0.00495491,-0.00025839,0.00375000,-0.00124944,0.00199228,-0.0
 0004018,0.00010321,-0.00049490,0.00015281,0.00015716,-0.00065908,0.000
 17151,-0.00074281,0.00026389,-0.00003392,0.00023594,-0.00041227,0.0007
 9800,0.00036667,0.00015617,-0.00024956,-0.00005848,0.00065143,0.002158
 20,0.00061436,-0.00039537,-0.00019002,-0.00020328,0.08542356,-0.404147
 15,0.09226081,-0.00738908,-0.00154743,0.00019073,-0.07420803,0.4032396
 8,0.00130568,0.00188077,-0.00510126,-0.00026661,-0.00015428,0.00009649
 ,0.00055807,0.00009455,0.00026073,-0.00008823,-0.00003776,0.00002115,0
 .00072271,-0.00302667,0.00179223,-0.00027035,-0.00065979,-0.00051151,0
 .00001611,0.00005539,-0.00003023,0.00018459,0.00054883,-0.00017806,-0.
 00002086,-0.00008793,-0.00010860,0.00003533,0.00011328,0.00019769,-0.0
 0043150,-0.00014755,0.00096530,-0.00013954,-0.00042352,-0.00058904,0.0
 0029036,-0.00024333,0.00037351,0.00000919,-0.00004540,-0.00005035,-0.0
 0090504,0.00102464,-0.00120650,0.00125601,-0.00125890,-0.00107939,0.00
 014682,0.00011371,-0.00038779,0.00002753,0.00017360,0.00004811,-0.0000
 7255,-0.00012754,-0.00042138,-0.00004493,0.00006307,0.00014925,-0.0000
 1342,0.00008275,-0.00005139,0.00001554,-0.00002056,0.00002209,0.000054
 57,0.00002260,-0.00010199,0.00001125,-0.00004062,0.00003457,-0.0122934
 3,0.09939448,-0.03772619,0.00279406,-0.00550825,0.00079572,0.00788177,
 -0.09732118,0.04449555,0.00198817,-0.00108322,-0.00072717,-0.00005987,
 0.00013966,0.00024943,0.00019757,-0.00015537,-0.00006459,-0.00030341,-
 0.00007237,0.00000499,-0.00198044,-0.00002167,0.00307739,-0.00016441,-
 0.00003478,-0.00013641,0.00004267,0.00003711,-0.00001577,0.00011577,-0
 .00002636,0.00004155,-0.00008748,-0.00000157,-0.00005222,0.00025047,-0
 .00011162,0.00035666,0.00009306,0.00074748,-0.00048455,0.00016914,0.00
 033313,0.00022934,0.00013094,-0.00016597,-0.00018871,0.00012565,-0.000
 11653,-0.00000849,0.00318753,0.00753615,-0.00331837,-0.00637220,-0.003
 67896,0.00000372,-0.00009331,-0.00061119,0.00017916,-0.00004837,0.0000
 4524,-0.00000519,-0.00001986,0.00011572,-0.00023408,0.00001866,-0.0000
 2013,0.00009097,0.00021284,-0.00003170,-0.00006653,-0.00005800,0.00005
 692,0.00001275,0.00025219,-0.00013937,-0.00012735,-0.00010122,0.000194
 92,0.00005132,0.00145060,-0.00117960,0.01170071,0.00119756,-0.00030163
 ,-0.00122439,-0.00194668,0.00230740,-0.00006321,0.39302375,-0.00310427
 ,0.00062811,0.00380871,0.00032967,0.00050595,-0.00082497,-0.00060750,0
 .00121942,0.00079985,0.00008457,0.00085357,-0.00009040,0.00016397,-0.0
 0292909,-0.01346377,0.00094350,0.00122811,-0.00041074,-0.00001375,-0.0
 0016273,0.00008311,-0.00022325,-0.00021477,0.00022195,0.00027607,0.000
 22651,0.00035495,0.00060732,0.00075278,0.00131405,0.00057053,-0.000329
 15,-0.00068014,0.00035253,0.00005868,0.00012823,-0.00014509,0.00016311
 ,0.00025160,-0.00020138,0.00021398,0.00005226,0.00790619,-0.02269350,0
 .01365846,-0.00836451,0.00099391,-0.00308560,-0.00081263,0.00002268,0.
 00020087,0.00022491,-0.00011812,-0.00005568,0.00113923,-0.00096975,0.0
 0174490,-0.00036657,0.00000421,-0.00027235,0.00009450,-0.00066920,-0.0
 0003951,-0.00006370,0.00015596,-0.00000585,-0.00069007,-0.00074014,0.0
 0042342,0.00024981,0.00003199,-0.00003441,0.00055933,0.00694014,-0.003
 58657,-0.00024263,-0.00028995,-0.00010212,0.00142545,-0.00296404,-0.00
 212356,-0.12569603,0.08957454,-0.00075076,0.00260824,0.00057497,0.0000
 5829,-0.00019978,-0.00043857,0.00021018,0.00002437,0.00037989,0.000076
 12,-0.00030365,-0.00014475,0.00131313,-0.00215505,-0.00119362,-0.00094
 243,-0.00064790,0.00038672,0.00001972,0.00003615,0.00003300,0.00012825
 ,0.00011864,-0.00005017,-0.00001430,0.00001713,0.00002355,0.00055799,-
 0.00004399,0.00058055,-0.00027797,-0.00072393,-0.00042702,-0.00005329,
 -0.00009336,-0.00009395,-0.00022015,0.00018691,0.00032035,-0.00011732,
 0.00014411,-0.00001147,-0.00072987,0.00534995,0.00618995,-0.00092309,0
 .00038518,-0.01492473,0.00048736,0.00061006,0.00009333,-0.00007420,-0.
 00008705,0.00003356,-0.00019073,0.00019532,0.00006187,0.00018656,-0.00
 014759,-0.00000419,-0.00015682,0.00035190,0.00027130,0.00004649,-0.000
 07344,-0.00006818,0.00007753,0.00051238,0.00022921,-0.00000770,-0.0001
 7912,-0.00014764,0.01136675,-0.00035721,-0.01749386,-0.00112728,0.0011
 0046,-0.00327681,0.00132703,-0.00388284,0.00071489,0.07693619,0.044782
 15,0.61089968,-0.00016049,0.00005354,0.00005106,-0.00001565,-0.0000417
 3,-0.00002072,0.00003845,0.00002663,0.00000616,0.00004964,-0.00003752,
 -0.00002525,0.00003442,-0.00017790,-0.00012048,0.00011127,-0.00000772,
 0.00000714,-0.00000422,0.00000599,0.00000389,-0.00003491,0.00001805,-0
 .00001914,0.00001427,-0.00000651,-0.00001325,0.00002828,-0.00004288,0.
 00013130,-0.00006476,-0.00011857,0.00019189,0.00000856,-0.00008058,-0.
 00005943,-0.00000109,0.00002301,0.00002897,-0.00001824,0.00001112,0.00
 000009,0.00023860,-0.00026462,0.00037223,-0.00113749,0.00013265,-0.000
 74723,0.00003576,0.00014344,-0.00007025,0.00000600,-0.00000683,0.00000
 256,-0.00004137,0.00001897,-0.00000001,0.00002459,-0.00002019,0.000003
 43,-0.00005429,0.00006105,0.00004510,0.00001854,-0.00002095,-0.0000083
 5,-0.00003415,0.00006023,0.00001069,0.00002291,-0.00005702,-0.00001091
 ,-0.00156942,0.00007899,0.00072149,-0.00012519,0.00001259,0.00075735,0
 .00015401,0.00002981,-0.00007373,-0.26191673,0.05994188,-0.25248098,0.
 25157528,-0.00016140,-0.00008472,-0.00025511,-0.00005939,-0.00013159,0
 .00014437,0.00007841,-0.00001657,-0.00002361,0.00008093,-0.00002259,0.
 00001078,0.00009719,0.00047223,0.00014398,0.00010707,-0.00004278,0.000
 04040,-0.00001801,0.00000985,-0.00001957,-0.00004081,0.00002062,-0.000
 05139,0.00000963,-0.00003914,-0.00002987,-0.00015820,0.00006122,-0.000
 26395,-0.00012106,-0.00014279,0.00043416,-0.00007719,-0.00006380,-0.00
 007256,0.00000812,-0.00000137,-0.00006324,-0.00000467,-0.00000260,-0.0
 0000288,-0.00121996,-0.00346007,-0.00105868,0.00449128,0.00335251,0.00
 473329,0.00013497,0.00013254,-0.00014736,-0.00002228,0.00002504,0.0000
 0625,-0.00009284,0.00002929,-0.00012339,0.00002209,0.00000375,0.000019
 23,-0.00007504,0.00007079,-0.00003179,0.00002872,-0.00004519,0.0000199
 7,0.00001710,0.00009926,-0.00007949,-0.00001095,-0.00005459,0.00002966
 ,0.00059860,-0.00087024,-0.00082757,0.00005847,0.00044017,-0.00013806,
 0.00011768,0.00022766,0.00028110,0.06426419,-0.02232561,0.04699282,-0.
 05754588,0.02029029,0.00009718,-0.00031159,0.00020375,0.00004116,0.000
 09991,0.00003776,-0.00011519,0.00010383,0.00000087,-0.00004239,0.00012
 007,0.00003505,-0.00023633,-0.00002387,-0.00054542,0.00009883,0.000193
 43,-0.00010721,0.00000037,-0.00001760,-0.00000226,0.00000117,-0.000043
 58,0.00003697,0.00001132,0.00002704,0.00002547,0.00000685,0.00008933,-
 0.00002993,0.00013739,0.00020756,-0.00017230,0.00005025,0.00010486,0.0
 0010445,0.00002453,-0.00003691,-0.00006593,0.00001863,-0.00001024,0.00
 000691,0.00062244,-0.00174360,0.00053977,-0.00116047,0.00316501,-0.000
 20972,-0.00017338,-0.00022554,0.00006803,0.00001626,0.00000364,-0.0000
 1038,0.00012558,-0.00010564,0.00011206,-0.00005789,0.00002995,-0.00001
 850,0.00006132,-0.00013743,-0.00007937,-0.00002031,0.00003360,0.000020
 66,-0.00003730,-0.00016918,-0.00002303,0.00000068,0.00007374,0.0000390
 5,0.00235464,-0.00056596,0.00093088,0.00022275,0.00001698,-0.00124435,
 -0.00036247,0.00026441,-0.00009184,-0.19807914,0.03113207,-0.27146531,
 0.23325478,-0.04085418,0.29692355,-0.00184195,0.00133854,0.00074702,0.
 00007592,-0.00007389,-0.00025532,-0.00038792,-0.00002123,0.00009410,0.
 00027350,-0.00000171,0.00003605,0.00225786,0.00089875,-0.00186084,-0.0
 0001318,0.00005686,0.00018490,-0.00003215,-0.00003615,0.00001667,-0.00
 007102,0.00000228,-0.00001430,0.00004820,0.00003534,0.00003371,-0.0004
 3019,-0.00008552,-0.00026631,-0.00004897,-0.00077342,-0.00002282,-0.00
 000694,-0.00017073,-0.00016744,-0.00017769,0.00018426,0.00027996,-0.00
 008849,0.00009276,0.00000868,-0.00022525,-0.00158210,0.00127319,-0.000
 65368,0.00290850,0.00019381,0.00008714,0.00057560,-0.00004830,0.000034
 14,-0.00007086,0.00001047,0.00000778,-0.00009127,0.00015820,-0.0000310
 3,0.00003677,-0.00006227,-0.00017000,0.00002106,0.00005188,0.00004382,
 -0.00004706,-0.00001927,-0.00017856,0.00014672,0.00012009,0.00007683,-
 0.00015648,-0.00006475,-0.00682908,0.00419785,-0.00713605,-0.00207936,
 -0.00008231,0.00355607,0.00308759,-0.00406202,-0.00062620,-0.12930459,
 0.06566191,0.16527529,0.01281740,-0.01050676,-0.03686128,0.12375985,0.
 00019875,0.00067662,-0.00104685,-0.00003746,-0.00021309,0.00002123,0.0
 0041148,-0.00005943,0.00025435,-0.00000441,-0.00018425,-0.00005946,0.0
 0107539,-0.00173822,0.00125578,-0.00052443,-0.00064709,0.00021231,0.00
 001165,0.00005246,-0.00001523,0.00008703,0.00014760,-0.00010670,-0.000
 03477,-0.00005679,-0.00005298,0.00022388,0.00011026,0.00005218,-0.0003
 1257,-0.00005334,0.00044446,-0.00013977,-0.00012469,-0.00017885,0.0000
 0430,-0.00002834,-0.00003768,-0.00002422,0.00002811,-0.00002403,-0.001
 38422,0.00010447,0.00120201,0.00336446,-0.00145897,-0.00633312,0.00039
 653,0.00019938,-0.00015204,-0.00007142,0.00004811,0.00002655,-0.000242
 81,0.00013338,-0.00029166,0.00011725,-0.00003666,0.00008353,-0.0000841
 9,0.00024329,0.00006759,0.00003431,-0.00006320,-0.00000289,0.00013718,
 0.00032035,-0.00001735,-0.00005003,-0.00008072,-0.00002029,0.00287074,
 -0.00954380,-0.00148978,-0.00030316,-0.00020337,-0.00068480,-0.0028048
 9,0.00068507,0.00737804,0.05767015,-0.04916758,-0.09452088,-0.00218906
 ,0.00206843,0.00857990,-0.05839570,0.05884202,0.00241183,-0.00352037,-
 0.00219933,-0.00020575,0.00009262,0.00073436,0.00015246,-0.00023200,-0
 .00036835,-0.00020873,0.00005681,0.00010952,-0.00205823,0.00093929,0.0
 0661513,0.00088443,0.00020212,-0.00039352,0.00000220,0.00003425,-0.000
 04994,-0.00006588,-0.00003683,-0.00001433,-0.00008459,-0.00010747,-0.0
 0015056,-0.00037372,-0.00019346,-0.00027514,0.00007670,0.00115520,0.00
 089567,-0.00007042,0.00001446,0.00000957,0.00040737,-0.00028512,-0.000
 50801,0.00021634,-0.00023129,-0.00002709,-0.00117135,0.00560835,-0.005
 82213,0.00204075,-0.01011142,0.00466063,-0.00029012,-0.00077576,-0.000
 20542,0.00001959,0.00016121,-0.00002433,-0.00007578,0.00005446,-0.0005
 4591,-0.00007240,0.00010978,0.00011999,0.00018065,-0.00015096,-0.00022
 863,-0.00004156,0.00004797,0.00005833,0.00015476,-0.00036605,-0.000373
 90,-0.00006734,0.00020143,0.00016200,-0.00613271,-0.00031256,-0.003280
 58,0.00118048,-0.00246883,0.00527065,-0.00209764,0.00765172,-0.0023317
 7,0.11186197,-0.07418090,-0.31105254,0.01806161,-0.00881332,-0.0250196
 8,-0.12463494,0.08545667,0.33423533\\0.00100351,-0.00074971,0.00161406
 ,0.00060526,-0.00047083,0.00023660,0.00017828,-0.00017520,-0.00098018,
 -0.00017727,0.00017914,0.00097587,-0.00064630,0.00050690,-0.00028805,-
 0.00094718,0.00071691,-0.00153370,0.00000122,-0.00000115,-0.00000342,0
 .00000592,0.00000055,0.00000052,-0.00000489,-0.00000085,0.00000254,0.0
 0000134,-0.00000142,-0.00001106,-0.00000325,-0.00000230,0.00000477,-0.
 00000019,-0.00000004,0.00000525,0.00000179,0.00000117,0.00000567,-0.00
 000062,0.00000014,-0.00000745,-0.00001234,0.00000463,-0.00001710,0.000
 00305,-0.00001334,-0.00001865,0.00000107,0.00000517,0.00000651,0.00000
 420,-0.00000061,0.00000812,0.00000157,-0.00000213,-0.00001118,0.000002
 57,-0.00000032,-0.00000741,-0.00000127,0.00000152,-0.00000533,-0.00000
 174,0.00000157,0.00000076,-0.00000917,-0.00000469,0.00000849,0.0000000
 9,-0.00000137,0.00000181,0.00000123,-0.00000664,-0.00000236,0.00000500
 ,0.00000270,0.00000232,0.00000620,-0.00000240,-0.00000955,-0.00000125,
 -0.00000411,0.00001070,-0.00000594,-0.00000779,-0.00000004,-0.00001090
 ,0.00002453,0.00001150\\\@


 THERE IS NO CURE FOR BIRTH AND DEATH SAVE TO ENJOY THE INTERVAL.

                               -- GEORGE SANTAYANA
 Job cpu time:       0 days  1 hours 33 minutes 24.9 seconds.
 File lengths (MBytes):  RWF=    334 Int=      0 D2E=      0 Chk=      7 Scr=      2
 Normal termination of Gaussian 09 at Thu Jan 19 22:31:27 2017.
