 Entering Gaussian System, Link 0=g09
 Initial command:
 /usr/local/gaussian/g09.D01/g09/l1.exe "/nqs/iawad/Gau-5418.inp" -scrdir="/nqs/iawad/"
 Entering Link 1 = /usr/local/gaussian/g09.D01/g09/l1.exe PID=      5419.
  
 Copyright (c) 1988,1990,1992,1993,1995,1998,2003,2009,2013,
            Gaussian, Inc.  All Rights Reserved.
  
 This is part of the Gaussian(R) 09 program.  It is based on
 the Gaussian(R) 03 system (copyright 2003, Gaussian, Inc.),
 the Gaussian(R) 98 system (copyright 1998, Gaussian, Inc.),
 the Gaussian(R) 94 system (copyright 1995, Gaussian, Inc.),
 the Gaussian 92(TM) system (copyright 1992, Gaussian, Inc.),
 the Gaussian 90(TM) system (copyright 1990, Gaussian, Inc.),
 the Gaussian 88(TM) system (copyright 1988, Gaussian, Inc.),
 the Gaussian 86(TM) system (copyright 1986, Carnegie Mellon
 University), and the Gaussian 82(TM) system (copyright 1983,
 Carnegie Mellon University). Gaussian is a federally registered
 trademark of Gaussian, Inc.
  
 This software contains proprietary and confidential information,
 including trade secrets, belonging to Gaussian, Inc.
  
 This software is provided under written license and may be
 used, copied, transmitted, or stored only in accord with that
 written license.
  
 The following legend is applicable only to US Government
 contracts under FAR:
  
                    RESTRICTED RIGHTS LEGEND
  
 Use, reproduction and disclosure by the US Government is
 subject to restrictions as set forth in subparagraphs (a)
 and (c) of the Commercial Computer Software - Restricted
 Rights clause in FAR 52.227-19.
  
 Gaussian, Inc.
 340 Quinnipiac St., Bldg. 40, Wallingford CT 06492
  
  
 ---------------------------------------------------------------
 Warning -- This program may not be used in any manner that
 competes with the business of Gaussian, Inc. or will provide
 assistance to any competitor of Gaussian, Inc.  The licensee
 of this program is prohibited from giving any competitor of
 Gaussian, Inc. access to this program.  By using this program,
 the user acknowledges that Gaussian, Inc. is engaged in the
 business of creating and licensing software in the field of
 computational chemistry and represents and warrants to the
 licensee that it is not a competitor of Gaussian, Inc. and that
 it will not use this program in any manner prohibited above.
 ---------------------------------------------------------------
  

 Cite this work as:
 Gaussian 09, Revision D.01,
 M. J. Frisch, G. W. Trucks, H. B. Schlegel, G. E. Scuseria, 
 M. A. Robb, J. R. Cheeseman, G. Scalmani, V. Barone, B. Mennucci, 
 G. A. Petersson, H. Nakatsuji, M. Caricato, X. Li, H. P. Hratchian, 
 A. F. Izmaylov, J. Bloino, G. Zheng, J. L. Sonnenberg, M. Hada, 
 M. Ehara, K. Toyota, R. Fukuda, J. Hasegawa, M. Ishida, T. Nakajima, 
 Y. Honda, O. Kitao, H. Nakai, T. Vreven, J. A. Montgomery, Jr., 
 J. E. Peralta, F. Ogliaro, M. Bearpark, J. J. Heyd, E. Brothers, 
 K. N. Kudin, V. N. Staroverov, T. Keith, R. Kobayashi, J. Normand, 
 K. Raghavachari, A. Rendell, J. C. Burant, S. S. Iyengar, J. Tomasi, 
 M. Cossi, N. Rega, J. M. Millam, M. Klene, J. E. Knox, J. B. Cross, 
 V. Bakken, C. Adamo, J. Jaramillo, R. Gomperts, R. E. Stratmann, 
 O. Yazyev, A. J. Austin, R. Cammi, C. Pomelli, J. W. Ochterski, 
 R. L. Martin, K. Morokuma, V. G. Zakrzewski, G. A. Voth, 
 P. Salvador, J. J. Dannenberg, S. Dapprich, A. D. Daniels, 
 O. Farkas, J. B. Foresman, J. V. Ortiz, J. Cioslowski, 
 and D. J. Fox, Gaussian, Inc., Wallingford CT, 2013.
 
 ******************************************
 Gaussian 09:  AM64L-G09RevD.01 24-Apr-2013
                10-Jun-2016 
 ******************************************
 %NPROCS=4
 Will use up to    4 processors via shared memory.
 %rwf=/nqs/iawad//glo_1w_ALPHA_TsF_G3MP2B3_00.rwf
 %nosave
 %chk=/home/iawad/scratch/MAIN/PRO_Halides/direct/TsF/glo_1w_ALPHA/glo_1w_ALPHA_T
 sF_G3MP2B3_00.chk
 ----------------------------------------------------------------------
 # opt=(TS, CalcFC, NoEigenTest, MaxCycle=1000, cartesian) Freq G3MP2B3
 ----------------------------------------------------------------------
 1/5=1,6=1000,10=4,11=1,14=-1,18=10,26=3,38=1/1,3;
 2/12=2,17=6,18=5,29=2,40=1/2;
 3/5=33,7=1,11=2,16=1,25=1,30=1,71=2,74=-5,140=1/1,2,3;
 4//1;
 5/5=2,38=5/2;
 8/6=4,10=90,11=11/1;
 11/6=1,8=1,9=11,15=111,16=1/1,2,10;
 10/6=1,13=1/2;
 6/7=2,8=2,9=2,10=2,28=1/1;
 7/7=1,10=1,18=20,25=1/1,2,3,16;
 1/5=1,6=1000,10=4,11=1,14=-1,18=10,26=3/3(2);
 2/29=1/2;
 99/12=1/99;
 2/29=1/2;
 3/5=33,7=1,11=2,16=1,25=1,30=1,71=1,74=-5/1,2,3;
 4/5=5,16=3,69=1/1;
 5/5=2,38=5/2;
 7/7=1/1,2,3,16;
 1/5=1,6=1000,11=1,14=-1,18=10,26=3/3(-5);
 2/29=1/2;
 6/7=2,8=2,9=2,10=2,19=2,28=1/1;
 99/9=1,12=1/99;
 -----------------------
 glo_1w_ALPHA_G3MP2B3_00
 -----------------------
 Symbolic Z-matrix:
 Charge =  0 Multiplicity = 1
 C
 O                    1    B1
 H                    2    B2       1    A1
 O                    2    B3       1    A2       3    D1       0
 H                    2    B4       1    A3       4    D2       0
 C                    1    B5       2    A4       4    D3       0
 C                    6    B6       1    A5       2    D4       0
 C                    7    B7       6    A6       1    D5       0
 C                    2    B8       1    A7       6    D6       0
 H                    6    B9       1    A8       2    D7       0
 H                    8    B10      7    A9       6    D8       0
 H                    9    B11      2    A10      1    D9       0
 H                    7    B12      6    A11      1    D10      0
 O                    6    B13      1    A12      2    D11      0
 O                    7    B14      6    A13      1    D12      0
 O                    8    B15      7    A14      6    D13      0
 H                    15   B16      7    A15      6    D14      0
 H                    14   B17      6    A16      1    D15      0
 H                    16   B18      8    A17      7    D16      0
 C                    9    B19      2    A18      1    D17      0
 O                    20   B20      9    A19      2    D18      0
 H                    20   B21      9    A20      2    D19      0
 H                    20   B22      9    A21      2    D20      0
 H                    21   B23      20   A22      9    D21      0
 H                    1    B24      6    A23      14   D22      0
 O                    1    B25      6    A24      14   D23      0
 H                    4    B26      2    A25      1    D24      0
 O                    16   B27      8    A26      7    D25      0
 H                    28   B28      16   A27      8    D26      0
 H                    28   B29      16   A28      8    D27      0
       Variables:
  B1                    1.7046                   
  B2                    2.9269                   
  B3                    2.45602                  
  B4                    1.24458                  
  B5                    1.54057                  
  B6                    1.54214                  
  B7                    1.54574                  
  B8                    1.45579                  
  B9                    1.11707                  
  B10                   1.11519                  
  B11                   1.11714                  
  B12                   1.11421                  
  B13                   1.42729                  
  B14                   1.42697                  
  B15                   1.43882                  
  B16                   1.01062                  
  B17                   0.99324                  
  B18                   0.99119                  
  B19                   1.53985                  
  B20                   1.42595                  
  B21                   1.10756                  
  B22                   1.1043                   
  B23                   0.99433                  
  B24                   1.10461                  
  B25                   1.27636                  
  B26                   1.11574                  
  B27                   2.46022                  
  B28                   0.95278                  
  B29                   0.97706                  
  A1                   79.42268                  
  A2                   84.39707                  
  A3                   98.37538                  
  A4                  100.8772                   
  A5                  110.87639                  
  A6                  109.16279                  
  A7                  113.37912                  
  A8                  110.92601                  
  A9                  110.92476                  
  A10                 107.99486                  
  A11                 111.30147                  
  A12                 105.48265                  
  A13                 103.75008                  
  A14                 111.32761                  
  A15                 109.98542                  
  A16                 108.80619                  
  A17                 111.10599                  
  A18                 105.93332                  
  A19                 109.50847                  
  A20                 111.73962                  
  A21                 112.20667                  
  A22                 109.89026                  
  A23                 114.02179                  
  A24                 119.76234                  
  A25                  80.55773                  
  A26                 112.53948                  
  A27                 149.858                    
  A28                  43.83786                  
  D1                   17.56489                  
  D2                   -7.35738                  
  D3                 -164.75883                  
  D4                   62.60043                  
  D5                  -65.59714                  
  D6                  -62.36338                  
  D7                  -60.59681                  
  D8                  -69.01196                  
  D9                  -60.70211                  
  D10                  58.84285                  
  D11                -176.54017                  
  D12                 177.03234                  
  D13                 177.55803                  
  D14                -165.5177                   
  D15                -159.59047                  
  D16                 -48.7993                   
  D17                -179.76683                  
  D18                 168.06665                  
  D19                  53.87491                  
  D20                 -69.29725                  
  D21                  59.53505                  
  D22                 -77.42354                  
  D23                  73.83909                  
  D24                  28.69065                  
  D25                  32.11373                  
  D26                 124.83701                  
  D27                 103.33813                  
 

 GradGradGradGradGradGradGradGradGradGradGradGradGradGradGradGradGradGrad
 Berny optimization.
 Initialization pass.
 Trust Radius=3.00D-01 FncErr=1.00D-07 GrdErr=1.00D-06
 Number of steps in this run=    180 maximum allowed number of steps=    180.
 Search for a saddle point of order  1.
 GradGradGradGradGradGradGradGradGradGradGradGradGradGradGradGradGradGrad

 ---------------------------------------------------------------------------------------------------
                            Z-MATRIX (ANGSTROMS AND DEGREES)
   CD    Cent   Atom    N1       Length/X        N2       Alpha/Y        N3        Beta/Z          J
 ---------------------------------------------------------------------------------------------------
      1      1  C 
      2      2  O        1   1.704600(     1)
      3      3  H        2   2.926899(     2)      1   79.423(    30)
      4      4  O        2   2.456022(     3)      1   84.397(    31)      3   17.565(    58)      0
      5      5  H        2   1.244577(     4)      1   98.375(    32)      4   -7.357(    59)      0
      6      6  C        1   1.540574(     5)      2  100.877(    33)      4 -164.759(    60)      0
      7      7  C        6   1.542145(     6)      1  110.876(    34)      2   62.600(    61)      0
      8      8  C        7   1.545742(     7)      6  109.163(    35)      1  -65.597(    62)      0
      9      9  C        2   1.455787(     8)      1  113.379(    36)      6  -62.363(    63)      0
     10     10  H        6   1.117073(     9)      1  110.926(    37)      2  -60.597(    64)      0
     11     11  H        8   1.115187(    10)      7  110.925(    38)      6  -69.012(    65)      0
     12     12  H        9   1.117138(    11)      2  107.995(    39)      1  -60.702(    66)      0
     13     13  H        7   1.114210(    12)      6  111.301(    40)      1   58.843(    67)      0
     14     14  O        6   1.427288(    13)      1  105.483(    41)      2 -176.540(    68)      0
     15     15  O        7   1.426969(    14)      6  103.750(    42)      1  177.032(    69)      0
     16     16  O        8   1.438821(    15)      7  111.328(    43)      6  177.558(    70)      0
     17     17  H       15   1.010619(    16)      7  109.985(    44)      6 -165.518(    71)      0
     18     18  H       14   0.993236(    17)      6  108.806(    45)      1 -159.590(    72)      0
     19     19  H       16   0.991189(    18)      8  111.106(    46)      7  -48.799(    73)      0
     20     20  C        9   1.539851(    19)      2  105.933(    47)      1 -179.767(    74)      0
     21     21  O       20   1.425947(    20)      9  109.508(    48)      2  168.067(    75)      0
     22     22  H       20   1.107559(    21)      9  111.740(    49)      2   53.875(    76)      0
     23     23  H       20   1.104298(    22)      9  112.207(    50)      2  -69.297(    77)      0
     24     24  H       21   0.994333(    23)     20  109.890(    51)      9   59.535(    78)      0
     25     25  H        1   1.104613(    24)      6  114.022(    52)     14  -77.424(    79)      0
     26     26  O        1   1.276357(    25)      6  119.762(    53)     14   73.839(    80)      0
     27     27  H        4   1.115738(    26)      2   80.558(    54)      1   28.691(    81)      0
     28     28  O       16   2.460224(    27)      8  112.539(    55)      7   32.114(    82)      0
     29     29  H       28   0.952784(    28)     16  149.858(    56)      8  124.837(    83)      0
     30     30  H       28   0.977061(    29)     16   43.838(    57)      8  103.338(    84)      0
 ---------------------------------------------------------------------------------------------------
                         Z-Matrix orientation:                         
 ---------------------------------------------------------------------
 Center     Atomic      Atomic             Coordinates (Angstroms)
 Number     Number       Type             X           Y           Z
 ---------------------------------------------------------------------
      1          6           0        0.000000    0.000000    0.000000
      2          8           0        0.000000    0.000000    1.704600
      3          1           0        2.877165    0.000000    1.167332
      4          8           0        2.330325    0.737651    1.464809
      5          1           0        1.211815    0.218204    1.885882
      6          6           0       -1.511651   -0.061341   -0.290713
      7          6           0       -2.227777    1.189915    0.256766
      8          6           0       -2.134504    1.193555    1.799687
      9          6           0       -0.667332    1.157702    2.282276
     10          1           0       -1.962867   -0.989389    0.137051
     11          1           0       -2.752225    0.375037    2.237969
     12          1           0       -0.125801    2.073639    1.941980
     13          1           0       -1.814689    2.121932   -0.192864
     14          8           0       -1.623267   -0.148948   -1.710931
     15          8           0       -3.583111    1.011260   -0.152370
     16          8           0       -2.740393    2.373227    2.357788
     17          1           0       -4.091064    1.879332   -0.053451
     18          1           0       -2.535960    0.137136   -1.978630
     19          1           0       -2.419720    3.190733    1.898103
     20          6           0       -0.562460    0.987835    3.809131
     21          8           0       -0.941938    2.203456    4.450680
     22          1           0        0.485671    0.838031    4.134193
     23          1           0       -1.182500    0.152553    4.179710
     24          1           0       -1.876098    2.438695    4.204294
     25          1           0        0.511762   -0.976252   -0.072135
     26          8           0        0.649529    1.070876   -0.245811
     27          1           0        1.907323    1.157979    0.521801
     28          8           0       -4.638703    3.182239    1.018153
     29          1           0       -5.555595    3.433757    0.956136
     30          1           0       -4.525318    2.690920    1.855050
 ---------------------------------------------------------------------
                    Distance matrix (angstroms):
                    1          2          3          4          5
     1  C    0.000000
     2  O    1.704600   0.000000
     3  H    3.104954   2.926899   0.000000
     4  O    2.849598   2.456022   0.965223   0.000000
     5  H    2.252257   1.244577   1.826833   1.303147   0.000000
     6  C    1.540574   2.504022   4.625080   4.298957   3.497568
     7  C    2.538664   2.911204   5.320287   4.737109   3.927981
     8  C    3.036371   2.447390   5.190498   4.500521   3.486630
     9  C    2.644691   1.455787   3.891893   3.135386   2.137985
    10  H    2.202390   2.699805   5.046413   4.814261   3.820380
    11  H    3.567057   2.828405   5.742555   5.153792   3.982734
    12  H    2.843781   2.090969   3.730665   2.836390   2.288013
    13  H    2.798730   3.375805   5.325995   4.673891   4.135831
    14  O    2.363147   3.784578   5.344199   5.148035   4.594513
    15  O    3.726198   4.160489   6.670789   6.136681   5.270173
    16  O    4.324479   3.683560   6.213401   5.402286   4.526231
    17  H    4.502394   4.833160   7.319728   6.696476   5.885651
    18  H    3.219453   4.473934   6.262412   5.991546   5.383944
    19  H    4.431548   4.009147   6.226700   5.363607   4.692986
    20  C    3.975130   2.391909   4.448139   3.731842   2.727502
    21  O    5.054801   3.644643   5.497376   4.666017   3.893336
    22  H    4.246142   2.615549   3.901770   3.246296   2.442616
    23  H    4.346442   2.747317   5.057527   4.478055   3.316430
    24  H    5.209901   3.964272   6.145232   5.300219   4.454303
    25  H    1.104613   2.090874   2.843321   2.933740   2.398047
    26  O    1.276357   2.317923   2.847123   2.421226   2.363754
    27  H    2.291522   2.525433   1.642626   1.115738   1.796560
    28  O    5.716717   5.667047   8.163160   7.398842   6.615665
    29  H    6.600721   6.573851   9.107510   8.349579   7.549970
    30  H    5.582183   5.267085   7.906375   7.139145   6.247397
                    6          7          8          9         10
     6  C    0.000000
     7  C    1.542145   0.000000
     8  C    2.516442   1.545742   0.000000
     9  C    2.969716   2.557091   1.544917   0.000000
    10  H    1.117073   2.198608   2.749375   3.300061   0.000000
    11  H    2.850207   2.205501   1.115187   2.227399   2.626518
    12  H    3.385799   2.835351   2.197653   1.117138   4.001840
    13  H    2.206374   1.114210   2.221357   2.893525   3.132271
    14  O    1.427288   2.455568   3.793167   4.308926   2.058326
    15  O    2.336783   1.426969   2.437668   3.801410   2.590666
    16  O    3.801511   2.465217   1.438821   2.404326   4.104072
    17  H    3.236646   2.010813   2.780745   4.206936   3.577020
    18  H    1.984355   2.490043   3.943713   4.763260   2.464468
    19  H    4.023865   2.595015   2.019840   2.711395   4.558886
    20  C    4.337102   3.928538   2.559591   1.539851   4.399400
    21  O    5.285328   4.502173   3.077317   2.423012   5.462962
    22  H    4.937405   4.745636   3.527270   2.204814   5.031098
    23  H    4.487625   4.190253   2.766678   2.208163   4.272716
    24  H    5.156365   4.155251   2.720163   2.606954   5.319940
    25  H    2.231376   3.507923   3.900576   3.389288   2.483490
    26  O    2.440211   2.923293   3.456870   2.851821   3.349014
    27  H    3.719719   4.143708   4.239177   3.118993   4.442702
    28  O    4.691737   3.218949   3.291911   4.633416   5.033779
    29  H    5.488517   4.074103   4.175398   5.552854   5.756980
    30  H    4.611012   3.175882   2.821553   4.173408   4.802327
                   11         12         13         14         15
    11  H    0.000000
    12  H    3.141808   0.000000
    13  H    3.136808   2.722542   0.000000
    14  O    4.140400   4.530568   2.738259   0.000000
    15  O    2.609382   4.179467   2.088671   2.759743   0.000000
    16  O    2.001815   2.664346   2.725051   4.915670   2.977587
    17  H    3.050574   4.443288   2.293507   3.598775   1.010619
    18  H    4.228838   4.993004   2.765611   0.993236   2.279439
    19  H    2.855558   2.551840   2.424983   4.981258   3.210611
    20  C    2.763899   2.203610   4.343986   5.734864   4.981804
    21  O    3.393574   2.641308   4.725552   6.630494   5.439228
    22  H    3.780740   2.589677   5.065914   6.291837   5.912666
    23  H    2.506770   3.132830   4.837099   5.914798   5.026652
    24  H    2.982067   2.883552   4.408981   6.461401   4.892033
    25  H    4.220920   3.710118   3.876299   2.815747   4.552431
    26  O    4.269107   2.528457   2.679532   2.966504   4.234091
    27  H    5.026889   2.643659   3.910668   4.377009   5.533615
    28  O    3.595433   4.738009   3.250519   5.257144   2.682825
    29  H    4.342551   5.683702   4.127404   5.950817   3.314811
    30  H    2.941734   4.443461   3.444592   5.403977   2.781860
                   16         17         18         19         20
    16  O    0.000000
    17  H    2.807547   0.000000
    18  H    4.883279   3.026534   0.000000
    19  H    0.991189   2.884741   4.936297   0.000000
    20  C    2.961267   5.307104   6.173862   3.457485   0.000000
    21  O    2.764681   5.505384   6.938776   3.110338   1.425947
    22  H    3.989979   6.290245   6.854788   4.356214   1.107559
    23  H    3.267694   5.418595   6.305335   3.995870   1.104298
    24  H    2.039823   4.831911   6.630320   2.485880   1.996696
    25  H    5.263083   5.416707   3.763372   5.462525   4.480604
    26  O    4.468379   4.812881   3.744579   4.302377   4.233009
    27  H    5.142853   6.068930   5.199716   4.974896   4.115254
    28  O    2.460224   1.773644   4.761816   2.387105   5.405620
    29  H    3.318843   2.362277   5.347780   3.283303   6.249281
    30  H    1.881391   2.118875   5.017615   2.164535   4.735311
                   21         22         23         24         25
    21  O    0.000000
    22  H    2.000654   0.000000
    23  H    2.082666   1.804092   0.000000
    24  H    0.994333   2.853943   2.389169   0.000000
    25  H    5.716611   4.580993   4.714118   5.970894   0.000000
    26  O    5.086505   4.389249   4.876975   5.296523   2.059096
    27  H    4.964615   3.895233   4.892667   5.432795   2.618261
    28  O    5.138709   6.439272   5.578511   4.282095   6.708880
    29  H    5.917036   7.303064   6.346786   5.007932   7.570887
    30  H    4.451464   5.808417   4.798102   3.549780   6.521837
                   26         27         28         29         30
    26  O    0.000000
    27  H    1.476097   0.000000
    28  O    5.832740   6.869822   0.000000
    29  H    6.747699   7.814279   0.952784   0.000000
    30  H    5.815256   6.745838   0.977061   1.556061   0.000000
 Stoichiometry    C6H16O8
 Framework group  C1[X(C6H16O8)]
 Deg. of freedom    84
 Full point group                 C1      NOp   1
 Largest Abelian subgroup         C1      NOp   1
 Largest concise Abelian subgroup C1      NOp   1
                         Standard orientation:                         
 ---------------------------------------------------------------------
 Center     Atomic      Atomic             Coordinates (Angstroms)
 Number     Number       Type             X           Y           Z
 ---------------------------------------------------------------------
      1          6           0       -1.472086   -1.473557   -0.152900
      2          8           0       -1.609757    0.129188   -0.716740
      3          1           0       -4.277681   -0.272162    0.418088
      4          8           0       -3.546861    0.237560    0.789224
      5          1           0       -2.695506    0.417242   -0.180880
      6          6           0       -0.044010   -1.822212   -0.613775
      7          6           0        0.992922   -0.909641    0.071934
      8          6           0        0.781594    0.545684   -0.404184
      9          6           0       -0.651623    1.040237   -0.107408
     10          1           0        0.045296   -1.750503   -1.724961
     11          1           0        1.062524    0.658358   -1.477508
     12          1           0       -0.837035    1.049928    0.994193
     13          1           0        0.942601   -1.001941    1.181174
     14          8           0        0.147427   -3.191256   -0.258500
     15          8           0        2.245162   -1.403722   -0.401373
     16          8           0        1.690542    1.447983    0.251465
     17          1           0        2.997723   -1.035134    0.163556
     18          1           0        1.122027   -3.379031   -0.220916
     19          1           0        1.690937    1.304124    1.232159
     20          6           0       -0.928924    2.422129   -0.727584
     21          8           0       -0.228403    3.423231    0.007528
     22          1           0       -1.991535    2.714867   -0.618734
     23          1           0       -0.645784    2.465387   -1.794090
     24          1           0        0.748194    3.237507   -0.013982
     25          1           0       -2.265527   -1.853451   -0.820959
     26          8           0       -1.716590   -1.318671    1.090207
     27          1           0       -2.935593   -0.522051    1.331639
     28          8           0        3.850322    0.393812    0.777561
     29          1           0        4.801042    0.387574    0.715187
     30          1           0        3.516342    1.018444    0.104553
 ---------------------------------------------------------------------
 Rotational constants (GHZ):      0.6832393      0.5664456      0.3437543
 Standard basis: GTBas1 (6D, 7F)
 There are   242 symmetry adapted cartesian basis functions of A   symmetry.
 There are   242 symmetry adapted basis functions of A   symmetry.
   242 basis functions,   456 primitive gaussians,   242 cartesian basis functions
    58 alpha electrons       58 beta electrons
       nuclear repulsion energy      1108.3909086191 Hartrees.
 NAtoms=   30 NActive=   30 NUniq=   30 SFac= 1.00D+00 NAtFMM=   60 NAOKFM=F Big=F
 Integral buffers will be    131072 words long.
 Raffenetti 2 integral format.
 Two-electron integral symmetry is turned on.
 One-electron integrals computed using PRISM.
 NBasis=   242 RedAO= T EigKep=  1.87D-03  NBF=   242
 NBsUse=   242 1.00D-06 EigRej= -1.00D+00 NBFU=   242
 ExpMin= 1.61D-01 ExpMax= 5.48D+03 ExpMxC= 8.25D+02 IAcc=1 IRadAn=         1 AccDes= 0.00D+00
 Harris functional with IExCor=  402 and IRadAn=       1 diagonalized for initial guess.
 HarFok:  IExCor=  402 AccDes= 0.00D+00 IRadAn=         1 IDoV= 1 UseB2=F ITyADJ=14
 ICtDFT=  3500011 ScaDFX=  1.000000  1.000000  1.000000  1.000000
 FoFCou: FMM=F IPFlag=           0 FMFlag=      100000 FMFlg1=           0
         NFxFlg=           0 DoJE=T BraDBF=F KetDBF=T FulRan=T
         wScrn=  0.000000 ICntrl=     500 IOpCl=  0 I1Cent=   200000004 NGrid=           0
         NMat0=    1 NMatS0=      1 NMatT0=    0 NMatD0=    1 NMtDS0=    0 NMtDT0=    0
 Petite list used in FoFCou.
 Requested convergence on RMS density matrix=1.00D-08 within 128 cycles.
 Requested convergence on MAX density matrix=1.00D-06.
 Requested convergence on             energy=1.00D-06.
 No special actions if energy rises.
 Integral accuracy reduced to 1.0D-05 until final iterations.
 Initial convergence to 1.0D-05 achieved.  Increase integral accuracy.
 SCF Done:  E(RB3LYP) =  -839.930105935     A.U. after   14 cycles
            NFock= 14  Conv=0.70D-08     -V/T= 2.0089
 DoSCS=F DFT=T ScalE2(SS,OS)=  1.000000  1.000000
 Range of M.O.s used for correlation:     1   242
 NBasis=   242 NAE=    58 NBE=    58 NFC=     0 NFV=     0
 NROrb=    242 NOA=    58 NOB=    58 NVA=   184 NVB=   184
 Symmetrizing basis deriv contribution to polar:
 IMax=3 JMax=2 DiffMx= 0.00D+00
 G2DrvN: will do    31 centers at a time, making    1 passes.
 Calling FoFCou, ICntrl=  3107 FMM=F I1Cent=   0 AccDes= 0.00D+00.
 End of G2Drv F.D. properties file   721 does not exist.
 End of G2Drv F.D. properties file   722 does not exist.
 End of G2Drv F.D. properties file   788 does not exist.
          IDoAtm=111111111111111111111111111111
          Differentiating once with respect to nuclear coordinates.
          There are    93 degrees of freedom in the 1st order CPHF.  IDoFFX=6 NUNeed=     0.
     87 vectors produced by pass  0 Test12= 1.15D-14 1.08D-09 XBig12= 1.64D-01 9.09D-02.
 AX will form    87 AO Fock derivatives at one time.
     87 vectors produced by pass  1 Test12= 1.15D-14 1.08D-09 XBig12= 3.55D-02 3.54D-02.
     87 vectors produced by pass  2 Test12= 1.15D-14 1.08D-09 XBig12= 3.48D-04 2.35D-03.
     87 vectors produced by pass  3 Test12= 1.15D-14 1.08D-09 XBig12= 7.86D-07 6.86D-05.
     87 vectors produced by pass  4 Test12= 1.15D-14 1.08D-09 XBig12= 8.54D-10 3.61D-06.
     68 vectors produced by pass  5 Test12= 1.15D-14 1.08D-09 XBig12= 7.49D-13 9.23D-08.
      3 vectors produced by pass  6 Test12= 1.15D-14 1.08D-09 XBig12= 6.34D-16 2.11D-09.
 InvSVY:  IOpt=1 It=  1 EMax= 3.33D-16
 Solved reduced A of dimension   506 with    93 vectors.
 End of Minotr F.D. properties file   721 does not exist.
 End of Minotr F.D. properties file   722 does not exist.
 End of Minotr F.D. properties file   788 does not exist.

 **********************************************************************

            Population analysis using the SCF density.

 **********************************************************************

 Orbital symmetries:
       Occupied  (A) (A) (A) (A) (A) (A) (A) (A) (A) (A) (A) (A)
                 (A) (A) (A) (A) (A) (A) (A) (A) (A) (A) (A) (A)
                 (A) (A) (A) (A) (A) (A) (A) (A) (A) (A) (A) (A)
                 (A) (A) (A) (A) (A) (A) (A) (A) (A) (A) (A) (A)
                 (A) (A) (A) (A) (A) (A) (A) (A) (A) (A)
       Virtual   (A) (A) (A) (A) (A) (A) (A) (A) (A) (A) (A) (A)
                 (A) (A) (A) (A) (A) (A) (A) (A) (A) (A) (A) (A)
                 (A) (A) (A) (A) (A) (A) (A) (A) (A) (A) (A) (A)
                 (A) (A) (A) (A) (A) (A) (A) (A) (A) (A) (A) (A)
                 (A) (A) (A) (A) (A) (A) (A) (A) (A) (A) (A) (A)
                 (A) (A) (A) (A) (A) (A) (A) (A) (A) (A) (A) (A)
                 (A) (A) (A) (A) (A) (A) (A) (A) (A) (A) (A) (A)
                 (A) (A) (A) (A) (A) (A) (A) (A) (A) (A) (A) (A)
                 (A) (A) (A) (A) (A) (A) (A) (A) (A) (A) (A) (A)
                 (A) (A) (A) (A) (A) (A) (A) (A) (A) (A) (A) (A)
                 (A) (A) (A) (A) (A) (A) (A) (A) (A) (A) (A) (A)
                 (A) (A) (A) (A) (A) (A) (A) (A) (A) (A) (A) (A)
                 (A) (A) (A) (A) (A) (A) (A) (A) (A) (A) (A) (A)
                 (A) (A) (A) (A) (A) (A) (A) (A) (A) (A) (A) (A)
                 (A) (A) (A) (A) (A) (A) (A) (A) (A) (A) (A) (A)
                 (A) (A) (A) (A)
 The electronic state is 1-A.
 Alpha  occ. eigenvalues --  -19.18539 -19.18309 -19.17032 -19.16949 -19.13352
 Alpha  occ. eigenvalues --  -19.12981 -19.12945 -19.09081 -10.27521 -10.25507
 Alpha  occ. eigenvalues --  -10.24693 -10.23973 -10.23450 -10.23292  -1.06046
 Alpha  occ. eigenvalues --   -1.05261  -1.02923  -1.01836  -1.00977  -0.99684
 Alpha  occ. eigenvalues --   -0.98645  -0.96865  -0.77590  -0.74160  -0.67749
 Alpha  occ. eigenvalues --   -0.63721  -0.61370  -0.56846  -0.56313  -0.55273
 Alpha  occ. eigenvalues --   -0.52940  -0.52425  -0.50569  -0.49435  -0.48738
 Alpha  occ. eigenvalues --   -0.47161  -0.45921  -0.44125  -0.42888  -0.41768
 Alpha  occ. eigenvalues --   -0.41486  -0.41117  -0.39934  -0.39421  -0.37801
 Alpha  occ. eigenvalues --   -0.37251  -0.35574  -0.34932  -0.33683  -0.32586
 Alpha  occ. eigenvalues --   -0.31344  -0.30448  -0.29206  -0.26776  -0.26066
 Alpha  occ. eigenvalues --   -0.25175  -0.24133  -0.23110
 Alpha virt. eigenvalues --    0.03307   0.05058   0.05305   0.07436   0.08656
 Alpha virt. eigenvalues --    0.11129   0.11636   0.12442   0.13385   0.14164
 Alpha virt. eigenvalues --    0.15223   0.15712   0.16314   0.16889   0.17833
 Alpha virt. eigenvalues --    0.18309   0.19233   0.21125   0.21735   0.23130
 Alpha virt. eigenvalues --    0.24099   0.25267   0.26538   0.27893   0.28825
 Alpha virt. eigenvalues --    0.29588   0.32126   0.36559   0.51659   0.53413
 Alpha virt. eigenvalues --    0.54871   0.56287   0.57529   0.58442   0.60739
 Alpha virt. eigenvalues --    0.61094   0.62017   0.63514   0.64785   0.67103
 Alpha virt. eigenvalues --    0.68105   0.68423   0.71391   0.72147   0.73349
 Alpha virt. eigenvalues --    0.76074   0.76820   0.78860   0.79666   0.80235
 Alpha virt. eigenvalues --    0.80919   0.81742   0.83162   0.84289   0.84620
 Alpha virt. eigenvalues --    0.85366   0.86381   0.87071   0.88197   0.89406
 Alpha virt. eigenvalues --    0.90180   0.91050   0.93045   0.93901   0.95049
 Alpha virt. eigenvalues --    0.96365   0.98105   0.99207   1.00884   1.02988
 Alpha virt. eigenvalues --    1.03541   1.05303   1.06315   1.07184   1.09033
 Alpha virt. eigenvalues --    1.10440   1.12245   1.13337   1.16542   1.17771
 Alpha virt. eigenvalues --    1.20410   1.22654   1.24437   1.26923   1.27768
 Alpha virt. eigenvalues --    1.27926   1.29338   1.33114   1.34384   1.37613
 Alpha virt. eigenvalues --    1.39492   1.43092   1.44380   1.45943   1.49201
 Alpha virt. eigenvalues --    1.49648   1.55074   1.57572   1.57935   1.61818
 Alpha virt. eigenvalues --    1.63061   1.64219   1.65905   1.66537   1.67950
 Alpha virt. eigenvalues --    1.68042   1.70236   1.71726   1.73173   1.74479
 Alpha virt. eigenvalues --    1.75275   1.76580   1.78935   1.79134   1.81064
 Alpha virt. eigenvalues --    1.81920   1.82681   1.83972   1.84993   1.86207
 Alpha virt. eigenvalues --    1.89653   1.90261   1.91101   1.94350   1.95964
 Alpha virt. eigenvalues --    1.97915   2.00751   2.01755   2.04976   2.06181
 Alpha virt. eigenvalues --    2.07984   2.09192   2.10838   2.11914   2.13740
 Alpha virt. eigenvalues --    2.15500   2.17445   2.19073   2.22766   2.24047
 Alpha virt. eigenvalues --    2.25926   2.29557   2.30922   2.34141   2.38545
 Alpha virt. eigenvalues --    2.42393   2.42500   2.43800   2.46405   2.46698
 Alpha virt. eigenvalues --    2.50637   2.51694   2.53883   2.55581   2.56797
 Alpha virt. eigenvalues --    2.61108   2.62309   2.64898   2.66553   2.69322
 Alpha virt. eigenvalues --    2.73431   2.75780   2.81180   2.86383   2.88387
 Alpha virt. eigenvalues --    2.92397   2.94519   3.00164   3.03060   3.05863
 Alpha virt. eigenvalues --    3.67809   3.69794   3.74003   3.83784   3.89985
 Alpha virt. eigenvalues --    3.95330   4.00010   4.12510   4.27360   4.34814
 Alpha virt. eigenvalues --    4.41731   4.53719   4.64445   4.71441
          Condensed to atoms (all electrons):
               1          2          3          4          5          6
     1  C    4.746402   0.057205   0.001068   0.016074  -0.012370   0.291079
     2  O    0.057205   8.632517   0.003163  -0.081101   0.138989  -0.008716
     3  H    0.001068   0.003163   0.362030   0.226850  -0.003999   0.000091
     4  O    0.016074  -0.081101   0.226850   8.442374   0.114006  -0.000106
     5  H   -0.012370   0.138989  -0.003999   0.114006   0.326022   0.002004
     6  C    0.291079  -0.008716   0.000091  -0.000106   0.002004   4.958947
     7  C   -0.007626  -0.009254   0.000001  -0.000038   0.000004   0.291378
     8  C   -0.008252  -0.023173  -0.000004  -0.000084   0.002099  -0.035836
     9  C   -0.001463   0.102709  -0.000132   0.005052  -0.018411  -0.011140
    10  H   -0.046433   0.002898  -0.000005   0.000019  -0.000082   0.345264
    11  H   -0.000256   0.002349   0.000000   0.000001  -0.000090  -0.003169
    12  H   -0.003988  -0.037520  -0.000090   0.002397  -0.001340  -0.000876
    13  H   -0.006725   0.000295  -0.000001   0.000022  -0.000049  -0.034099
    14  O   -0.041195   0.000704   0.000000   0.000000  -0.000028   0.238931
    15  O    0.002669  -0.000004   0.000000   0.000000   0.000002  -0.045513
    16  O   -0.000018   0.001257   0.000000   0.000000  -0.000039   0.002400
    17  H   -0.000118   0.000000   0.000000   0.000000   0.000000   0.003985
    18  H    0.006409  -0.000050   0.000000   0.000000   0.000002  -0.033813
    19  H   -0.000013   0.000032   0.000000   0.000000  -0.000002   0.000148
    20  C    0.002105  -0.026745   0.000029  -0.000791  -0.001073  -0.000223
    21  O   -0.000023   0.001567   0.000000   0.000002   0.000058   0.000001
    22  H   -0.000078  -0.000633  -0.000034   0.000523   0.004928   0.000008
    23  H   -0.000154   0.004428   0.000000   0.000018  -0.000167   0.000024
    24  H    0.000000  -0.000023   0.000000   0.000000   0.000013  -0.000009
    25  H    0.349745  -0.040760   0.000233   0.003695  -0.000615  -0.074550
    26  O    0.343721  -0.088318   0.004468  -0.083582   0.009579  -0.054836
    27  H   -0.016768   0.005915  -0.006800   0.146638  -0.013236   0.002624
    28  O    0.000000   0.000000   0.000000   0.000000   0.000000   0.000021
    29  H    0.000000   0.000000   0.000000   0.000000   0.000000   0.000003
    30  H   -0.000001  -0.000002   0.000000   0.000000   0.000000   0.000001
               7          8          9         10         11         12
     1  C   -0.007626  -0.008252  -0.001463  -0.046433  -0.000256  -0.003988
     2  O   -0.009254  -0.023173   0.102709   0.002898   0.002349  -0.037520
     3  H    0.000001  -0.000004  -0.000132  -0.000005   0.000000  -0.000090
     4  O   -0.000038  -0.000084   0.005052   0.000019   0.000001   0.002397
     5  H    0.000004   0.002099  -0.018411  -0.000082  -0.000090  -0.001340
     6  C    0.291378  -0.035836  -0.011140   0.345264  -0.003169  -0.000876
     7  C    4.987978   0.301111  -0.036134  -0.049673  -0.036749  -0.004934
     8  C    0.301111   5.030421   0.280527  -0.003791   0.362551  -0.050929
     9  C   -0.036134   0.280527   5.074231   0.000687  -0.039990   0.353156
    10  H   -0.049673  -0.003791   0.000687   0.661330   0.004684   0.000144
    11  H   -0.036749   0.362551  -0.039990   0.004684   0.583916   0.004870
    12  H   -0.004934  -0.050929   0.353156   0.000144   0.004870   0.607564
    13  H    0.346195  -0.046367  -0.000187   0.006318   0.004905   0.002632
    14  O   -0.023879   0.003010  -0.000068  -0.045944  -0.000042   0.000013
    15  O    0.213292  -0.044891   0.004017  -0.000137   0.001771  -0.000008
    16  O   -0.026000   0.188512  -0.039454  -0.000037  -0.042741   0.001326
    17  H   -0.018120  -0.000614  -0.000176  -0.000219  -0.000319   0.000004
    18  H   -0.010434   0.000950  -0.000063  -0.000274   0.000010  -0.000003
    19  H   -0.002908  -0.026607  -0.002506   0.000017   0.006811   0.004436
    20  C    0.003457  -0.020477   0.329566  -0.000009  -0.007473  -0.047954
    21  O    0.000022  -0.002200  -0.044522   0.000000   0.000039   0.007177
    22  H   -0.000119   0.003823  -0.035314   0.000001   0.000010  -0.004652
    23  H    0.000002  -0.011805  -0.041684  -0.000012   0.005641   0.005745
    24  H    0.000238   0.000468  -0.006704   0.000001  -0.000323  -0.000721
    25  H    0.006599  -0.000666   0.004609   0.001344  -0.000045   0.000556
    26  O   -0.000405  -0.004384   0.005685   0.003337  -0.000012   0.014890
    27  H   -0.000065   0.000106  -0.000267  -0.000095   0.000001  -0.000448
    28  O    0.001277   0.000865  -0.000008  -0.000001   0.000156  -0.000006
    29  H   -0.000066  -0.000037   0.000004   0.000000   0.000003   0.000000
    30  H   -0.001049  -0.000752   0.000495   0.000002  -0.000625  -0.000006
              13         14         15         16         17         18
     1  C   -0.006725  -0.041195   0.002669  -0.000018  -0.000118   0.006409
     2  O    0.000295   0.000704  -0.000004   0.001257   0.000000  -0.000050
     3  H   -0.000001   0.000000   0.000000   0.000000   0.000000   0.000000
     4  O    0.000022   0.000000   0.000000   0.000000   0.000000   0.000000
     5  H   -0.000049  -0.000028   0.000002  -0.000039   0.000000   0.000002
     6  C   -0.034099   0.238931  -0.045513   0.002400   0.003985  -0.033813
     7  C    0.346195  -0.023879   0.213292  -0.026000  -0.018120  -0.010434
     8  C   -0.046367   0.003010  -0.044891   0.188512  -0.000614   0.000950
     9  C   -0.000187  -0.000068   0.004017  -0.039454  -0.000176  -0.000063
    10  H    0.006318  -0.045944  -0.000137  -0.000037  -0.000219  -0.000274
    11  H    0.004905  -0.000042   0.001771  -0.042741  -0.000319   0.000010
    12  H    0.002632   0.000013  -0.000008   0.001326   0.000004  -0.000003
    13  H    0.610533   0.001383  -0.037637  -0.003331  -0.005034  -0.000461
    14  O    0.001383   8.296961  -0.007236  -0.000009  -0.000019   0.230629
    15  O   -0.037637  -0.007236   8.392476   0.000517   0.208387   0.025722
    16  O   -0.003331  -0.000009   0.000517   8.321803   0.001230  -0.000006
    17  H   -0.005034  -0.000019   0.208387   0.001230   0.330951  -0.000375
    18  H   -0.000461   0.230629   0.025722  -0.000006  -0.000375   0.380206
    19  H    0.005883  -0.000002  -0.000041   0.227746  -0.000230   0.000000
    20  C   -0.000040   0.000000  -0.000044  -0.000052   0.000002   0.000000
    21  O   -0.000011   0.000000   0.000000  -0.013379   0.000000   0.000000
    22  H    0.000004   0.000000   0.000000  -0.000110   0.000000   0.000000
    23  H   -0.000007   0.000000  -0.000002   0.000471   0.000000   0.000000
    24  H   -0.000004   0.000000  -0.000002   0.034192   0.000000   0.000000
    25  H    0.000330   0.001939  -0.000047   0.000002   0.000004  -0.000488
    26  O    0.011393   0.000888   0.000054   0.000016   0.000005  -0.000106
    27  H   -0.000129  -0.000030   0.000000  -0.000002   0.000000   0.000004
    28  O    0.000389   0.000000  -0.028014  -0.032947   0.064960   0.000007
    29  H   -0.000008   0.000000   0.001399   0.002018  -0.002300  -0.000001
    30  H    0.000067   0.000000   0.005681   0.037492  -0.007027  -0.000002
              19         20         21         22         23         24
     1  C   -0.000013   0.002105  -0.000023  -0.000078  -0.000154   0.000000
     2  O    0.000032  -0.026745   0.001567  -0.000633   0.004428  -0.000023
     3  H    0.000000   0.000029   0.000000  -0.000034   0.000000   0.000000
     4  O    0.000000  -0.000791   0.000002   0.000523   0.000018   0.000000
     5  H   -0.000002  -0.001073   0.000058   0.004928  -0.000167   0.000013
     6  C    0.000148  -0.000223   0.000001   0.000008   0.000024  -0.000009
     7  C   -0.002908   0.003457   0.000022  -0.000119   0.000002   0.000238
     8  C   -0.026607  -0.020477  -0.002200   0.003823  -0.011805   0.000468
     9  C   -0.002506   0.329566  -0.044522  -0.035314  -0.041684  -0.006704
    10  H    0.000017  -0.000009   0.000000   0.000001  -0.000012   0.000001
    11  H    0.006811  -0.007473   0.000039   0.000010   0.005641  -0.000323
    12  H    0.004436  -0.047954   0.007177  -0.004652   0.005745  -0.000721
    13  H    0.005883  -0.000040  -0.000011   0.000004  -0.000007  -0.000004
    14  O   -0.000002   0.000000   0.000000   0.000000   0.000000   0.000000
    15  O   -0.000041  -0.000044   0.000000   0.000000  -0.000002  -0.000002
    16  O    0.227746  -0.000052  -0.013379  -0.000110   0.000471   0.034192
    17  H   -0.000230   0.000002   0.000000   0.000000   0.000000   0.000000
    18  H    0.000000   0.000000   0.000000   0.000000   0.000000   0.000000
    19  H    0.371971  -0.000903   0.001737   0.000010   0.000109  -0.001801
    20  C   -0.000903   4.855407   0.252508   0.375841   0.350016  -0.027129
    21  O    0.001737   0.252508   8.288689  -0.038666  -0.035344   0.226491
    22  H    0.000010   0.375841  -0.038666   0.576703  -0.041186   0.005844
    23  H    0.000109   0.350016  -0.035344  -0.041186   0.639626  -0.004917
    24  H   -0.001801  -0.027129   0.226491   0.005844  -0.004917   0.372879
    25  H   -0.000001  -0.000015   0.000001  -0.000007   0.000001   0.000000
    26  O   -0.000040   0.000307   0.000002   0.000015  -0.000001  -0.000001
    27  H    0.000001  -0.000090   0.000000   0.000049   0.000000   0.000000
    28  O    0.010324   0.000000   0.000000   0.000000   0.000000   0.000002
    29  H   -0.000233   0.000000   0.000000   0.000000   0.000000  -0.000003
    30  H   -0.007805  -0.000015   0.000006   0.000000  -0.000001   0.000096
              25         26         27         28         29         30
     1  C    0.349745   0.343721  -0.016768   0.000000   0.000000  -0.000001
     2  O   -0.040760  -0.088318   0.005915   0.000000   0.000000  -0.000002
     3  H    0.000233   0.004468  -0.006800   0.000000   0.000000   0.000000
     4  O    0.003695  -0.083582   0.146638   0.000000   0.000000   0.000000
     5  H   -0.000615   0.009579  -0.013236   0.000000   0.000000   0.000000
     6  C   -0.074550  -0.054836   0.002624   0.000021   0.000003   0.000001
     7  C    0.006599  -0.000405  -0.000065   0.001277  -0.000066  -0.001049
     8  C   -0.000666  -0.004384   0.000106   0.000865  -0.000037  -0.000752
     9  C    0.004609   0.005685  -0.000267  -0.000008   0.000004   0.000495
    10  H    0.001344   0.003337  -0.000095  -0.000001   0.000000   0.000002
    11  H   -0.000045  -0.000012   0.000001   0.000156   0.000003  -0.000625
    12  H    0.000556   0.014890  -0.000448  -0.000006   0.000000  -0.000006
    13  H    0.000330   0.011393  -0.000129   0.000389  -0.000008   0.000067
    14  O    0.001939   0.000888  -0.000030   0.000000   0.000000   0.000000
    15  O   -0.000047   0.000054   0.000000  -0.028014   0.001399   0.005681
    16  O    0.000002   0.000016  -0.000002  -0.032947   0.002018   0.037492
    17  H    0.000004   0.000005   0.000000   0.064960  -0.002300  -0.007027
    18  H   -0.000488  -0.000106   0.000004   0.000007  -0.000001  -0.000002
    19  H   -0.000001  -0.000040   0.000001   0.010324  -0.000233  -0.007805
    20  C   -0.000015   0.000307  -0.000090   0.000000   0.000000  -0.000015
    21  O    0.000001   0.000002   0.000000   0.000000   0.000000   0.000006
    22  H   -0.000007   0.000015   0.000049   0.000000   0.000000   0.000000
    23  H    0.000001  -0.000001   0.000000   0.000000   0.000000  -0.000001
    24  H    0.000000  -0.000001   0.000000   0.000002  -0.000003   0.000096
    25  H    0.700054  -0.050259  -0.004647   0.000000   0.000000   0.000000
    26  O   -0.050259   8.387727   0.118861   0.000000   0.000000   0.000000
    27  H   -0.004647   0.118861   0.317952   0.000000   0.000000   0.000000
    28  O    0.000000   0.000000   0.000000   8.326171   0.234792   0.213695
    29  H    0.000000   0.000000   0.000000   0.234792   0.372401  -0.008122
    30  H    0.000000   0.000000   0.000000   0.213695  -0.008122   0.344912
 Mulliken charges:
               1
     1  C    0.329002
     2  O   -0.637729
     3  H    0.413133
     4  O   -0.791969
     5  H    0.453795
     6  C    0.165976
     7  C    0.075901
     8  C    0.106426
     9  C    0.117487
    10  H    0.120664
    11  H    0.154114
    12  H    0.148566
    13  H    0.143741
    14  O   -0.656007
    15  O   -0.692413
    16  O   -0.660855
    17  H    0.425021
    18  H    0.402137
    19  H    0.413869
    20  C   -0.036204
    21  O   -0.644154
    22  H    0.153040
    23  H    0.129199
    24  H    0.401416
    25  H    0.102990
    26  O   -0.619003
    27  H    0.450427
    28  O   -0.791682
    29  H    0.400151
    30  H    0.422961
 Sum of Mulliken charges =   0.00000
 Mulliken charges with hydrogens summed into heavy atoms:
               1
     1  C    0.431993
     2  O   -0.183934
     4  O    0.071591
     6  C    0.286640
     7  C    0.219642
     8  C    0.260540
     9  C    0.266053
    14  O   -0.253870
    15  O   -0.267392
    16  O   -0.246986
    20  C    0.246035
    21  O   -0.242739
    26  O   -0.619003
    28  O    0.031430
 APT charges:
               1
     1  C   -0.316967
     2  O   -0.462130
     3  H    0.874463
     4  O   -1.199369
     5  H    0.466136
     6  C   -0.231708
     7  C   -0.219909
     8  C   -0.242956
     9  C   -0.125457
    10  H    0.393655
    11  H    0.422158
    12  H    0.310919
    13  H    0.334738
    14  O   -0.786006
    15  O   -0.843465
    16  O   -0.740845
    17  H    0.630320
    18  H    0.676368
    19  H    0.580171
    20  C   -0.777668
    21  O   -0.581506
    22  H    0.568719
    23  H    0.411411
    24  H    0.449848
    25  H    0.476871
    26  O   -0.454868
    27  H    0.385016
    28  O   -1.390783
    29  H    1.084372
    30  H    0.308473
 Sum of APT charges =   0.00000
 APT charges with hydrogens summed into heavy atoms:
               1
     1  C    0.159904
     2  O    0.004006
     4  O    0.060110
     6  C    0.161947
     7  C    0.114830
     8  C    0.179202
     9  C    0.185462
    14  O   -0.109638
    15  O   -0.213145
    16  O   -0.160674
    20  C    0.202462
    21  O   -0.131659
    26  O   -0.454868
    28  O    0.002062
 Electronic spatial extent (au):  <R**2>=           3232.8851
 Charge=              0.0000 electrons
 Dipole moment (field-independent basis, Debye):
    X=              2.1665    Y=              1.1888    Z=             -1.1126  Tot=              2.7102
 Quadrupole moment (field-independent basis, Debye-Ang):
   XX=            -54.5888   YY=           -100.7601   ZZ=            -85.0999
   XY=              5.9681   XZ=              5.1216   YZ=             -0.5802
 Traceless Quadrupole moment (field-independent basis, Debye-Ang):
   XX=             25.5608   YY=            -20.6104   ZZ=             -4.9503
   XY=              5.9681   XZ=              5.1216   YZ=             -0.5802
 Octapole moment (field-independent basis, Debye-Ang**2):
  XXX=             41.6613  YYY=            -20.4505  ZZZ=              7.2827  XYY=             29.0397
  XXY=             -2.0058  XXZ=              1.1898  XZZ=              7.8517  YZZ=              6.9823
  YYZ=             -4.8656  XYZ=             -2.3689
 Hexadecapole moment (field-independent basis, Debye-Ang**3):
 XXXX=          -1033.4220 YYYY=          -1833.9041 ZZZZ=           -273.6399 XXXY=            140.6918
 XXXZ=             48.8518 YYYX=             -4.7640 YYYZ=             -9.9518 ZZZX=             -2.3405
 ZZZY=              7.9211 XXYY=           -537.9475 XXZZ=           -379.2053 YYZZ=           -313.2966
 XXYZ=            -21.3658 YYXZ=             21.1614 ZZXY=              7.3746
 N-N= 1.108390908619D+03 E-N=-4.189685643882D+03  KE= 8.325141668041D+02
  Exact polarizability:   0.000   0.000   0.000   0.000   0.000   0.000
 Approx polarizability: 147.828  -0.379 136.881  -0.494  -0.284 132.903
 Calling FoFJK, ICntrl=    100147 FMM=F ISym2X=0 I1Cent= 0 IOpClX= 0 NMat=1 NMatS=1 NMatT=0.
 ***** Axes restored to original set *****
 -------------------------------------------------------------------
 Center     Atomic                   Forces (Hartrees/Bohr)
 Number     Number              X              Y              Z
 -------------------------------------------------------------------
      1        6           0.007732975    0.011801860    0.017397371
      2        8           0.008742627   -0.009081369    0.031878579
      3        1           0.006719402   -0.004979663   -0.000589363
      4        8          -0.001184103    0.011107121   -0.004146376
      5        1          -0.019808771    0.003839191   -0.021733756
      6        6           0.002489745   -0.000917467   -0.016680701
      7        6          -0.014879367   -0.013150461    0.001594898
      8        6           0.008362353    0.010366981   -0.002558223
      9        6           0.008323251   -0.017444716   -0.000956918
     10        1           0.005499939    0.011680920    0.004102652
     11        1           0.011870294    0.004749984   -0.009003349
     12        1          -0.009000285   -0.007775835    0.006517402
     13        1           0.002777158   -0.010172700    0.006926399
     14        8          -0.011563229    0.007307523   -0.005876124
     15        8          -0.011613147    0.017017716   -0.005086483
     16        8           0.002110659    0.013076703    0.004621132
     17        1           0.016083603   -0.018997197    0.003737814
     18        1           0.015103933   -0.005071690    0.013343438
     19        1          -0.003445009   -0.016676626    0.005422480
     20        6          -0.002637328    0.022405970    0.006625475
     21        8          -0.013279119    0.007544074    0.005398889
     22        1          -0.007239132   -0.003521505   -0.006447341
     23        1           0.003926660   -0.002025884   -0.006288529
     24        1           0.019836770   -0.010258350   -0.000840044
     25        1          -0.001903121   -0.001968491   -0.005252442
     26        8           0.000775309    0.014234029   -0.033577561
     27        1          -0.012441669   -0.023065090    0.020164124
     28        8           0.002181413    0.002580672   -0.002456056
     29        1          -0.017104376    0.004856222   -0.001221518
     30        1           0.003562567    0.002538079   -0.005015872
 -------------------------------------------------------------------
 Cartesian Forces:  Max     0.033577561 RMS     0.011231259

 GradGradGradGradGradGradGradGradGradGradGradGradGradGradGradGradGradGrad
 Berny optimization.
 Search for a saddle point.
 Step number   1 out of a maximum of  180
 All quantities printed in internal units (Hartrees-Bohrs-Radians)
 Swapping is turned off.
 Second derivative matrix not updated -- analytic derivatives used.
 ITU=  0
     Eigenvalues ---   -0.12843  -0.00676  -0.00125   0.00060   0.00114
     Eigenvalues ---    0.00186   0.00332   0.00431   0.00568   0.00719
     Eigenvalues ---    0.00893   0.00936   0.01171   0.01282   0.01353
     Eigenvalues ---    0.01544   0.01683   0.01814   0.01960   0.02091
     Eigenvalues ---    0.02349   0.02704   0.02894   0.03061   0.03243
     Eigenvalues ---    0.03630   0.04161   0.04716   0.05017   0.05382
     Eigenvalues ---    0.05523   0.06082   0.06403   0.06904   0.07351
     Eigenvalues ---    0.07904   0.08713   0.08869   0.09124   0.09915
     Eigenvalues ---    0.10912   0.11113   0.11501   0.12006   0.13029
     Eigenvalues ---    0.14394   0.14882   0.15996   0.16107   0.16957
     Eigenvalues ---    0.18516   0.19372   0.20112   0.20893   0.21754
     Eigenvalues ---    0.23661   0.26625   0.30679   0.31229   0.33539
     Eigenvalues ---    0.37360   0.43202   0.48735   0.52550   0.55545
     Eigenvalues ---    0.58637   0.60511   0.62535   0.63279   0.66272
     Eigenvalues ---    0.70914   0.75930   0.78344   0.79971   0.82717
     Eigenvalues ---    0.84079   0.84560   0.87850   0.90882   0.92187
     Eigenvalues ---    0.94441   1.05581   1.18731   1.24483
 Eigenvectors required to have negative eigenvalues:
                          X5        X27       Z1        Z2        Z27
   1                    0.66786  -0.40952   0.28576  -0.23993  -0.23591
                          X4        Y5        X2        X26       Z4
   1                   -0.16506   0.16392  -0.16329   0.16263   0.13436
 RFO step:  Lambda0=2.354929870D-03 Lambda=-4.00227159D-02.
 Linear search not attempted -- option 19 set.
 Maximum step size (   0.300) exceeded in Quadratic search.
    -- Step size scaled by   0.287
 TrRot= -0.001784  0.002931  0.000439  0.385438 -0.000510 -0.386529
 Variable       Old X    -DE/DX   Delta X   Delta X   Delta X     New X
                                 (Linear)    (Quad)   (Total)
    X1        0.00000   0.00773   0.00000   0.00599   0.00422   0.00422
    Y1        0.00000   0.01180   0.00000   0.01107   0.01399   0.01399
    Z1        0.00000   0.01740   0.00000   0.01283   0.01328   0.01328
    X2        0.00000   0.00874   0.00000   0.00037  -0.00295  -0.00295
    Y2        0.00000  -0.00908   0.00000  -0.01332  -0.01101  -0.01101
    Z2        3.22123   0.03188   0.00000   0.01915   0.01958   3.24081
    X3        5.43705   0.00672   0.00000   0.00882   0.00597   5.44302
    Y3        0.00000  -0.00498   0.00000  -0.00960  -0.01304  -0.01304
    Z3        2.20594  -0.00059   0.00000   0.02498   0.02799   2.23393
    X4        4.40368  -0.00118   0.00000  -0.02486  -0.02646   4.37722
    Y4        1.39396   0.01111   0.00000  -0.02114  -0.02352   1.37044
    Z4        2.76809  -0.00415   0.00000   0.00384   0.00661   2.77470
    X5        2.29000  -0.01981   0.00000  -0.00679  -0.00980   2.28020
    Y5        0.41235   0.00384   0.00000  -0.00167  -0.00190   0.41044
    Z5        3.56380  -0.02173   0.00000  -0.03320  -0.03160   3.53220
    X6       -2.85661   0.00249   0.00000   0.01027   0.00864  -2.84797
    Y6       -0.11592  -0.00092   0.00000   0.00841   0.01455  -0.10137
    Z6       -0.54937  -0.01668   0.00000  -0.00993  -0.01086  -0.56022
    X7       -4.20989  -0.01488   0.00000  -0.00300  -0.00257  -4.21245
    Y7        2.24861  -0.01315   0.00000  -0.00583   0.00161   2.25022
    Z7        0.48522   0.00159   0.00000  -0.00363  -0.00474   0.48047
    X8       -4.03363   0.00836   0.00000   0.01441   0.01350  -4.02012
    Y8        2.25549   0.01037   0.00000   0.01191   0.01857   2.27406
    Z8        3.40092  -0.00256   0.00000  -0.00819  -0.00921   3.39170
    X9       -1.26107   0.00832   0.00000   0.00637   0.00492  -1.25615
    Y9        2.18774  -0.01744   0.00000  -0.01214  -0.00867   2.17907
    Z9        4.31288  -0.00096   0.00000   0.00430   0.00457   4.31744
   X10       -3.70928   0.00550   0.00000   0.01766   0.01373  -3.69555
   Y10       -1.86968   0.01168   0.00000   0.02120   0.02811  -1.84157
   Z10        0.25899   0.00410   0.00000   0.00948   0.00783   0.26681
   X11       -5.20095   0.01187   0.00000   0.02109   0.01811  -5.18284
   Y11        0.70872   0.00475   0.00000   0.01472   0.02249   0.73121
   Z11        4.22915  -0.00900   0.00000  -0.01730  -0.01917   4.20998
   X12       -0.23773  -0.00900   0.00000  -0.00048   0.00025  -0.23748
   Y12        3.91861  -0.00778   0.00000  -0.01549  -0.01301   3.90560
   Z12        3.66981   0.00652   0.00000   0.01081   0.01189   3.68169
   X13       -3.42927   0.00278   0.00000   0.01653   0.01927  -3.41000
   Y13        4.00987  -0.01017   0.00000  -0.01686  -0.01014   3.99973
   Z13       -0.36446   0.00693   0.00000   0.00503   0.00463  -0.35983
   X14       -3.06753  -0.01156   0.00000   0.00651   0.00596  -3.06157
   Y14       -0.28147   0.00731   0.00000   0.00941   0.01630  -0.26517
   Z14       -3.23319  -0.00588   0.00000  -0.00297  -0.00402  -3.23721
   X15       -6.77110  -0.01161   0.00000   0.00029   0.00075  -6.77035
   Y15        1.91100   0.01702   0.00000   0.01509   0.02546   1.93647
   Z15       -0.28794  -0.00509   0.00000  -0.00945  -0.01183  -0.29977
   X16       -5.17859   0.00211   0.00000   0.01674   0.01777  -5.16082
   Y16        4.48475   0.01308   0.00000   0.01718   0.02489   4.50964
   Z16        4.45557   0.00462   0.00000  -0.00299  -0.00412   4.45145
   X17       -7.73099   0.01608   0.00000   0.02276   0.02491  -7.70608
   Y17        3.55142  -0.01900   0.00000   0.00844   0.01980   3.57122
   Z17       -0.10101   0.00374   0.00000   0.01477   0.01225  -0.08876
   X18       -4.79227   0.01510   0.00000   0.00720   0.00745  -4.78482
   Y18        0.25915  -0.00507   0.00000  -0.00322   0.00565   0.26480
   Z18       -3.73907   0.01334   0.00000   0.02225   0.02048  -3.71859
   X19       -4.57261  -0.00345   0.00000   0.03550   0.03860  -4.53401
   Y19        6.02961  -0.01668   0.00000   0.00117   0.00836   6.03797
   Z19        3.58690   0.00542   0.00000   0.00053  -0.00001   3.58688
   X20       -1.06290  -0.00264   0.00000  -0.00546  -0.00859  -1.07148
   Y20        1.86674   0.02241   0.00000   0.01792   0.02063   1.88737
   Z20        7.19821   0.00663   0.00000   0.00725   0.00755   7.20576
   X21       -1.78000  -0.01328   0.00000  -0.00124  -0.00245  -1.78245
   Y21        4.16393   0.00754   0.00000   0.00686   0.01012   4.17405
   Z21        8.41057   0.00540   0.00000   0.01438   0.01478   8.42535
   X22        0.91779  -0.00724   0.00000  -0.01027  -0.01402   0.90377
   Y22        1.58365  -0.00352   0.00000  -0.00589  -0.00544   1.57820
   Z22        7.81249  -0.00645   0.00000  -0.01000  -0.00883   7.80367
   X23       -2.23460   0.00393   0.00000   0.00186  -0.00333  -2.23793
   Y23        0.28828  -0.00203   0.00000   0.00345   0.00731   0.29559
   Z23        7.89851  -0.00629   0.00000  -0.01332  -0.01388   7.88463
   X24       -3.54531   0.01984   0.00000   0.01412   0.01361  -3.53170
   Y24        4.60847  -0.01026   0.00000  -0.00482   0.00044   4.60891
   Z24        7.94496  -0.00084   0.00000  -0.00491  -0.00526   7.93971
   X25        0.96709  -0.00190   0.00000  -0.00745  -0.01117   0.95592
   Y25       -1.84485  -0.00197   0.00000   0.00384   0.00576  -1.83909
   Z25       -0.13632  -0.00525   0.00000  -0.00383  -0.00329  -0.13961
   X26        1.22743   0.00078   0.00000   0.01323   0.01389   1.24132
   Y26        2.02366   0.01423   0.00000   0.00499   0.00666   2.03033
   Z26       -0.46452  -0.03358   0.00000  -0.03006  -0.02864  -0.49316
   X27        3.60432  -0.01244   0.00000  -0.06755  -0.06748   3.53684
   Y27        2.18826  -0.02307   0.00000  -0.06436  -0.06548   2.12279
   Z27        0.98606   0.02016   0.00000  -0.00056   0.00195   0.98801
   X28       -8.76588   0.00218   0.00000  -0.04443  -0.04051  -8.80639
   Y28        6.01356   0.00258   0.00000   0.04087   0.05304   6.06660
   Z28        1.92403  -0.00246   0.00000   0.00060  -0.00196   1.92207
   X29      -10.49855  -0.01710   0.00000  -0.11886  -0.11464 -10.61319
   Y29        6.48886   0.00486   0.00000  -0.19744  -0.18328   6.30558
   Z29        1.80683  -0.00122   0.00000   0.03773   0.03436   1.84120
   X30       -8.55161   0.00356   0.00000   0.09026   0.09241  -8.45920
   Y30        5.08510   0.00254   0.00000   0.02026   0.03175   5.11685
   Z30        3.50554  -0.00502   0.00000  -0.02773  -0.03031   3.47523
         Item               Value     Threshold  Converged?
 Maximum Force            0.033578     0.000450     NO 
 RMS     Force            0.011231     0.000300     NO 
 Maximum Displacement     0.183278     0.001800     NO 
 RMS     Displacement     0.031333     0.001200     NO 
 Predicted change in Energy=-1.030517D-02
 GradGradGradGradGradGradGradGradGradGradGradGradGradGradGradGradGradGrad

                          Input orientation:                          
 ---------------------------------------------------------------------
 Center     Atomic      Atomic             Coordinates (Angstroms)
 Number     Number       Type             X           Y           Z
 ---------------------------------------------------------------------
      1          6           0        0.002231    0.007405    0.007026
      2          8           0       -0.001563   -0.005824    1.714963
      3          1           0        2.880322   -0.006901    1.182144
      4          8           0        2.316324    0.725204    1.468307
      5          1           0        1.206630    0.217196    1.869159
      6          6           0       -1.507081   -0.053641   -0.296458
      7          6           0       -2.229134    1.190766    0.254255
      8          6           0       -2.127358    1.203382    1.794812
      9          6           0       -0.664728    1.153114    2.284693
     10          1           0       -1.955602   -0.974515    0.141192
     11          1           0       -2.742643    0.386939    2.227823
     12          1           0       -0.125667    2.066756    1.948269
     13          1           0       -1.804492    2.116567   -0.190414
     14          8           0       -1.620115   -0.140323   -1.713060
     15          8           0       -3.582713    1.024733   -0.158633
     16          8           0       -2.730988    2.386397    2.355608
     17          1           0       -4.077884    1.889808   -0.046969
     18          1           0       -2.532016    0.140125   -1.967792
     19          1           0       -2.399293    3.195158    1.898096
     20          6           0       -0.567005    0.998753    3.813124
     21          8           0       -0.943234    2.208810    4.458502
     22          1           0        0.478253    0.835149    4.129522
     23          1           0       -1.184261    0.156419    4.172364
     24          1           0       -1.868893    2.438929    4.201513
     25          1           0        0.505850   -0.973206   -0.073877
     26          8           0        0.656879    1.074402   -0.260968
     27          1           0        1.871613    1.123330    0.522835
     28          8           0       -4.660142    3.210308    1.017115
     29          1           0       -5.616260    3.336771    0.974321
     30          1           0       -4.476416    2.707722    1.839012
 ---------------------------------------------------------------------
                    Distance matrix (angstroms):
                    1          2          3          4          5
     1  C    0.000000
     2  O    1.707993   0.000000
     3  H    3.108780   2.930727   0.000000
     4  O    2.829417   2.442917   0.967450   0.000000
     5  H    2.227584   1.238243   1.823034   1.284591   0.000000
     6  C    1.540731   2.512904   4.630091   4.282454   3.482452
     7  C    2.537806   2.920200   5.329345   4.727775   3.919213
     8  C    3.026828   2.446949   5.188159   4.481246   3.477580
     9  C    2.635384   1.451729   3.889553   3.120298   2.133211
    10  H    2.194374   2.689495   5.040438   4.785355   3.795491
    11  H    3.551101   2.816169   5.732912   5.126834   3.969157
    12  H    2.832968   2.089359   3.731349   2.827268   2.280821
    13  H    2.784205   3.374250   5.323581   4.654929   4.112944
    14  O    2.369077   3.793302   5.352937   5.134762   4.577182
    15  O    3.730178   4.170977   6.680776   6.126605   5.263256
    16  O    4.318093   3.685500   6.212221   5.387228   4.521825
    17  H    4.493740   4.828480   7.316068   6.673699   5.864748
    18  H    3.215576   4.470702   6.263953   5.971221   5.357761
    19  H    4.416473   4.003615   6.216115   5.340639   4.676727
    20  C    3.974064   2.393987   4.451680   3.726470   2.745107
    21  O    5.055267   3.649432   5.501225   4.665519   3.910644
    22  H    4.231635   2.601453   3.894357   3.236149   2.453903
    23  H    4.333592   2.732017   5.048656   4.459769   3.320363
    24  H    5.196839   3.955587   6.136262   5.284251   4.453629
    25  H    1.105339   2.096007   2.854724   2.922455   2.384017
    26  O    1.280182   2.346218   2.862776   2.422001   2.361031
    27  H    2.237395   2.490974   1.652151   1.118118   1.753816
    28  O    5.746007   5.703758   8.199772   7.419595   6.641062
    29  H    6.602104   6.576193   9.133193   8.366013   7.555416
    30  H    5.541314   5.234790   7.869068   7.085839   6.204888
                    6          7          8          9         10
     6  C    0.000000
     7  C    1.540518   0.000000
     8  C    2.517590   1.543966   0.000000
     9  C    2.971221   2.563486   1.543307   0.000000
    10  H    1.113875   2.185417   2.739926   3.284472   0.000000
    11  H    2.844771   2.191985   1.110249   2.215398   2.612857
    12  H    3.382778   2.839299   2.185344   1.112883   3.982904
    13  H    2.193058   1.111377   2.208907   2.890235   3.112489
    14  O    1.423746   2.452149   3.790515   4.309034   2.060748
    15  O    2.343104   1.424858   2.442524   3.808013   2.595069
    16  O    3.805942   2.469225   1.441661   2.407374   4.098853
    17  H    3.232379   1.999318   2.769096   4.198691   3.569851
    18  H    1.970126   2.476506   3.930834   4.753582   2.454077
    19  H    4.020796   2.597836   2.012905   2.707050   4.546399
    20  C    4.345105   3.932568   2.559327   1.539311   4.393753
    21  O    5.295871   4.512830   3.083549   2.432592   5.458719
    22  H    4.931612   4.740686   3.517908   2.193377   5.010521
    23  H    4.485389   4.184879   2.763751   2.196957   4.257268
    24  H    5.155149   4.155542   2.717644   2.603370   5.305217
    25  H    2.224192   3.502939   3.894010   3.384426   2.470830
    26  O    2.440586   2.933951   3.463357   2.869360   3.344376
    27  H    3.670433   4.110087   4.197154   3.088374   4.381117
    28  O    4.724472   3.251200   3.323787   4.669276   5.059103
    29  H    5.476780   4.073874   4.170970   5.568043   5.716792
    30  H    4.582827   3.140522   2.789814   4.140580   4.774512
                   11         12         13         14         15
    11  H    0.000000
    12  H    3.122258   0.000000
    13  H    3.117629   2.719357   0.000000
    14  O    4.131421   4.528786   2.728736   0.000000
    15  O    2.609152   4.180433   2.086907   2.761411   0.000000
    16  O    2.003570   2.656275   2.722762   4.916545   2.983450
    17  H    3.035814   4.430836   2.289172   3.596933   1.003005
    18  H    4.208143   4.983769   2.755846   0.987473   2.271465
    19  H    2.848280   2.538736   2.424669   4.977248   3.215799
    20  C    2.760596   2.193877   4.336957   5.739794   4.986985
    21  O    3.396028   2.643835   4.728921   6.638130   5.448561
    22  H    3.767164   2.576711   5.051219   6.284144   5.908948
    23  H    2.502585   3.117148   4.822935   5.908997   5.026339
    24  H    2.978179   2.873057   4.404213   6.457291   4.893670
    25  H    4.207199   3.705301   3.859787   2.810754   4.551406
    26  O    4.268891   2.545167   2.673842   2.961220   4.241118
    27  H    4.973994   2.628886   3.874144   4.334537   5.497618
    28  O    3.621329   4.768252   3.287725   5.284161   2.705545
    29  H    4.304701   5.719102   4.168342   5.939812   3.280916
    30  H    2.922871   4.399067   3.406936   5.374665   2.760750
                   16         17         18         19         20
    16  O    0.000000
    17  H    2.798769   0.000000
    18  H    4.876179   3.023353   0.000000
    19  H    0.986628   2.881819   4.929090   0.000000
    20  C    2.955119   5.293446   6.165833   3.442210   0.000000
    21  O    2.765820   5.497914   6.935484   3.106230   1.422076
    22  H    3.981504   6.270070   6.835351   4.339260   1.104282
    23  H    3.265849   5.401895   6.286353   3.985290   1.104348
    24  H    2.037972   4.819831   6.616990   2.481721   1.979865
    25  H    5.259891   5.404460   3.749006   5.450118   4.488698
    26  O    4.477214   4.809227   3.735662   4.301086   4.254626
    27  H    5.112567   6.025669   5.153820   4.942110   4.097363
    28  O    2.488378   1.793047   4.781696   2.426478   5.427929
    29  H    3.337058   2.345918   5.327958   3.349969   6.246607
    30  H    1.848415   2.093975   4.986482   2.134368   4.701190
                   21         22         23         24         25
    21  O    0.000000
    22  H    2.003946   0.000000
    23  H    2.086211   1.796236   0.000000
    24  H    0.987847   2.843658   2.383154   0.000000
    25  H    5.724293   4.575967   4.707769   5.963307   0.000000
    26  O    5.110835   4.400631   4.887425   5.306147   2.061677
    27  H    4.958942   3.877202   4.857196   5.408777   2.572322
    28  O    5.163481   6.459997   5.600320   4.304240   6.736433
    29  H    5.937085   7.304553   6.323348   5.026295   7.560082
    30  H    4.426513   5.770764   4.774093   3.528858   6.483158
                   26         27         28         29         30
    26  O    0.000000
    27  H    1.446486   0.000000
    28  O    5.870801   6.874854   0.000000
    29  H    6.782073   7.821215   0.965394   0.000000
    30  H    5.781727   6.673837   0.980745   1.562894   0.000000
 Stoichiometry    C6H16O8
 Framework group  C1[X(C6H16O8)]
 Deg. of freedom    84
 Full point group                 C1      NOp   1
 Largest Abelian subgroup         C1      NOp   1
 Largest concise Abelian subgroup C1      NOp   1
                         Standard orientation:                         
 ---------------------------------------------------------------------
 Center     Atomic      Atomic             Coordinates (Angstroms)
 Number     Number       Type             X           Y           Z
 ---------------------------------------------------------------------
      1          6           0       -1.480068   -1.460311   -0.148762
      2          8           0       -1.615264    0.142274   -0.723814
      3          1           0       -4.285614   -0.247523    0.419185
      4          8           0       -3.536497    0.245948    0.781496
      5          1           0       -2.690955    0.409276   -0.171687
      6          6           0       -0.055969   -1.825043   -0.610027
      7          6           0        0.989638   -0.916556    0.064179
      8          6           0        0.776773    0.541311   -0.397497
      9          6           0       -0.654694    1.042212   -0.111497
     10          1           0        0.028641   -1.740191   -1.717438
     11          1           0        1.053041    0.650425   -1.467274
     12          1           0       -0.834851    1.053700    0.986648
     13          1           0        0.929672   -1.007286    1.170222
     14          8           0        0.133362   -3.191603   -0.258290
     15          8           0        2.241251   -1.413481   -0.401385
     16          8           0        1.689946    1.443249    0.259016
     17          1           0        2.983088   -1.036842    0.158829
     18          1           0        1.103814   -3.372459   -0.233459
     19          1           0        1.679944    1.297480    1.234765
     20          6           0       -0.917734    2.432381   -0.717894
     21          8           0       -0.216310    3.431835    0.011075
     22          1           0       -1.980084    2.715723   -0.615089
     23          1           0       -0.642325    2.463297   -1.786903
     24          1           0        0.750706    3.231404   -0.012389
     25          1           0       -2.270292   -1.846513   -0.818216
     26          8           0       -1.723917   -1.328389    1.101038
     27          1           0       -2.912600   -0.527191    1.294524
     28          8           0        3.881780    0.385739    0.778211
     29          1           0        4.826493    0.350838    0.582544
     30          1           0        3.478828    0.997339    0.125956
 ---------------------------------------------------------------------
 Rotational constants (GHZ):      0.6818323      0.5650215      0.3427502
 Standard basis: GTBas1 (6D, 7F)
 There are   242 symmetry adapted cartesian basis functions of A   symmetry.
 There are   242 symmetry adapted basis functions of A   symmetry.
   242 basis functions,   456 primitive gaussians,   242 cartesian basis functions
    58 alpha electrons       58 beta electrons
       nuclear repulsion energy      1108.0411310438 Hartrees.
 NAtoms=   30 NActive=   30 NUniq=   30 SFac= 1.00D+00 NAtFMM=   60 NAOKFM=F Big=F
 Integral buffers will be    131072 words long.
 Raffenetti 2 integral format.
 Two-electron integral symmetry is turned on.
 One-electron integrals computed using PRISM.
 NBasis=   242 RedAO= T EigKep=  1.91D-03  NBF=   242
 NBsUse=   242 1.00D-06 EigRej= -1.00D+00 NBFU=   242
 Initial guess from the checkpoint file:  "/home/iawad/scratch/MAIN/PRO_Halides/direct/TsF/glo_1w_ALPHA/glo_1w_ALPHA_TsF_G3MP2B3_00.chk"
 B after Tr=     0.000000    0.000000    0.000000
         Rot=    0.999998   -0.000539   -0.000660    0.001715 Ang=  -0.22 deg.
 ExpMin= 1.61D-01 ExpMax= 5.48D+03 ExpMxC= 8.25D+02 IAcc=1 IRadAn=         1 AccDes= 0.00D+00
 Harris functional with IExCor=  402 and IRadAn=       1 diagonalized for initial guess.
 HarFok:  IExCor=  402 AccDes= 0.00D+00 IRadAn=         1 IDoV= 1 UseB2=F ITyADJ=14
 ICtDFT=  3500011 ScaDFX=  1.000000  1.000000  1.000000  1.000000
 FoFCou: FMM=F IPFlag=           0 FMFlag=      100000 FMFlg1=           0
         NFxFlg=           0 DoJE=T BraDBF=F KetDBF=T FulRan=T
         wScrn=  0.000000 ICntrl=     500 IOpCl=  0 I1Cent=   200000004 NGrid=           0
         NMat0=    1 NMatS0=      1 NMatT0=    0 NMatD0=    1 NMtDS0=    0 NMtDT0=    0
 Petite list used in FoFCou.
 Requested convergence on RMS density matrix=1.00D-08 within 128 cycles.
 Requested convergence on MAX density matrix=1.00D-06.
 Requested convergence on             energy=1.00D-06.
 No special actions if energy rises.
 Integral accuracy reduced to 1.0D-05 until final iterations.
 Initial convergence to 1.0D-05 achieved.  Increase integral accuracy.
 SCF Done:  E(RB3LYP) =  -839.940246148     A.U. after   11 cycles
            NFock= 11  Conv=0.86D-08     -V/T= 2.0089
 Calling FoFJK, ICntrl=      2127 FMM=F ISym2X=0 I1Cent= 0 IOpClX= 0 NMat=1 NMatS=1 NMatT=0.
 ***** Axes restored to original set *****
 -------------------------------------------------------------------
 Center     Atomic                   Forces (Hartrees/Bohr)
 Number     Number              X              Y              Z
 -------------------------------------------------------------------
      1        6           0.005716791    0.009200324    0.012295320
      2        8           0.006547334   -0.006835484    0.024032394
      3        1           0.005050351   -0.003277714    0.000206437
      4        8          -0.001267064    0.007863919   -0.003394817
      5        1          -0.015414438    0.002604555   -0.016676282
      6        6           0.002248902   -0.000295811   -0.012150105
      7        6          -0.010818686   -0.009701327    0.001182832
      8        6           0.006415815    0.007541070   -0.001949868
      9        6           0.006121846   -0.012838718   -0.000287073
     10        1           0.004813870    0.009040574    0.003337638
     11        1           0.009463642    0.003247870   -0.006972053
     12        1          -0.006669552   -0.006045344    0.005107699
     13        1           0.002305863   -0.008008360    0.005457263
     14        8          -0.007900636    0.005855581   -0.004315999
     15        8          -0.008297605    0.012270733   -0.003989415
     16        8           0.001709964    0.009242622    0.003781601
     17        1           0.012089919   -0.013770389    0.003222502
     18        1           0.010924891   -0.003704746    0.010594661
     19        1          -0.002278085   -0.012527814    0.004135471
     20        6          -0.001961237    0.016696707    0.005123644
     21        8          -0.009493071    0.005746500    0.004610012
     22        1          -0.005431547   -0.002636684   -0.005030717
     23        1           0.003109453   -0.001320063   -0.004877142
     24        1           0.014675073   -0.007586573   -0.000916532
     25        1          -0.001419506   -0.000922525   -0.004012699
     26        8           0.000684341    0.010584041   -0.025169805
     27        1          -0.010811651   -0.018420097    0.014465214
[...]
 9614,-0.00053565,-0.00024896,-0.00024489,-0.00010604,0.00014205,0.0000
 0044,0.00000349,0.00016439,0.00005758,-0.00005834,0.00005282,0.0001775
 7,-0.00009979,0.00013056,0.00064505,-0.00478531,0.00087989,-0.00009599
 ,0.00016770,0.00004781,-0.00000117,0.00001933,-0.00000805,0.00027500,0
 .00040503,0.00339204,0.04324101,-0.01370069,0.00653039,0.03871970,-0.0
 4357746,-0.00776802,0.00112632,-0.00525521,-0.00348055,0.00025530,0.00
 092147,0.00120456,-0.08329098,0.06466349,0.00043626,-0.00007247,-0.000
 00473,-0.00181412,0.00080247,-0.00074742,0.00005452,-0.00000192,0.0000
 8017,-0.00077640,-0.00013618,-0.00036518,0.00095655,0.00036390,0.00024
 553,0.00043085,-0.00058198,0.00003106,-0.00096274,0.00089048,-0.000305
 91,0.00196349,-0.00692326,-0.00399939,0.00333457,-0.00131639,0.0011454
 1,-0.00003931,0.00009505,-0.00000366,-0.00002560,0.00054782,0.00022903
 ,0.00014445,0.00027727,-0.00026710,0.00009353,0.00002297,-0.00007682,-
 0.00019280,0.00046523,0.00064688,0.00021151,0.00021868,0.00049943,0.00
 148674,0.00329941,0.00391502,-0.00027214,-0.00002463,-0.00041443,-0.00
 003260,-0.00018394,-0.00025981,-0.00057885,0.00185615,-0.00314922,0.02
 234943,-0.00599418,0.00433548,-0.13677727,0.00813907,-0.05344116,0.001
 50927,-0.00361164,-0.00135623,-0.00105055,-0.00081677,-0.00009180,0.11
 059122,0.00238123,0.05288057,-0.12125523,0.09948494,0.00958595,0.00159
 300,-0.00087682,-0.00259636,-0.00010117,0.00001662,-0.00029841,-0.0005
 2176,-0.00011414,0.00073161,0.00105537,0.00012012,-0.00001433,-0.01300
 924,0.02851138,0.00648239,-0.00306336,-0.00347700,-0.00286929,-0.00018
 858,-0.00021891,-0.00105900,-0.00060621,0.00057357,-0.00029473,0.00069
 531,-0.00049975,0.00038022,-0.00002946,0.00001412,0.00008959,0.0000492
 0,-0.00019872,0.00006908,0.00011767,0.00020617,0.00000876,0.00094483,-
 0.00096691,-0.00038553,-0.00217297,0.00221411,0.00037142,0.00015243,0.
 00025020,0.00072158,-0.00018042,-0.00067489,-0.00021750,-0.00011161,-0
 .00011316,0.00004630,-0.00010424,-0.00002532,-0.00015171,0.00022616,-0
 .00013196,0.00009789,0.00011177,-0.00015297,-0.00013952,0.00004265,-0.
 00000490,0.00008207,-0.00001923,0.00000151,0.00000326,-0.00007954,0.00
 001967,-0.00012642,0.11784701,0.10213940,-0.23461334,-0.01084092,0.001
 52941,0.00125448,-0.00675599,-0.00084549,-0.00033248,-0.00058567,-0.00
 186174,0.00231248,-0.00237801,0.00135000,-0.00092040,-0.00088011,-0.00
 168180,0.00099080,-0.00086462,-0.00067589,0.00103782,-0.00024049,-0.00
 012954,0.00006327,0.00007771,-0.00075709,0.00144683,0.00000427,0.00084
 100,0.00078578,0.00008069,0.00005674,-0.00001909,-0.00004137,-0.000033
 87,0.00011673,0.00044808,-0.00033810,0.00031698,-0.00000263,0.00045431
 ,0.00030995,0.00088878,0.00013281,0.00006408,0.00010631,0.00006953,-0.
 00005859,-0.00000782,-0.00013586,0.00004729,0.00007131,0.00007849,0.00
 003651,0.00017565,-0.00006020,0.00003620,0.00002713,0.00009125,-0.0001
 7367,0.00024947,0.00005365,-0.00008667,-0.00022576,-0.00000764,0.00000
 046,0.00002334,0.00002522,0.00002931,-0.00003802,-0.00004519,0.0000079
 3,0.00004777,-0.10078708,0.26839595,-0.00096283,-0.01561268,-0.0395518
 6,0.01251832,-0.02060789,-0.02212366,-0.00033799,-0.00023619,-0.000198
 44,-0.00152069,0.00006126,0.00158997,0.00395766,-0.00000195,-0.0006251
 3,-0.00515469,0.00828410,0.00836776,-0.00060720,-0.00163077,-0.0012767
 2,-0.00067581,-0.00005384,-0.00059593,-0.00211162,0.00383713,-0.005559
 42,0.00014083,-0.00032877,0.00001959,0.00000079,0.00001171,0.00006151,
 0.00000800,-0.00047124,-0.00012127,0.00012403,0.00000029,0.00009592,0.
 00210587,-0.00072594,0.00087954,-0.00103321,0.00103839,0.00038593,0.00
 045735,-0.00008465,0.00056845,-0.00003446,-0.00029109,-0.00017193,0.00
 013080,-0.00012769,0.00037254,-0.00011298,0.00007120,-0.00020174,0.000
 93537,-0.00181990,0.00084527,0.00028055,-0.00059142,-0.00131614,-0.000
 02473,-0.00000806,0.00009927,0.00001505,0.00013056,0.00000673,-0.00022
 811,0.00009362,-0.00002521,-0.00958718,0.01087552,0.04911217,-0.202980
 78,-0.14482977,0.00517520,0.01871683,-0.00284858,0.03786931,0.00115231
 ,-0.00065927,-0.00509716,-0.02689215,0.02711425,-0.08128545,-0.0408430
 2,-0.01002963,0.00754748,-0.02098558,-0.04041337,0.01764531,0.00343381
 ,-0.00245482,-0.00059948,0.00053583,-0.00098930,-0.00216654,0.00252697
 ,-0.00699628,0.00072242,-0.00922180,-0.00094226,-0.00183792,0.00027663
 ,0.00001733,0.00011674,-0.00099231,0.00188185,0.00058429,-0.00123170,-
 0.00044810,0.00050620,0.00073600,0.00152339,-0.00128755,-0.00296276,0.
 00149355,0.00016679,-0.00073763,0.00148823,0.00161621,0.00101396,-0.00
 105625,-0.00048880,0.00074943,-0.00076111,0.00025380,-0.00017015,-0.00
 042066,-0.00036004,-0.00126193,0.00175765,-0.00175180,0.00020398,0.000
 81210,0.00192640,0.00020659,-0.00015859,0.00055957,0.00025479,-0.00000
 021,-0.00018096,0.00004609,-0.00016847,-0.00057148,0.01741875,-0.00410
 029,0.00179205,0.24830983,-0.14946529,-0.35499736,0.04361566,-0.000033
 37,0.00621825,0.03829484,-0.00107227,0.00070023,-0.00322254,0.00334283
 ,0.01913742,-0.00829527,-0.01795571,-0.00641834,0.00336595,-0.01569115
 ,-0.00227157,0.00815915,-0.00131005,-0.00531736,-0.00000538,0.00061728
 ,0.00051058,0.00004440,0.00360890,-0.01171472,0.00156799,0.00035168,0.
 00144934,-0.00020146,0.00058073,0.00005912,-0.00031937,0.00014344,0.00
 408390,0.00113609,-0.00000297,0.00282245,-0.00046999,0.00088035,0.0029
 1668,-0.00108547,-0.00003466,0.00295747,-0.00074710,-0.00120195,0.0012
 0288,-0.00002766,-0.00033031,-0.00036100,0.00013093,0.00029008,-0.0006
 8864,-0.00015648,-0.00016405,-0.00022226,0.00046215,-0.00098180,0.0035
 7462,-0.00131290,-0.00049631,0.00141505,0.00227474,-0.00011322,-0.0000
 8747,-0.00026897,0.00015142,-0.00015249,-0.00075794,0.00026830,-0.0002
 1715,0.00005085,-0.02277798,-0.03945648,0.01817449,0.18039704,0.416837
 81,0.03996556,0.07832069,-0.09280931,0.01978577,0.02499482,-0.03328143
 ,-0.00118339,-0.00017599,-0.00706816,-0.03998793,0.01729181,-0.0376643
 1,-0.00463116,-0.00191053,0.00287015,0.00002943,-0.00622139,0.00577656
 ,-0.00021728,-0.00034062,-0.00144414,-0.00181242,-0.00023857,-0.001564
 38,-0.00344089,0.00600972,0.00346193,-0.00311874,-0.00000551,0.0003022
 5,0.00016467,0.00003133,0.00019238,0.00089933,-0.00010786,-0.00057927,
 0.00051001,-0.00058538,-0.00013878,-0.00011786,-0.00053436,0.00328510,
 -0.00066310,0.00085531,0.00165251,0.00168139,-0.00054348,0.00122429,0.
 00021173,-0.00028917,-0.00044578,0.00028426,-0.00012744,0.00047973,-0.
 00049936,0.00032711,-0.00051944,-0.00009948,0.00041583,0.00095673,0.00
 068230,-0.00102238,-0.00104070,0.00014334,0.00005816,0.00046088,0.0000
 6214,-0.00004906,-0.00013422,-0.00039196,0.00012126,-0.00009008,-0.000
 85897,0.00326163,0.01061302,-0.02505182,-0.12355914,0.15578173,-0.0393
 6128,-0.04115435,0.02742858,-0.01938941,-0.00042912,-0.02236485,-0.007
 63753,0.00317588,-0.01062248,-0.04550227,-0.00712569,0.03323492,0.0455
 0752,0.00271509,0.00908005,0.00180779,-0.00024533,-0.00495508,-0.00104
 141,0.00102639,0.00085895,-0.00049133,0.00090944,0.00140427,-0.0024710
 0,0.00187943,-0.00094614,0.00156196,0.00040589,0.00005040,0.00009794,0
 .00000568,-0.00012212,0.00040698,0.00001701,0.00116284,-0.00042764,0.0
 0053317,-0.00003343,0.00043120,0.00021778,-0.00005838,0.00212980,-0.00
 111204,-0.00045974,0.00027588,-0.00069831,-0.00112565,-0.00052461,0.00
 071636,0.00034338,-0.00028184,0.00028277,-0.00033843,-0.00001105,0.000
 28377,0.00035272,0.00194429,-0.00093992,0.00164654,-0.00038597,-0.0004
 2631,-0.00146775,-0.00032024,0.00011723,-0.00072160,-0.00026283,0.0000
 9187,-0.00020228,-0.00003680,0.00010999,0.00051231,0.00133246,0.004643
 19,0.00007290,0.01285918,0.02091482,0.01804714,0.04966028,-0.01839330,
 0.00844066,-0.01868604,0.00680241,-0.00011451,0.00588787,0.00634088,-0
 .00621860,0.01731187,0.00671844,-0.03215612,-0.02189157,-0.01478792,-0
 .00521445,0.01497333,-0.00054735,-0.00262030,0.00259821,0.00028387,-0.
 00031220,-0.00009602,-0.00008414,-0.00037302,-0.00022667,0.00043009,0.
 00175224,0.00069768,-0.00104445,-0.00004370,-0.00005192,-0.00010875,0.
 00000014,-0.00001926,0.00013483,-0.00055195,-0.00040064,-0.00003118,0.
 00010061,0.00005848,0.00039854,0.00003627,0.00019726,-0.00019800,0.000
 16014,0.00005560,0.00020357,-0.00012855,0.00015776,0.00005378,-0.00004
 677,-0.00006157,0.00005584,-0.00001688,0.00007147,0.00006124,0.0000193
 4,-0.00007390,-0.00054861,0.00014833,-0.00028901,0.00012882,-0.0001323
 6,0.00016760,0.00004295,-0.00000401,0.00026365,0.00004758,-0.00005378,
 0.00011768,0.00000803,0.00000536,-0.00009082,-0.00064766,-0.00157884,-
 0.00013747,0.00032657,-0.04212260,0.00376108,0.01438853,0.08099203,-0.
 01499392,-0.03839375,0.03909233,-0.02192550,-0.00120725,-0.01914187,0.
 00237108,-0.00379942,0.01716030,-0.01168130,-0.00579547,-0.05567548,0.
 04645586,0.01806134,-0.02138485,0.00308034,0.00458979,-0.00376105,-0.0
 0136767,0.00103883,0.00147856,0.00012517,0.00051966,0.00211411,0.00001
 815,0.00051287,-0.00286317,0.00262400,0.00073289,0.00014237,-0.0001100
 6,0.00002502,-0.00019656,0.00093955,-0.00066932,0.00067363,-0.00056997
 ,0.00069742,-0.00008822,0.00042119,-0.00002906,-0.00032306,0.00188875,
 -0.00105586,-0.00101360,-0.00055909,-0.00027380,-0.00148043,-0.0005173
 2,0.00064482,0.00045430,-0.00032946,0.00025278,-0.00016951,0.00025685,
 0.00007593,0.00052444,0.00150623,-0.00107170,0.00079001,-0.00065088,0.
 00000967,-0.00070700,-0.00028385,0.00012951,-0.00079447,-0.00029906,0.
 00001936,0.00004069,0.00014365,0.00003434,0.00041413,-0.00016804,0.006
 53691,-0.00129738,0.04399695,0.02305644,-0.01034288,-0.05064238,-0.004
 30609,0.05647628,0.00072963,0.00024810,-0.00027250,-0.00144745,0.00046
 255,0.00015994,0.00011143,0.00000208,0.00003306,-0.00087376,-0.0001431
 6,-0.00016514,0.00105575,0.00027683,-0.00006727,-0.00027143,-0.0005096
 4,-0.00032640,0.00276297,0.00022323,0.00109322,0.00009898,-0.00354181,
 -0.00168140,0.00083167,0.00032012,0.00033383,-0.00003345,0.00007142,0.
 00001962,-0.00007333,0.00035213,0.00001873,0.00006340,0.00004387,-0.00
 002830,0.00009640,-0.00011236,-0.00024797,-0.00041468,0.00053774,0.000
 74472,-0.00382576,0.01152645,0.00445689,-0.01000943,0.00639436,-0.0070
 1745,-0.00609507,-0.00495814,-0.00402010,0.00018660,-0.00042308,-0.000
 88548,0.00111818,0.00057240,0.00082202,0.00002512,-0.00029023,0.000396
 72,-0.00036207,0.00012660,-0.00095097,-0.00009874,0.00004644,-0.000122
 05,0.00004733,0.00008019,-0.00003307,0.00005630,0.00003465,0.00119249,
 -0.00022720,0.00009146,-0.00004079,-0.00083323,-0.00019391,0.00008451,
 0.00054883,-0.00006002,0.00036026,0.60169297,-0.00103938,-0.00077616,-
 0.00062417,0.00064612,0.00012293,0.00026023,-0.00011791,-0.00002401,-0
 .00003092,0.00079472,0.00010783,0.00035714,-0.00080852,-0.00017428,0.0
 0002659,0.00149161,0.00059560,0.00030246,-0.00612537,-0.00252143,-0.00
 268389,-0.00001085,-0.00042407,-0.00065104,-0.00053665,0.00009615,0.00
 037716,-0.00012235,0.00013682,0.00004627,-0.00014593,0.00024249,-0.000
 18751,0.00010405,0.00002261,-0.00000132,0.00110227,0.00057187,0.000213
 06,0.00092170,-0.00043041,-0.00030181,0.01493238,-0.01007305,-0.005766
 99,0.00234533,0.00400590,0.00187529,-0.00806468,-0.00294735,0.00447685
 ,-0.00071647,0.00058965,0.00132278,0.00192507,-0.00133923,0.00047042,0
 .00031906,-0.00029983,-0.00048443,-0.00005360,0.00042580,0.00056151,0.
 00005666,0.00000713,0.00015370,-0.00002061,0.00004555,0.00002241,0.000
 04820,-0.00025268,-0.00048202,0.00039191,-0.00004556,0.00016506,0.0011
 0695,0.00042293,0.00019384,-0.00068752,0.00004596,-0.00059057,0.097061
 60,0.12990988,-0.00034825,-0.00030195,-0.00138579,-0.00087856,0.000571
 76,0.00076542,-0.00001793,-0.00001224,-0.00001675,-0.00002191,-0.00010
 242,0.00037708,0.00028730,0.00013722,-0.00009874,0.00103922,0.00012075
 ,-0.00000844,-0.00454092,-0.00133758,-0.00244297,0.00060041,-0.0038656
 0,-0.00265270,0.00044319,0.00038490,0.00085058,-0.00007785,0.00003346,
 0.00006168,-0.00004718,0.00015854,0.00002411,0.00004710,0.00003392,-0.
 00004465,0.00046806,0.00037166,0.00015269,0.00057523,-0.00015011,0.000
 56647,0.00987885,-0.00820716,0.00163928,-0.00771069,0.00440778,0.00106
 917,-0.00667503,0.00254444,-0.00425253,-0.00054735,0.00044891,0.000519
 12,-0.00042652,0.00043150,-0.00063078,0.00045318,-0.00055441,-0.000252
 48,-0.00048465,0.00050293,-0.00009937,-0.00006955,0.00004888,0.0000556
 0,0.00001582,0.00004874,0.00003434,0.00030892,-0.00015042,0.00048937,0
 .00022758,0.00000273,0.00018259,0.00038867,-0.00001847,0.00050141,-0.0
 0030240,0.00004686,-0.00044714,0.10299798,-0.14756728,0.37752500,-0.00
 019334,-0.00009479,-0.00001123,0.00019457,-0.00003824,-0.00001973,-0.0
 0002671,-0.00000254,-0.00000674,0.00018571,0.00002286,0.00005368,-0.00
 020879,-0.00004067,0.00001534,0.00013065,0.00014279,0.00011187,-0.0008
 5046,-0.00032642,-0.00035807,-0.00009850,0.00002989,-0.00002357,-0.000
 13314,0.00010058,0.00004525,-0.00001141,0.00000574,0.00000498,-0.00004
 297,0.00009187,-0.00005229,0.00002739,-0.00000557,0.00000915,0.0001449
 4,0.00010240,0.00002870,0.00011283,-0.00011174,-0.00013360,0.00191707,
 -0.00050568,-0.00054583,-0.00007616,0.00067666,-0.00071555,-0.00345124
 ,0.00050069,0.00181072,-0.00008379,0.00012126,0.00019679,0.00022472,-0
 .00008559,0.00011247,0.00004074,-0.00001665,-0.00006468,0.00002326,0.0
 0001463,0.00006538,0.00002194,-0.00000150,0.00002746,-0.00000973,0.000
 00366,-0.00000148,-0.00006218,-0.00000331,-0.00008460,0.00006329,-0.00
 001656,0.00001772,0.00021154,0.00005867,0.00000484,-0.00013661,0.00001
 419,-0.00010159,-0.42360799,-0.14041826,0.05075203,0.44909288,0.000172
 08,0.00008376,0.00004103,-0.00010423,-0.00003282,-0.00002714,0.0000226
 9,0.00000633,0.00000558,-0.00014563,-0.00002275,-0.00005601,0.00015418
 ,0.00003008,-0.00000916,-0.00010167,-0.00002325,-0.00008701,0.00047734
 ,0.00018475,0.00027886,0.00009462,0.00041520,0.00005180,0.00007299,-0.
 00009565,-0.00004668,0.00002271,-0.00003226,0.00000666,0.00004273,-0.0
 0011043,0.00007348,-0.00003901,-0.00000588,-0.00000399,-0.00020562,-0.
 00006560,-0.00000713,-0.00008806,0.00001823,0.00005826,-0.00108166,-0.
 00222059,-0.00026172,0.00072357,-0.00087058,0.00073717,0.00328304,0.00
 320858,0.00002236,0.00009228,-0.00003825,-0.00011583,-0.00011641,0.000
 03075,-0.00001078,-0.00004555,0.00011220,0.00008258,0.00003247,-0.0001
 1250,-0.00006720,-0.00001296,-0.00000822,-0.00002350,0.00000191,-0.000
 02548,0.00000149,-0.00000185,0.00006681,0.00004109,-0.00004223,0.00000
 516,-0.00001519,-0.00018560,-0.00006680,-0.00002206,0.00011610,-0.0000
 0668,0.00009668,-0.16961757,-0.06920759,0.03846206,0.15355139,0.065767
 67,0.00001952,0.00002400,0.00011161,0.00000227,-0.00003893,-0.00011959
 ,-0.00000129,0.00000088,0.00000542,0.00000622,0.00000162,-0.00003623,-
 0.00002497,0.00000273,0.00001650,-0.00006508,-0.00002140,0.00008449,0.
 00004062,0.00026287,0.00010778,-0.00027381,-0.00007135,-0.00014941,-0.
 00001083,0.00012019,0.00003185,0.00001989,-0.00000594,-0.00001751,-0.0
 0001447,0.00007015,0.00001883,0.00000812,-0.00000877,0.00000420,-0.000
 15629,-0.00001638,0.00001133,-0.00003523,-0.00002912,-0.00014593,-0.00
 058212,-0.00167388,-0.00058997,-0.00135400,0.00131729,-0.00122043,0.00
 290467,0.00312722,0.00038717,0.00008028,0.00000078,0.00007257,0.000308
 75,-0.00005975,0.00008497,-0.00004758,0.00004280,0.00008207,0.00004945
 ,-0.00006236,-0.00012404,0.00001358,-0.00000213,-0.00001105,-0.0000014
 3,0.00000751,-0.00001134,-0.00009503,0.00002180,0.00009235,-0.00000660
 ,-0.00000856,-0.00000835,-0.00001027,-0.00000472,-0.00005529,0.0000162
 0,0.00000041,0.00003799,0.10278008,0.05201362,-0.06032217,-0.06478746,
 -0.03954973,0.05336525,-0.00041908,-0.00000579,0.00146146,0.00231273,-
 0.00098294,-0.00075318,-0.00009312,0.00000674,-0.00002637,0.00088794,0
 .00024642,-0.00013942,-0.00129295,-0.00041298,0.00013271,-0.00065034,0
 .00054362,0.00026327,0.00241374,-0.00010729,0.00162656,-0.00105712,0.0
 0832629,0.00404308,-0.00124503,-0.00070605,-0.00116866,0.00008329,-0.0
 0012852,-0.00004373,0.00020673,-0.00073178,-0.00007207,-0.00009090,-0.
 00006740,0.00008535,-0.00044328,-0.00024571,0.00008035,-0.00021859,-0.
 00037344,-0.00111381,-0.00439043,0.00220171,-0.00062355,0.00152297,-0.
 00817803,0.00107338,0.00615713,-0.00316082,0.00086408,0.00031376,-0.00
 001126,0.00011115,-0.00342969,-0.00094143,-0.00171453,-0.00034661,0.00
 068651,-0.00034513,0.00077236,-0.00041432,0.00127716,0.00013893,-0.000
 08244,0.00010473,-0.00006174,-0.00012891,0.00002651,-0.00025697,-0.000
 00360,-0.00196232,0.00002031,-0.00008014,-0.00012501,0.00046053,0.0002
 1945,-0.00048204,-0.00028232,0.00001120,0.00001205,-0.16125195,0.03562
 047,-0.14633476,-0.02339852,0.01292797,-0.03878320,0.18363821,0.000427
 95,0.00018978,-0.00029355,-0.00068361,0.00021520,0.00015833,0.00005936
 ,0.00001025,0.00001477,-0.00045819,-0.00010267,-0.00005839,0.00057264,
 0.00014284,-0.00005567,0.00003167,-0.00027179,-0.00009169,0.00186530,0
 .00031625,-0.00040457,0.00213178,-0.00201574,0.00013585,0.00048414,-0.
 00017953,0.00002807,0.00000639,-0.00003438,0.00000264,0.00020206,-0.00
 026196,0.00017324,-0.00005989,0.00002267,-0.00001346,-0.00026428,-0.00
 013548,-0.00002004,-0.00020603,0.00022953,0.00047644,-0.00081950,-0.00
 012012,0.00213935,-0.00153986,-0.00556249,-0.00081300,-0.00094687,0.00
 011342,-0.00628499,0.00009837,-0.00015586,-0.00039843,-0.00399294,0.00
 238432,-0.00088808,-0.00002108,-0.00000111,0.00026166,-0.00020989,-0.0
 0013457,-0.00058948,-0.00006035,0.00000539,-0.00008197,0.00002125,-0.0
 0002291,-0.00000270,0.00006320,0.00022936,0.00073674,-0.00009393,0.000
 02711,0.00000143,-0.00045634,-0.00021450,0.00009033,0.00026821,-0.0000
 0575,0.00015804,0.06137772,-0.04883344,0.11351059,-0.01376977,0.003015
 81,-0.01546083,-0.04402754,0.05115039,0.00013909,0.00006508,0.00106811
 ,0.00103238,-0.00050624,-0.00055856,-0.00000287,0.00000838,0.00000626,
 0.00016165,0.00011887,-0.00026596,-0.00040484,-0.00018059,0.00008472,-
 0.00030061,0.00012778,-0.00009363,0.00363518,-0.00090209,0.00133080,0.
 00147576,0.00380606,0.00290970,-0.00047823,-0.00069241,-0.00093403,0.0
 0000660,0.00005294,0.00000887,-0.00004703,-0.00015120,0.00000401,-0.00
 004469,-0.00000800,0.00002530,-0.00010686,-0.00004177,-0.00027470,-0.0
 0038697,0.00008248,-0.00031501,-0.00346993,0.00290845,0.00143177,-0.00
 091348,-0.00324397,-0.00708181,0.00201982,-0.00525713,-0.00784823,0.00
 031440,-0.00028218,-0.00038509,0.00128878,-0.00054452,0.00112217,-0.00
 031010,0.00041210,0.00012857,0.00034709,-0.00036264,0.00005838,0.00006
 496,-0.00004551,-0.00002697,-0.00001762,-0.00003488,-0.00002058,-0.000
 39255,0.00014800,-0.00040630,-0.00012410,-0.00000733,-0.00012706,-0.00
 017814,0.00011919,-0.00038048,0.00015149,-0.00003582,0.00028753,-0.199
 63517,0.09653356,-0.31215939,0.01365004,0.00034401,0.00829691,0.182525
 93,-0.09243063,0.31411471\\0.00000208,-0.00000291,0.00000894,-0.000000
 68,0.00000184,0.00000419,0.00000101,0.00000242,0.00000025,-0.00000283,
 0.00001198,0.00000907,0.00000040,0.00000178,0.00000103,-0.00000048,-0.
 00000541,0.00000442,0.00000057,-0.00000291,-0.00000168,-0.00000121,-0.
 00000085,-0.00000070,-0.00000336,0.00000246,-0.00000038,0.00000036,-0.
 00000189,0.00000615,-0.00000010,-0.00000079,-0.00000258,-0.00000242,-0
 .00000004,-0.00000049,0.00000522,-0.00000590,0.00000079,0.00000177,-0.
 00001633,0.00000462,0.00000325,0.00000087,-0.00000012,-0.00000547,0.00
 002271,-0.00003026,0.00000771,0.00001838,-0.00000914,0.00000342,-0.000
 01075,-0.00000135,-0.00000956,-0.00002016,0.00000747,-0.00000407,0.000
 01159,0.00000564,-0.00000040,0.00001520,-0.00000548,-0.00000804,0.0000
 0446,-0.00000070,-0.00000125,0.00000916,0.00000181,-0.00000281,0.00000
 454,-0.00000320,0.00000002,0.00000004,0.00000287,-0.00000092,-0.000000
 71,0.00000225,-0.00000931,0.00000283,0.00000268,0.00013203,-0.00002019
 ,-0.00001216,-0.00013532,-0.00003637,-0.00000364,0.00003040,0.00001494
 ,0.00000968\\\@
 Job cpu time:       0 days  8 hours 22 minutes 34.3 seconds.
 File lengths (MBytes):  RWF= 122120 Int=      0 D2E=      0 Chk=     22 Scr=      1
 Normal termination of Gaussian 09 at Mon Jun 13 08:02:48 2016.
