 Entering Gaussian System, Link 0=g09
 Initial command:
 /usr/local/gaussian/g09.D01/g09/l1.exe "/nqs/iawad/Gau-21949.inp" -scrdir="/nqs/iawad/"
 Entering Link 1 = /usr/local/gaussian/g09.D01/g09/l1.exe PID=     21950.
  
 Copyright (c) 1988,1990,1992,1993,1995,1998,2003,2009,2013,
            Gaussian, Inc.  All Rights Reserved.
  
 This is part of the Gaussian(R) 09 program.  It is based on
 the Gaussian(R) 03 system (copyright 2003, Gaussian, Inc.),
 the Gaussian(R) 98 system (copyright 1998, Gaussian, Inc.),
 the Gaussian(R) 94 system (copyright 1995, Gaussian, Inc.),
 the Gaussian 92(TM) system (copyright 1992, Gaussian, Inc.),
 the Gaussian 90(TM) system (copyright 1990, Gaussian, Inc.),
 the Gaussian 88(TM) system (copyright 1988, Gaussian, Inc.),
 the Gaussian 86(TM) system (copyright 1986, Carnegie Mellon
 University), and the Gaussian 82(TM) system (copyright 1983,
 Carnegie Mellon University). Gaussian is a federally registered
 trademark of Gaussian, Inc.
  
 This software contains proprietary and confidential information,
 including trade secrets, belonging to Gaussian, Inc.
  
 This software is provided under written license and may be
 used, copied, transmitted, or stored only in accord with that
 written license.
  
 The following legend is applicable only to US Government
 contracts under FAR:
  
                    RESTRICTED RIGHTS LEGEND
  
 Use, reproduction and disclosure by the US Government is
 subject to restrictions as set forth in subparagraphs (a)
 and (c) of the Commercial Computer Software - Restricted
 Rights clause in FAR 52.227-19.
  
 Gaussian, Inc.
 340 Quinnipiac St., Bldg. 40, Wallingford CT 06492
  
  
 ---------------------------------------------------------------
 Warning -- This program may not be used in any manner that
 competes with the business of Gaussian, Inc. or will provide
 assistance to any competitor of Gaussian, Inc.  The licensee
 of this program is prohibited from giving any competitor of
 Gaussian, Inc. access to this program.  By using this program,
 the user acknowledges that Gaussian, Inc. is engaged in the
 business of creating and licensing software in the field of
 computational chemistry and represents and warrants to the
 licensee that it is not a competitor of Gaussian, Inc. and that
 it will not use this program in any manner prohibited above.
 ---------------------------------------------------------------
  

 Cite this work as:
 Gaussian 09, Revision D.01,
 M. J. Frisch, G. W. Trucks, H. B. Schlegel, G. E. Scuseria, 
 M. A. Robb, J. R. Cheeseman, G. Scalmani, V. Barone, B. Mennucci, 
 G. A. Petersson, H. Nakatsuji, M. Caricato, X. Li, H. P. Hratchian, 
 A. F. Izmaylov, J. Bloino, G. Zheng, J. L. Sonnenberg, M. Hada, 
 M. Ehara, K. Toyota, R. Fukuda, J. Hasegawa, M. Ishida, T. Nakajima, 
 Y. Honda, O. Kitao, H. Nakai, T. Vreven, J. A. Montgomery, Jr., 
 J. E. Peralta, F. Ogliaro, M. Bearpark, J. J. Heyd, E. Brothers, 
 K. N. Kudin, V. N. Staroverov, T. Keith, R. Kobayashi, J. Normand, 
 K. Raghavachari, A. Rendell, J. C. Burant, S. S. Iyengar, J. Tomasi, 
 M. Cossi, N. Rega, J. M. Millam, M. Klene, J. E. Knox, J. B. Cross, 
 V. Bakken, C. Adamo, J. Jaramillo, R. Gomperts, R. E. Stratmann, 
 O. Yazyev, A. J. Austin, R. Cammi, C. Pomelli, J. W. Ochterski, 
 R. L. Martin, K. Morokuma, V. G. Zakrzewski, G. A. Voth, 
 P. Salvador, J. J. Dannenberg, S. Dapprich, A. D. Daniels, 
 O. Farkas, J. B. Foresman, J. V. Ortiz, J. Cioslowski, 
 and D. J. Fox, Gaussian, Inc., Wallingford CT, 2013.
 
 ******************************************
 Gaussian 09:  AM64L-G09RevD.01 24-Apr-2013
                 5-Jun-2016 
 ******************************************
 %NPROCS=4
 Will use up to    4 processors via shared memory.
 %rwf=/nqs/iawad//glo_2w_Beta_G3MP2B3_00.rwf
 %nosave
 %chk=/home/iawad/scratch/MAIN/PRO_Halides/direct/TsF/glo_2w_Beta/glo_2w_Beta_G3M
 P2B3_00.chk
 ----------------------------------------------------------
 # opt=(TS, CalcFC, NoEigenTest, MaxCycle=500) Freq G3MP2B3
 ----------------------------------------------------------
 1/5=1,6=500,10=4,11=1,14=-1,18=20,26=3,38=1/1,3;
 2/9=110,12=2,17=6,18=5,40=1/2;
 3/5=33,7=1,11=2,16=1,25=1,30=1,71=2,74=-5,140=1/1,2,3;
 4//1;
 5/5=2,38=5/2;
 8/6=4,10=90,11=11/1;
 11/6=1,8=1,9=11,15=111,16=1/1,2,10;
 10/6=1,13=1/2;
 6/7=2,8=2,9=2,10=2,28=1/1;
 7/10=1,18=20,25=1/1,2,3,16;
 1/5=1,6=500,10=4,11=1,14=-1,18=20,26=3/3(2);
 2/9=110/2;
 99//99;
 2/9=110/2;
 3/5=33,7=1,11=2,16=1,25=1,30=1,71=1,74=-5/1,2,3;
 4/5=5,16=3,69=1/1;
 5/5=2,38=5/2;
 7//1,2,3,16;
 1/5=1,6=500,11=1,14=-1,18=20,26=3/3(-5);
 2/9=110/2;
 6/7=2,8=2,9=2,10=2,19=2,28=1/1;
 99/9=1/99;
 ----------------------
 glo_2w_Beta_G3MP2B3_00
 ----------------------
 Symbolic Z-matrix:
 Charge =  0 Multiplicity = 1
 C
 O                    1    B1
 O                    1    B2       2    A1
 H                    3    B3       1    A2       2    D1       0
 H                    2    B4       1    A3       3    D2       0
 H                    3    B5       1    A4       2    D3       0
 O                    3    B6       1    A5       2    D4       0
 H                    7    B7       3    A6       1    D5       0
 O                    7    B8       3    A7       1    D6       0
 H                    9    B9       7    A8       3    D7       0
 C                    1    B10      3    A9       7    D8       0
 C                    11   B11      1    A10      3    D9       0
 C                    12   B12      11   A11      1    D10      0
 C                    2    B13      1    A12      3    D11      0
 H                    1    B14      3    A13      11   D12      0
 H                    11   B15      1    A14      3    D13      0
 H                    13   B16      12   A15      11   D14      0
 H                    14   B17      2    A16      1    D15      0
 H                    12   B18      11   A17      1    D16      0
 O                    11   B19      1    A18      3    D17      0
 O                    12   B20      11   A19      1    D18      0
 O                    13   B21      12   A20      11   D19      0
 H                    21   B22      12   A21      11   D20      0
 H                    20   B23      11   A22      1    D21      0
 H                    22   B24      13   A23      12   D22      0
 C                    14   B25      2    A24      1    D23      0
 O                    26   B26      14   A25      2    D24      0
 H                    26   B27      14   A26      2    D25      0
 H                    26   B28      14   A27      2    D26      0
 H                    27   B29      26   A28      14   D27      0
       Variables:
  B1                    1.84971                  
  B2                    1.26903                  
  B3                    1.2785                   
  B4                    2.89942                  
  B5                    2.8731                   
  B6                    2.42345                  
  B7                    1.21136                  
  B8                    2.41502                  
  B9                    1.19737                  
  B10                   1.52201                  
  B11                   1.52788                  
  B12                   1.5229                   
  B13                   1.41857                  
  B14                   1.10283                  
  B15                   1.09972                  
  B16                   1.10239                  
  B17                   1.10762                  
  B18                   1.10397                  
  B19                   1.4213                   
  B20                   1.42415                  
  B21                   1.42473                  
  B22                   0.97256                  
  B23                   0.97331                  
  B24                   0.97621                  
  B25                   1.53819                  
  B26                   1.43528                  
  B27                   1.09834                  
  B28                   1.0934                   
  B29                   0.9706                   
  A1                  105.69559                  
  A2                  113.38266                  
  A3                   98.82766                  
  A4                  127.80613                  
  A5                  110.68413                  
  A6                   93.36024                  
  A7                   87.89834                  
  A8                   96.86166                  
  A9                  117.58936                  
  A10                 112.75766                  
  A11                 113.65737                  
  A12                 118.64907                  
  A13                 118.82742                  
  A14                 107.81202                  
  A15                 108.59545                  
  A16                 111.47011                  
  A17                 108.6767                   
  A18                 105.72491                  
  A19                 106.16328                  
  A20                 105.85511                  
  A21                 105.87176                  
  A22                 105.13983                  
  A23                 106.15789                  
  A24                 107.8562                   
  A25                 112.69384                  
  A26                 110.21384                  
  A27                 108.94216                  
  A28                 107.87897                  
  D1                  -75.8126                   
  D2                   79.78407                  
  D3                  -62.32373                  
  D4                  -71.18745                  
  D5                   46.65466                  
  D6                   44.75795                  
  D7                   -2.32891                  
  D8                  178.3731                   
  D9                  165.70059                  
  D10                 -65.83057                  
  D11                -174.77728                  
  D12                -144.39966                  
  D13                  44.18045                  
  D14                 -57.52201                  
  D15                 -65.52371                  
  D16                  54.75461                  
  D17                 -74.7849                   
  D18                 172.62393                  
  D19                -176.42893                  
  D20                 171.19379                  
  D21                -164.10105                  
  D22                -175.24958                  
  D23                 174.77459                  
  D24                -177.06604                  
  D25                  58.26399                  
  D26                 -59.76624                  
  D27                 -71.92773                  
 
 Add virtual bond connecting atoms O7         and H4         Dist= 2.18D+00.
 Add virtual bond connecting atoms H10        and O9         Dist= 2.26D+00.
 Add virtual bond connecting atoms H8         and O7         Dist= 2.29D+00.
 Add virtual bond connecting atoms O9         and H8         Dist= 2.30D+00.
 Add virtual bond connecting atoms H4         and O3         Dist= 2.42D+00.
 Add virtual bond connecting atoms H10        and O2         Dist= 2.33D+00.

 GradGradGradGradGradGradGradGradGradGradGradGradGradGradGradGradGradGrad
 Berny optimization.
 Initialization pass.
                           ----------------------------
                           !    Initial Parameters    !
                           ! (Angstroms and Degrees)  !
 --------------------------                            --------------------------
 ! Name  Definition              Value          Derivative Info.                !
 --------------------------------------------------------------------------------
 ! R1    R(1,3)                  1.269          calculate D2E/DX2 analytically  !
 ! R2    R(1,11)                 1.522          calculate D2E/DX2 analytically  !
 ! R3    R(1,15)                 1.1028         calculate D2E/DX2 analytically  !
 ! R4    R(2,10)                 1.232          calculate D2E/DX2 analytically  !
 ! R5    R(2,14)                 1.4186         calculate D2E/DX2 analytically  !
 ! R6    R(3,4)                  1.2785         calculate D2E/DX2 analytically  !
 ! R7    R(4,7)                  1.1555         calculate D2E/DX2 analytically  !
 ! R8    R(5,9)                  0.9703         calculate D2E/DX2 analytically  !
 ! R9    R(6,7)                  0.9707         calculate D2E/DX2 analytically  !
 ! R10   R(7,8)                  1.2114         calculate D2E/DX2 analytically  !
 ! R11   R(8,9)                  1.216          calculate D2E/DX2 analytically  !
 ! R12   R(9,10)                 1.1974         calculate D2E/DX2 analytically  !
 ! R13   R(11,12)                1.5279         calculate D2E/DX2 analytically  !
 ! R14   R(11,16)                1.0997         calculate D2E/DX2 analytically  !
 ! R15   R(11,20)                1.4213         calculate D2E/DX2 analytically  !
 ! R16   R(12,13)                1.5229         calculate D2E/DX2 analytically  !
 ! R17   R(12,19)                1.104          calculate D2E/DX2 analytically  !
 ! R18   R(12,21)                1.4241         calculate D2E/DX2 analytically  !
 ! R19   R(13,14)                1.5335         calculate D2E/DX2 analytically  !
 ! R20   R(13,17)                1.1024         calculate D2E/DX2 analytically  !
 ! R21   R(13,22)                1.4247         calculate D2E/DX2 analytically  !
 ! R22   R(14,18)                1.1076         calculate D2E/DX2 analytically  !
 ! R23   R(14,26)                1.5382         calculate D2E/DX2 analytically  !
 ! R24   R(20,24)                0.9733         calculate D2E/DX2 analytically  !
 ! R25   R(21,23)                0.9726         calculate D2E/DX2 analytically  !
 ! R26   R(22,25)                0.9762         calculate D2E/DX2 analytically  !
 ! R27   R(26,27)                1.4353         calculate D2E/DX2 analytically  !
 ! R28   R(26,28)                1.0983         calculate D2E/DX2 analytically  !
 ! R29   R(26,29)                1.0934         calculate D2E/DX2 analytically  !
 ! R30   R(27,30)                0.9706         calculate D2E/DX2 analytically  !
 ! A1    A(3,1,11)             117.5894         calculate D2E/DX2 analytically  !
 ! A2    A(3,1,15)             118.8274         calculate D2E/DX2 analytically  !
 ! A3    A(11,1,15)            114.0809         calculate D2E/DX2 analytically  !
 ! A4    A(10,2,14)            111.4168         calculate D2E/DX2 analytically  !
 ! A5    A(1,3,4)              113.3827         calculate D2E/DX2 analytically  !
 ! A6    A(4,7,6)              106.6799         calculate D2E/DX2 analytically  !
 ! A7    A(4,7,8)               98.8753         calculate D2E/DX2 analytically  !
 ! A8    A(6,7,8)              108.9243         calculate D2E/DX2 analytically  !
 ! A9    A(5,9,8)              106.5109         calculate D2E/DX2 analytically  !
 ! A10   A(5,9,10)             108.9306         calculate D2E/DX2 analytically  !
 ! A11   A(8,9,10)             102.3712         calculate D2E/DX2 analytically  !
 ! A12   A(1,11,12)            112.7577         calculate D2E/DX2 analytically  !
 ! A13   A(1,11,16)            107.812          calculate D2E/DX2 analytically  !
 ! A14   A(1,11,20)            105.7249         calculate D2E/DX2 analytically  !
 ! A15   A(12,11,16)           109.917          calculate D2E/DX2 analytically  !
 ! A16   A(12,11,20)           109.4175         calculate D2E/DX2 analytically  !
 ! A17   A(16,11,20)           111.1559         calculate D2E/DX2 analytically  !
 ! A18   A(11,12,13)           113.6574         calculate D2E/DX2 analytically  !
 ! A19   A(11,12,19)           108.6767         calculate D2E/DX2 analytically  !
 ! A20   A(11,12,21)           106.1633         calculate D2E/DX2 analytically  !
 ! A21   A(13,12,19)           108.2413         calculate D2E/DX2 analytically  !
 ! A22   A(13,12,21)           110.3995         calculate D2E/DX2 analytically  !
 ! A23   A(19,12,21)           109.6451         calculate D2E/DX2 analytically  !
 ! A24   A(12,13,14)           110.9203         calculate D2E/DX2 analytically  !
 ! A25   A(12,13,17)           108.5954         calculate D2E/DX2 analytically  !
 ! A26   A(12,13,22)           105.8551         calculate D2E/DX2 analytically  !
 ! A27   A(14,13,17)           108.562          calculate D2E/DX2 analytically  !
 ! A28   A(14,13,22)           112.1415         calculate D2E/DX2 analytically  !
 ! A29   A(17,13,22)           110.7077         calculate D2E/DX2 analytically  !
 ! A30   A(2,14,13)            108.795          calculate D2E/DX2 analytically  !
 ! A31   A(2,14,18)            111.4701         calculate D2E/DX2 analytically  !
 ! A32   A(2,14,26)            107.8562         calculate D2E/DX2 analytically  !
 ! A33   A(13,14,18)           107.746          calculate D2E/DX2 analytically  !
 ! A34   A(13,14,26)           111.943          calculate D2E/DX2 analytically  !
 ! A35   A(18,14,26)           109.0661         calculate D2E/DX2 analytically  !
 ! A36   A(11,20,24)           105.1398         calculate D2E/DX2 analytically  !
 ! A37   A(12,21,23)           105.8718         calculate D2E/DX2 analytically  !
 ! A38   A(13,22,25)           106.1579         calculate D2E/DX2 analytically  !
 ! A39   A(14,26,27)           112.6938         calculate D2E/DX2 analytically  !
 ! A40   A(14,26,28)           110.2138         calculate D2E/DX2 analytically  !
 ! A41   A(14,26,29)           108.9422         calculate D2E/DX2 analytically  !
 ! A42   A(27,26,28)           111.0498         calculate D2E/DX2 analytically  !
 ! A43   A(27,26,29)           105.9612         calculate D2E/DX2 analytically  !
 ! A44   A(28,26,29)           107.7552         calculate D2E/DX2 analytically  !
 ! A45   A(26,27,30)           107.879          calculate D2E/DX2 analytically  !
 ! A46   L(3,4,7,10,-1)        169.5917         calculate D2E/DX2 analytically  !
 ! A47   L(7,8,9,1,-1)         168.471          calculate D2E/DX2 analytically  !
 ! A48   L(2,10,9,4,-1)        174.943          calculate D2E/DX2 analytically  !
 ! A49   L(3,4,7,10,-2)        177.6387         calculate D2E/DX2 analytically  !
 ! A50   L(7,8,9,1,-2)         180.5334         calculate D2E/DX2 analytically  !
 ! A51   L(2,10,9,4,-2)        179.3444         calculate D2E/DX2 analytically  !
 ! D1    D(11,1,3,4)           173.748          calculate D2E/DX2 analytically  !
 ! D2    D(15,1,3,4)            29.3483         calculate D2E/DX2 analytically  !
 ! D3    D(3,1,11,12)          165.7006         calculate D2E/DX2 analytically  !
 ! D4    D(3,1,11,16)           44.1804         calculate D2E/DX2 analytically  !
 ! D5    D(3,1,11,20)          -74.7849         calculate D2E/DX2 analytically  !
 ! D6    D(15,1,11,12)         -48.2587         calculate D2E/DX2 analytically  !
 ! D7    D(15,1,11,16)        -169.7788         calculate D2E/DX2 analytically  !
 ! D8    D(15,1,11,20)          71.2558         calculate D2E/DX2 analytically  !
 ! D9    D(14,2,9,5)           -40.4255         calculate D2E/DX2 analytically  !
 ! D10   D(14,2,9,8)          -151.9811         calculate D2E/DX2 analytically  !
 ! D11   D(10,2,14,13)         172.0219         calculate D2E/DX2 analytically  !
 ! D12   D(10,2,14,18)          53.3477         calculate D2E/DX2 analytically  !
 ! D13   D(10,2,14,26)         -66.354          calculate D2E/DX2 analytically  !
 ! D14   D(1,3,7,6)            157.7612         calculate D2E/DX2 analytically  !
 ! D15   D(1,3,7,8)             46.6547         calculate D2E/DX2 analytically  !
 ! D16   D(4,7,9,5)           -113.4208         calculate D2E/DX2 analytically  !
 ! D17   D(4,7,9,10)            -1.1436         calculate D2E/DX2 analytically  !
 ! D18   D(6,7,9,5)            136.962          calculate D2E/DX2 analytically  !
 ! D19   D(6,7,9,10)          -110.7609         calculate D2E/DX2 analytically  !
 ! D20   D(1,11,12,13)         -65.8306         calculate D2E/DX2 analytically  !
 ! D21   D(1,11,12,19)          54.7546         calculate D2E/DX2 analytically  !
 ! D22   D(1,11,12,21)         172.6239         calculate D2E/DX2 analytically  !
 ! D23   D(16,11,12,13)         54.4887         calculate D2E/DX2 analytically  !
 ! D24   D(16,11,12,19)        175.0738         calculate D2E/DX2 analytically  !
 ! D25   D(16,11,12,21)        -67.0568         calculate D2E/DX2 analytically  !
 ! D26   D(20,11,12,13)        176.8149         calculate D2E/DX2 analytically  !
 ! D27   D(20,11,12,19)        -62.5999         calculate D2E/DX2 analytically  !
 ! D28   D(20,11,12,21)         55.2694         calculate D2E/DX2 analytically  !
 ! D29   D(1,11,20,24)        -164.101          calculate D2E/DX2 analytically  !
 ! D30   D(12,11,20,24)        -42.4086         calculate D2E/DX2 analytically  !
 ! D31   D(16,11,20,24)         79.1736         calculate D2E/DX2 analytically  !
 ! D32   D(11,12,13,14)         61.6992         calculate D2E/DX2 analytically  !
 ! D33   D(11,12,13,17)        -57.522          calculate D2E/DX2 analytically  !
 ! D34   D(11,12,13,22)       -176.4289         calculate D2E/DX2 analytically  !
 ! D35   D(19,12,13,14)        -59.1307         calculate D2E/DX2 analytically  !
 ! D36   D(19,12,13,17)       -178.3519         calculate D2E/DX2 analytically  !
 ! D37   D(19,12,13,22)         62.7412         calculate D2E/DX2 analytically  !
 ! D38   D(21,12,13,14)       -179.1461         calculate D2E/DX2 analytically  !
 ! D39   D(21,12,13,17)         61.6326         calculate D2E/DX2 analytically  !
 ! D40   D(21,12,13,22)        -57.2743         calculate D2E/DX2 analytically  !
 ! D41   D(11,12,21,23)        171.1938         calculate D2E/DX2 analytically  !
 ! D42   D(13,12,21,23)         47.585          calculate D2E/DX2 analytically  !
 ! D43   D(19,12,21,23)        -71.582          calculate D2E/DX2 analytically  !
 ! D44   D(12,13,14,2)         -55.0765         calculate D2E/DX2 analytically  !
 ! D45   D(12,13,14,18)         65.9118         calculate D2E/DX2 analytically  !
 ! D46   D(12,13,14,26)       -174.1745         calculate D2E/DX2 analytically  !
 ! D47   D(17,13,14,2)          64.1648         calculate D2E/DX2 analytically  !
 ! D48   D(17,13,14,18)       -174.8469         calculate D2E/DX2 analytically  !
 ! D49   D(17,13,14,26)        -54.9332         calculate D2E/DX2 analytically  !
 ! D50   D(22,13,14,2)        -173.1965         calculate D2E/DX2 analytically  !
 ! D51   D(22,13,14,18)        -52.2082         calculate D2E/DX2 analytically  !
 ! D52   D(22,13,14,26)         67.7055         calculate D2E/DX2 analytically  !
 ! D53   D(12,13,22,25)       -175.2496         calculate D2E/DX2 analytically  !
 ! D54   D(14,13,22,25)        -54.1646         calculate D2E/DX2 analytically  !
 ! D55   D(17,13,22,25)         67.2501         calculate D2E/DX2 analytically  !
 ! D56   D(2,14,26,27)        -177.066          calculate D2E/DX2 analytically  !
 ! D57   D(2,14,26,28)          58.264          calculate D2E/DX2 analytically  !
 ! D58   D(2,14,26,29)         -59.7662         calculate D2E/DX2 analytically  !
 ! D59   D(13,14,26,27)        -57.4156         calculate D2E/DX2 analytically  !
 ! D60   D(13,14,26,28)        177.9145         calculate D2E/DX2 analytically  !
 ! D61   D(13,14,26,29)         59.8842         calculate D2E/DX2 analytically  !
 ! D62   D(18,14,26,27)         61.7224         calculate D2E/DX2 analytically  !
 ! D63   D(18,14,26,28)        -62.9475         calculate D2E/DX2 analytically  !
 ! D64   D(18,14,26,29)        179.0222         calculate D2E/DX2 analytically  !
 ! D65   D(14,26,27,30)        -71.9277         calculate D2E/DX2 analytically  !
 ! D66   D(28,26,27,30)         52.2833         calculate D2E/DX2 analytically  !
 ! D67   D(29,26,27,30)        169.0226         calculate D2E/DX2 analytically  !
 --------------------------------------------------------------------------------
 Trust Radius=3.00D-01 FncErr=1.00D-07 GrdErr=1.00D-06
 Number of steps in this run=    180 maximum allowed number of steps=    180.
 Search for a saddle point of order  1.
 GradGradGradGradGradGradGradGradGradGradGradGradGradGradGradGradGradGrad

                          Input orientation:                          
 ---------------------------------------------------------------------
 Center     Atomic      Atomic             Coordinates (Angstroms)
 Number     Number       Type             X           Y           Z
 ---------------------------------------------------------------------
      1          6           0        0.000000    0.000000    0.000000
      2          8           0        0.000000    0.000000    1.849709
      3          8           0        1.221711    0.000000   -0.343306
      4          1           0        1.787998    1.137710   -0.203676
      5          1           0        0.508145    2.819652    2.294662
      6          1           0        3.202462    2.010288    0.195295
      7          8           0        2.243580    2.146116    0.128984
      8          1           0        1.776710    2.202924    1.245317
      9          8           0        1.150713    2.092683    2.281913
     10          1           0        0.566143    1.060327    2.120020
     11          6           0       -0.806043   -1.264012   -0.262817
     12          6           0       -2.136021   -1.283890    0.488974
     13          6           0       -1.981449   -1.347664    2.002667
     14          6           0       -1.239726   -0.113320    2.529831
     15          1           0       -0.580286    0.932540   -0.099406
     16          1           0       -0.191418   -2.124056    0.040399
     17          1           0       -1.395019   -2.245350    2.258635
     18          1           0       -1.883317    0.769888    2.349424
     19          1           0       -2.698100   -0.367660    0.237307
     20          8           0       -1.054046   -1.278715   -1.662236
     21          8           0       -2.843078   -2.425096    0.013669
     22          8           0       -3.303414   -1.443590    2.525231
     23          1           0       -3.620492   -2.515796    0.590960
     24          1           0       -1.769309   -1.926941   -1.786847
     25          1           0       -3.214808   -1.407238    3.496727
     26          6           0       -0.943649   -0.220153    4.035473
     27          8           0       -2.130061   -0.407494    4.821193
     28          1           0       -0.380547    0.659662    4.374878
     29          1           0       -0.322771   -1.102413    4.213384
     30          1           0       -2.620635    0.429994    4.824450
 ---------------------------------------------------------------------
                    Distance matrix (angstroms):
                    1          2          3          4          5
     1  C    0.000000
     2  O    1.849709   0.000000
     3  O    1.269030   2.510357   0.000000
     4  H    2.129039   2.950884   1.278500   0.000000
     5  H    3.670711   2.899419   3.926638   3.272407   0.000000
     6  H    3.786180   4.127240   2.873104   1.709175   3.510237
     7  O    3.107427   3.549698   2.423446   1.155465   2.855791
     8  H    3.091988   2.893936   2.772115   1.798441   1.758049
     9  O    3.303118   2.426987   3.357996   2.737930   0.970329
    10  H    2.437067   1.232022   2.760803   2.626496   1.768923
    11  C    1.522007   2.590405   2.390814   3.535650   4.994406
    12  C    2.539696   2.839464   3.689909   4.662814   5.204918
    13  C    3.122981   2.401195   4.192854   5.025313   4.863112
    14  C    2.819540   1.418565   3.785027   4.266644   3.422379
    15  H    1.102834   2.237277   2.043602   2.379441   3.236886
    16  H    2.133046   2.796758   2.579879   3.823189   5.478260
    17  H    3.476939   2.674864   4.319603   5.257345   5.410875
    18  H    3.107958   2.095072   4.181473   4.486889   3.150178
    19  H    2.733356   3.164610   3.979599   4.752440   4.967058
    20  O    2.347159   3.883283   2.924681   4.005462   5.907122
    21  O    3.736893   4.163559   4.746686   5.847024   6.628801
    22  O    4.401510   3.667809   5.548803   6.327126   5.723318
    23  H    4.448193   4.584936   5.536155   6.575053   6.958106
    24  H    3.168025   4.479743   3.839676   4.955094   6.661505
    25  H    4.954030   3.876594   6.033977   6.722932   5.759508
    26  C    4.150178   2.390921   4.889883   5.222650   3.791904
    27  O    5.286503   3.678713   6.170290   6.556535   4.874214
    28  H    4.440667   2.637508   5.026295   5.088642   3.127719
    29  H    4.367162   2.628014   4.936007   5.383672   4.444604
    30  H    5.507081   3.987694   6.454008   6.724505   4.679695
                    6          7          8          9         10
     6  H    0.000000
     7  O    0.970722   0.000000
     8  H    1.781131   1.211360   0.000000
     9  O    2.927531   2.415018   1.215959   0.000000
    10  H    3.399584   2.820807   1.880453   1.197368   0.000000
    11  C    5.196059   4.591588   4.578726   4.644561   3.600466
    12  C    6.279909   5.574535   5.295224   5.041676   3.931584
    13  C    6.435478   5.793795   5.225325   4.660945   3.507481
    14  C    5.449111   4.796096   4.014206   3.262225   2.192386
    15  H    3.944309   3.082069   2.996262   3.164328   2.501296
    16  H    5.351188   4.916445   4.903887   4.960503   3.878016
    17  H    6.595806   6.087675   5.556422   5.029893   3.846150
    18  H    5.660744   4.884223   4.082700   3.310541   2.477264
    19  H    6.361842   5.545359   5.258128   5.004704   4.029769
    20  O    5.690854   5.080578   5.346855   5.637695   4.733032
    21  O    7.500278   6.839837   6.654169   6.442486   5.311090
    22  O    7.725562   7.028309   6.383017   5.692423   4.626799
    23  H    8.197237   7.505610   7.198909   6.845568   5.714419
    24  H    6.644484   6.030214   6.230896   6.421738   5.444421
    25  H    7.985005   7.332259   6.558763   5.725644   4.720148
    26  C    6.075531   5.569408   4.588750   3.579181   2.754644
    27  O    7.461931   6.904092   5.904577   4.843791   4.089053
    28  H    5.668427   5.207994   4.102385   2.962906   2.478132
    29  H    6.185566   5.815619   4.913502   4.013774   3.138437
    30  H    7.604924   6.975174   5.940548   4.842736   4.226916
                   11         12         13         14         15
    11  C    0.000000
    12  C    1.527882   0.000000
    13  C    2.553623   1.522900   0.000000
    14  C    3.051402   2.517673   1.533513   0.000000
    15  H    2.214161   2.771112   3.403130   2.905438   0.000000
    16  H    1.099718   2.165312   2.767217   3.367385   3.084403
    17  H    2.769049   2.145970   1.102389   2.154813   4.040189
    18  H    3.481532   2.782649   2.147998   1.107615   2.778689
    19  H    2.152545   1.103969   2.142543   2.728958   2.507794
    20  O    1.421301   2.407987   3.781051   4.355003   2.748915
    21  O    2.360947   1.424147   2.420614   3.774403   4.050522
    22  O    3.747308   2.352585   1.424734   2.455290   4.466557
    23  H    3.196407   1.931747   2.458436   3.898610   4.648707
    24  H    1.920944   2.393189   3.839398   4.712047   3.526736
    25  H    4.467307   3.197746   1.938283   2.551482   5.034624
    26  C    4.425366   3.889851   2.545704   1.538191   4.307894
    27  O    5.322950   4.419980   2.974911   2.475798   5.330083
    28  H    5.038827   4.686078   3.495659   2.177128   4.487045
    29  H    4.505113   4.146328   2.774641   2.157189   4.775720
    30  H    5.660625   4.687068   3.395746   2.732650   5.353497
                   16         17         18         19         20
    16  H    0.000000
    17  H    2.526645   0.000000
    18  H    4.070507   3.055869   0.000000
    19  H    3.067109   3.051149   2.533559   0.000000
    20  O    2.087509   4.052638   4.580162   2.672303   0.000000
    21  O    2.668828   2.677509   4.072446   2.074627   2.706194
    22  O    4.040043   2.087071   2.635729   2.599736   4.756230
    23  H    3.495015   2.794102   4.111653   2.364395   3.632342
    24  H    2.422277   4.075218   4.939091   2.718678   0.973307
    25  H    4.647679   2.355194   2.798044   3.459990   5.594668
    26  C    4.489021   2.731723   2.169312   4.186397   5.796260
    27  O    5.436994   3.238010   2.748955   4.619119   6.629607
    28  H    5.154857   3.734532   2.524466   4.852415   6.376335
    29  H    4.298234   2.505408   3.068413   4.689482   5.923577
    30  H    5.942340   3.904230   2.604788   4.656622   6.888468
                   21         22         23         24         25
    21  O    0.000000
    22  O    2.735545   0.000000
    23  H    0.972555   2.234182   0.000000
    24  H    2.154761   4.602296   3.070439   0.000000
    25  H    3.647727   0.976205   3.136393   5.502337   0.000000
    26  C    4.964323   3.057142   4.929516   6.123254   2.618698
    27  O    5.262261   2.778793   4.955924   6.790070   1.982517
    28  H    5.882171   4.048211   5.907521   6.825396   3.616111
    29  H    5.073366   3.442455   5.098487   6.226965   2.995061
    30  H    5.598628   3.043503   5.253554   7.070300   2.343355
                   26         27         28         29         30
    26  C    0.000000
    27  O    1.435279   0.000000
    28  H    1.098342   2.097336   0.000000
    29  H    1.093400   2.029443   1.770402   0.000000
    30  H    1.964041   0.970598   2.296270   2.828754   0.000000
 Stoichiometry    C6H16O8
 Framework group  C1[X(C6H16O8)]
 Deg. of freedom    84
 Full point group                 C1      NOp   1
 Largest Abelian subgroup         C1      NOp   1
 Largest concise Abelian subgroup C1      NOp   1
                         Standard orientation:                         
 ---------------------------------------------------------------------
 Center     Atomic      Atomic             Coordinates (Angstroms)
 Number     Number       Type             X           Y           Z
 ---------------------------------------------------------------------
      1          6           0       -1.284667    0.927846   -0.074728
      2          8           0       -0.562062   -0.713304    0.379025
      3          8           0       -2.358826    1.026646    0.593746
      4          1           0       -3.314900    0.318794    0.125312
      5          1           0       -2.204017   -2.404547   -1.309261
      6          1           0       -4.688315   -0.648176    0.441506
      7          8           0       -4.045044   -0.486148   -0.267191
      8          1           0       -3.278412   -1.422363   -0.323500
      9          8           0       -2.336079   -2.189289   -0.372371
     10          1           0       -1.427871   -1.503847    0.000481
     11          6           0       -0.128416    1.839621    0.310311
     12          6           0        1.198671    1.405168   -0.309781
     13          6           0        1.703299    0.063497    0.204509
     14          6           0        0.714800   -1.059245   -0.133104
     15          1           0       -1.348219    0.713326   -1.154629
     16          1           0       -0.048299    1.836394    1.407102
     17          1           0        1.805674    0.123105    1.300514
     18          1           0        0.693242   -1.170048   -1.234952
     19          1           0        1.069869    1.329678   -1.403609
     20          8           0       -0.476857    3.129343   -0.174769
     21          8           0        2.133692    2.436061   -0.007803
     22          8           0        2.973099   -0.136268   -0.409957
     23          1           0        3.003227    2.093766   -0.277260
     24          1           0        0.352374    3.638762   -0.160812
     25          1           0        3.266076   -1.028762   -0.144258
     26          6           0        1.129160   -2.399118    0.498622
     27          8           0        2.443656   -2.815944    0.100649
     28          1           0        0.383897   -3.172934    0.270267
     29          1           0        1.166741   -2.282682    1.585155
     30          1           0        2.399211   -3.095845   -0.827651
 ---------------------------------------------------------------------
 Rotational constants (GHZ):      0.6854362      0.5210899      0.3085865
 Standard basis: GTBas1 (6D, 7F)
 There are   242 symmetry adapted cartesian basis functions of A   symmetry.
 There are   242 symmetry adapted basis functions of A   symmetry.
   242 basis functions,   456 primitive gaussians,   242 cartesian basis functions
    58 alpha electrons       58 beta electrons
       nuclear repulsion energy      1090.7222852153 Hartrees.
 NAtoms=   30 NActive=   30 NUniq=   30 SFac= 1.00D+00 NAtFMM=   60 NAOKFM=F Big=F
 Integral buffers will be    131072 words long.
 Raffenetti 2 integral format.
 Two-electron integral symmetry is turned on.
 One-electron integrals computed using PRISM.
 NBasis=   242 RedAO= T EigKep=  1.90D-03  NBF=   242
 NBsUse=   242 1.00D-06 EigRej= -1.00D+00 NBFU=   242
 ExpMin= 1.61D-01 ExpMax= 5.48D+03 ExpMxC= 8.25D+02 IAcc=1 IRadAn=         1 AccDes= 0.00D+00
 Harris functional with IExCor=  402 and IRadAn=       1 diagonalized for initial guess.
 HarFok:  IExCor=  402 AccDes= 0.00D+00 IRadAn=         1 IDoV= 1 UseB2=F ITyADJ=14
 ICtDFT=  3500011 ScaDFX=  1.000000  1.000000  1.000000  1.000000
 FoFCou: FMM=F IPFlag=           0 FMFlag=      100000 FMFlg1=           0
         NFxFlg=           0 DoJE=T BraDBF=F KetDBF=T FulRan=T
         wScrn=  0.000000 ICntrl=     500 IOpCl=  0 I1Cent=   200000004 NGrid=           0
         NMat0=    1 NMatS0=      1 NMatT0=    0 NMatD0=    1 NMtDS0=    0 NMtDT0=    0
 Petite list used in FoFCou.
 Requested convergence on RMS density matrix=1.00D-08 within 128 cycles.
 Requested convergence on MAX density matrix=1.00D-06.
 Requested convergence on             energy=1.00D-06.
 No special actions if energy rises.
 Integral accuracy reduced to 1.0D-05 until final iterations.
 Initial convergence to 1.0D-05 achieved.  Increase integral accuracy.
 SCF Done:  E(RB3LYP) =  -839.965324883     A.U. after   14 cycles
            NFock= 14  Conv=0.70D-08     -V/T= 2.0086
 DoSCS=F DFT=T ScalE2(SS,OS)=  1.000000  1.000000
 Range of M.O.s used for correlation:     1   242
 NBasis=   242 NAE=    58 NBE=    58 NFC=     0 NFV=     0
 NROrb=    242 NOA=    58 NOB=    58 NVA=   184 NVB=   184
 Symmetrizing basis deriv contribution to polar:
 IMax=3 JMax=2 DiffMx= 0.00D+00
 G2DrvN: will do    31 centers at a time, making    1 passes.
 Calling FoFCou, ICntrl=  3107 FMM=F I1Cent=   0 AccDes= 0.00D+00.
 End of G2Drv F.D. properties file   721 does not exist.
 End of G2Drv F.D. properties file   722 does not exist.
 End of G2Drv F.D. properties file   788 does not exist.
          IDoAtm=111111111111111111111111111111
          Differentiating once with respect to nuclear coordinates.
          There are    93 degrees of freedom in the 1st order CPHF.  IDoFFX=6 NUNeed=     0.
     87 vectors produced by pass  0 Test12= 1.15D-14 1.08D-09 XBig12= 1.23D-01 5.71D-02.
 AX will form    87 AO Fock derivatives at one time.
     87 vectors produced by pass  1 Test12= 1.15D-14 1.08D-09 XBig12= 3.36D-02 2.97D-02.
     87 vectors produced by pass  2 Test12= 1.15D-14 1.08D-09 XBig12= 2.15D-04 2.09D-03.
     87 vectors produced by pass  3 Test12= 1.15D-14 1.08D-09 XBig12= 4.82D-07 6.65D-05.
     87 vectors produced by pass  4 Test12= 1.15D-14 1.08D-09 XBig12= 6.25D-10 3.09D-06.
     72 vectors produced by pass  5 Test12= 1.15D-14 1.08D-09 XBig12= 5.08D-13 6.81D-08.
      2 vectors produced by pass  6 Test12= 1.15D-14 1.08D-09 XBig12= 4.03D-16 1.87D-09.
 InvSVY:  IOpt=1 It=  1 EMax= 2.78D-16
 Solved reduced A of dimension   509 with    93 vectors.
 End of Minotr F.D. properties file   721 does not exist.
 End of Minotr F.D. properties file   722 does not exist.
 End of Minotr F.D. properties file   788 does not exist.

 **********************************************************************

            Population analysis using the SCF density.

 **********************************************************************

 Orbital symmetries:
       Occupied  (A) (A) (A) (A) (A) (A) (A) (A) (A) (A) (A) (A)
                 (A) (A) (A) (A) (A) (A) (A) (A) (A) (A) (A) (A)
                 (A) (A) (A) (A) (A) (A) (A) (A) (A) (A) (A) (A)
                 (A) (A) (A) (A) (A) (A) (A) (A) (A) (A) (A) (A)
                 (A) (A) (A) (A) (A) (A) (A) (A) (A) (A)
       Virtual   (A) (A) (A) (A) (A) (A) (A) (A) (A) (A) (A) (A)
                 (A) (A) (A) (A) (A) (A) (A) (A) (A) (A) (A) (A)
                 (A) (A) (A) (A) (A) (A) (A) (A) (A) (A) (A) (A)
                 (A) (A) (A) (A) (A) (A) (A) (A) (A) (A) (A) (A)
                 (A) (A) (A) (A) (A) (A) (A) (A) (A) (A) (A) (A)
                 (A) (A) (A) (A) (A) (A) (A) (A) (A) (A) (A) (A)
                 (A) (A) (A) (A) (A) (A) (A) (A) (A) (A) (A) (A)
                 (A) (A) (A) (A) (A) (A) (A) (A) (A) (A) (A) (A)
                 (A) (A) (A) (A) (A) (A) (A) (A) (A) (A) (A) (A)
                 (A) (A) (A) (A) (A) (A) (A) (A) (A) (A) (A) (A)
                 (A) (A) (A) (A) (A) (A) (A) (A) (A) (A) (A) (A)
                 (A) (A) (A) (A) (A) (A) (A) (A) (A) (A) (A) (A)
                 (A) (A) (A) (A) (A) (A) (A) (A) (A) (A) (A) (A)
                 (A) (A) (A) (A) (A) (A) (A) (A) (A) (A) (A) (A)
                 (A) (A) (A) (A) (A) (A) (A) (A) (A) (A) (A) (A)
                 (A) (A) (A) (A)
 The electronic state is 1-A.
 Alpha  occ. eigenvalues --  -19.18141 -19.15920 -19.15894 -19.15358 -19.15128
 Alpha  occ. eigenvalues --  -19.15029 -19.13714 -19.13121 -10.28952 -10.25050
 Alpha  occ. eigenvalues --  -10.24948 -10.24076 -10.23807 -10.23461  -1.05570
 Alpha  occ. eigenvalues --   -1.04829  -1.03953  -1.02345  -1.01545  -1.01146
 Alpha  occ. eigenvalues --   -0.99977  -0.98014  -0.78068  -0.75445  -0.69362
 Alpha  occ. eigenvalues --   -0.63883  -0.61113  -0.58408  -0.55509  -0.55368
 Alpha  occ. eigenvalues --   -0.53815  -0.52861  -0.52625  -0.50564  -0.49687
 Alpha  occ. eigenvalues --   -0.46750  -0.45816  -0.45312  -0.44115  -0.43124
 Alpha  occ. eigenvalues --   -0.42943  -0.41700  -0.40023  -0.39265  -0.37522
 Alpha  occ. eigenvalues --   -0.36116  -0.35564  -0.35193  -0.34182  -0.33714
 Alpha  occ. eigenvalues --   -0.31360  -0.30720  -0.29554  -0.28018  -0.27531
 Alpha  occ. eigenvalues --   -0.26368  -0.26056  -0.25768
 Alpha virt. eigenvalues --    0.01541   0.04115   0.04971   0.08139   0.08983
 Alpha virt. eigenvalues --    0.09703   0.11934   0.12506   0.13642   0.14536
 Alpha virt. eigenvalues --    0.15376   0.16040   0.16504   0.18091   0.18848
 Alpha virt. eigenvalues --    0.19715   0.20185   0.22161   0.24015   0.24805
 Alpha virt. eigenvalues --    0.26112   0.27575   0.28374   0.28984   0.30843
 Alpha virt. eigenvalues --    0.31898   0.33174   0.38416   0.51350   0.53539
 Alpha virt. eigenvalues --    0.54156   0.56334   0.57070   0.58092   0.59403
 Alpha virt. eigenvalues --    0.60476   0.61997   0.63654   0.65374   0.65950
 Alpha virt. eigenvalues --    0.67301   0.68611   0.69947   0.72828   0.73121
 Alpha virt. eigenvalues --    0.73958   0.76608   0.76957   0.78488   0.79600
 Alpha virt. eigenvalues --    0.80665   0.81725   0.82341   0.83140   0.84328
 Alpha virt. eigenvalues --    0.85919   0.86379   0.87475   0.88966   0.90133
 Alpha virt. eigenvalues --    0.91183   0.91411   0.92908   0.94354   0.95224
 Alpha virt. eigenvalues --    0.96718   0.99097   1.00413   1.01088   1.03468
 Alpha virt. eigenvalues --    1.04384   1.05243   1.06678   1.07305   1.09558
 Alpha virt. eigenvalues --    1.10636   1.13597   1.14261   1.14503   1.15823
 Alpha virt. eigenvalues --    1.19386   1.21354   1.23307   1.26961   1.28843
 Alpha virt. eigenvalues --    1.30366   1.31579   1.33102   1.34873   1.37616
 Alpha virt. eigenvalues --    1.38831   1.43403   1.45999   1.48885   1.50951
 Alpha virt. eigenvalues --    1.54603   1.55835   1.57344   1.61024   1.61173
 Alpha virt. eigenvalues --    1.62917   1.66206   1.66283   1.68162   1.69511
 Alpha virt. eigenvalues --    1.70008   1.71058   1.71955   1.73091   1.74591
 Alpha virt. eigenvalues --    1.75227   1.76950   1.77156   1.78555   1.80249
 Alpha virt. eigenvalues --    1.81493   1.81594   1.82470   1.85080   1.86386
 Alpha virt. eigenvalues --    1.88021   1.90611   1.91668   1.92604   1.96982
 Alpha virt. eigenvalues --    1.97425   1.98520   2.01309   2.02884   2.04872
 Alpha virt. eigenvalues --    2.06430   2.09527   2.09946   2.11947   2.13851
 Alpha virt. eigenvalues --    2.14902   2.17708   2.21594   2.22768   2.23523
 Alpha virt. eigenvalues --    2.29996   2.31224   2.33600   2.37432   2.39709
 Alpha virt. eigenvalues --    2.40957   2.43392   2.47441   2.47970   2.50020
 Alpha virt. eigenvalues --    2.51913   2.53848   2.56923   2.57626   2.59883
 Alpha virt. eigenvalues --    2.62448   2.65392   2.67435   2.70280   2.72365
 Alpha virt. eigenvalues --    2.74945   2.83462   2.84540   2.85879   2.88356
 Alpha virt. eigenvalues --    2.95632   2.99276   2.99861   3.03837   3.09118
 Alpha virt. eigenvalues --    3.71496   3.78498   3.81361   3.87388   3.88348
 Alpha virt. eigenvalues --    3.92144   4.13290   4.15707   4.25373   4.37127
 Alpha virt. eigenvalues --    4.37954   4.51182   4.63606   4.65664
          Condensed to atoms (all electrons):
               1          2          3          4          5          6
     1  C    4.694452   0.059786   0.372837  -0.016071  -0.000074  -0.000319
     2  O    0.059786   8.620263  -0.037158   0.001799   0.004556   0.000003
     3  O    0.372837  -0.037158   8.288003   0.129139   0.000016   0.004556
     4  H   -0.016071   0.001799   0.129139   0.294886  -0.000299  -0.005935
     5  H   -0.000074   0.004556   0.000016  -0.000299   0.381275  -0.000159
     6  H   -0.000319   0.000003   0.004556  -0.005935  -0.000159   0.362079
     7  O    0.009207  -0.000760  -0.096885   0.135749   0.005025   0.231835
     8  H   -0.000468   0.004044   0.006392  -0.011085  -0.008581  -0.005328
     9  O    0.005117  -0.098442  -0.002140   0.006132   0.228658   0.004209
    10  H   -0.001259   0.113595   0.004483  -0.000644  -0.007901  -0.000032
    11  C    0.308375  -0.014754  -0.041686   0.002172   0.000007   0.000003
    12  C   -0.017189  -0.001257   0.002827  -0.000050  -0.000001   0.000000
    13  C   -0.008765  -0.031970   0.000008  -0.000012   0.000034   0.000000
    14  C    0.001336   0.129555   0.001340  -0.000064   0.000026   0.000001
    15  H    0.337204  -0.036379  -0.054337  -0.005519   0.000388  -0.000095
    16  H   -0.042042   0.000526   0.001510  -0.000144   0.000000   0.000000
    17  H    0.000167   0.003745  -0.000003   0.000000   0.000000   0.000000
    18  H   -0.003472  -0.036503  -0.000034  -0.000006   0.000244   0.000000
    19  H   -0.005116  -0.000041  -0.000048  -0.000003   0.000000   0.000000
    20  O   -0.041184   0.000592   0.000498  -0.000087   0.000000   0.000000
    21  O    0.002281   0.000003  -0.000010   0.000000   0.000000   0.000000
    22  O    0.000027   0.001453   0.000000   0.000000   0.000000   0.000000
    23  H   -0.000180  -0.000011   0.000001   0.000000   0.000000   0.000000
    24  H    0.006858  -0.000042  -0.000052   0.000008   0.000000   0.000000
    25  H   -0.000005   0.000037   0.000000   0.000000   0.000000   0.000000
    26  C    0.001032  -0.031820  -0.000028   0.000002  -0.000080   0.000000
    27  O   -0.000008   0.001511   0.000000   0.000000  -0.000001   0.000000
    28  H   -0.000073   0.000897   0.000001  -0.000003   0.000148   0.000000
    29  H   -0.000092   0.005249   0.000001   0.000000   0.000000   0.000000
    30  H   -0.000001  -0.000012   0.000000   0.000000  -0.000001   0.000000
               7          8          9         10         11         12
     1  C    0.009207  -0.000468   0.005117  -0.001259   0.308375  -0.017189
     2  O   -0.000760   0.004044  -0.098442   0.113595  -0.014754  -0.001257
     3  O   -0.096885   0.006392  -0.002140   0.004483  -0.041686   0.002827
     4  H    0.135749  -0.011085   0.006132  -0.000644   0.002172  -0.000050
     5  H    0.005025  -0.008581   0.228658  -0.007901   0.000007  -0.000001
     6  H    0.231835  -0.005328   0.004209  -0.000032   0.000003   0.000000
     7  O    8.511679   0.134874  -0.103271   0.005256  -0.000114   0.000003
     8  H    0.134874   0.295587   0.129620  -0.005533   0.000064  -0.000001
     9  O   -0.103271   0.129620   8.542875   0.125879   0.000145  -0.000018
    10  H    0.005256  -0.005533   0.125879   0.288215   0.000751   0.000028
    11  C   -0.000114   0.000064   0.000145   0.000751   4.958213   0.290572
    12  C    0.000003  -0.000001  -0.000018   0.000028   0.290572   5.001291
    13  C    0.000000  -0.000002   0.000001   0.002000  -0.019542   0.304297
    14  C    0.000011  -0.000151   0.006751  -0.007701  -0.009282  -0.025671
    15  H    0.002815  -0.000749   0.001095   0.000426  -0.072585  -0.004008
    16  H    0.000005  -0.000002   0.000003  -0.000034   0.337356  -0.048143
    17  H    0.000000   0.000000   0.000003  -0.000109  -0.003703  -0.050138
    18  H    0.000002  -0.000053   0.001176  -0.000987   0.000634  -0.010626
    19  H    0.000000   0.000000   0.000003  -0.000035  -0.046947   0.336997
    20  O    0.000000   0.000000   0.000000  -0.000013   0.239715  -0.028265
    21  O    0.000000   0.000000   0.000000   0.000001  -0.035883   0.219869
    22  O    0.000000   0.000000   0.000000  -0.000023   0.002452  -0.039528
    23  H    0.000000   0.000000   0.000000   0.000000   0.006169  -0.028854
    24  H    0.000000   0.000000   0.000000   0.000000  -0.034422  -0.012871
    25  H    0.000000   0.000000   0.000000   0.000005  -0.000140   0.004762
    26  C   -0.000001   0.000017  -0.001520  -0.003025  -0.000171   0.003767
    27  O    0.000000   0.000000   0.000003   0.000043   0.000002   0.000081
    28  H    0.000004   0.000001   0.003782   0.003488  -0.000011  -0.000120
    29  H    0.000000  -0.000002   0.000042  -0.000044   0.000017  -0.000060
    30  H    0.000000   0.000000   0.000001  -0.000007   0.000001  -0.000002
              13         14         15         16         17         18
     1  C   -0.008765   0.001336   0.337204  -0.042042   0.000167  -0.003472
     2  O   -0.031970   0.129555  -0.036379   0.000526   0.003745  -0.036503
     3  O    0.000008   0.001340  -0.054337   0.001510  -0.000003  -0.000034
     4  H   -0.000012  -0.000064  -0.005519  -0.000144   0.000000  -0.000006
     5  H    0.000034   0.000026   0.000388   0.000000   0.000000   0.000244
     6  H    0.000000   0.000001  -0.000095   0.000000   0.000000   0.000000
     7  O    0.000000   0.000011   0.002815   0.000005   0.000000   0.000002
     8  H   -0.000002  -0.000151  -0.000749  -0.000002   0.000000  -0.000053
     9  O    0.000001   0.006751   0.001095   0.000003   0.000003   0.001176
    10  H    0.002000  -0.007701   0.000426  -0.000034  -0.000109  -0.000987
    11  C   -0.019542  -0.009282  -0.072585   0.337356  -0.003703   0.000634
    12  C    0.304297  -0.025671  -0.004008  -0.048143  -0.050138  -0.010626
    13  C    4.980469   0.294759  -0.000064  -0.003842   0.350499  -0.062077
    14  C    0.294759   5.043375   0.000859   0.000706  -0.053305   0.341410
    15  H   -0.000064   0.000859   0.693486   0.007384   0.000113   0.004207
    16  H   -0.003842   0.000706   0.007384   0.632312   0.006870   0.000162
    17  H    0.350499  -0.053305   0.000113   0.006870   0.647616   0.007939
    18  H   -0.062077   0.341410   0.004207   0.000162   0.007939   0.699164
    19  H   -0.050316  -0.004352   0.007843   0.007434   0.007870   0.006877
    20  O    0.003776  -0.000024   0.003043  -0.038892  -0.000045  -0.000001
    21  O   -0.033159   0.003615  -0.000134  -0.000827   0.000839  -0.000032
    22  O    0.213125  -0.035604   0.000001  -0.000072  -0.040161   0.005933
    23  H   -0.012699   0.000765   0.000010  -0.000194  -0.000186   0.000003
    24  H    0.000960  -0.000033  -0.000495  -0.001279  -0.000005  -0.000001
    25  H   -0.021731  -0.006813   0.000002   0.000006  -0.002897  -0.000304
    26  C   -0.025084   0.329246  -0.000154  -0.000039  -0.010415  -0.060415
    27  O   -0.000952  -0.036609   0.000002   0.000000   0.000022   0.002299
    28  H    0.004588  -0.044271  -0.000005   0.000002  -0.000020  -0.005491
    29  H   -0.010523  -0.039052   0.000013   0.000006   0.006205   0.006768
    30  H   -0.001596  -0.001971   0.000000   0.000000   0.000150   0.005059
              19         20         21         22         23         24
     1  C   -0.005116  -0.041184   0.002281   0.000027  -0.000180   0.006858
     2  O   -0.000041   0.000592   0.000003   0.001453  -0.000011  -0.000042
     3  O   -0.000048   0.000498  -0.000010   0.000000   0.000001  -0.000052
     4  H   -0.000003  -0.000087   0.000000   0.000000   0.000000   0.000008
     5  H    0.000000   0.000000   0.000000   0.000000   0.000000   0.000000
     6  H    0.000000   0.000000   0.000000   0.000000   0.000000   0.000000
     7  O    0.000000   0.000000   0.000000   0.000000   0.000000   0.000000
     8  H    0.000000   0.000000   0.000000   0.000000   0.000000   0.000000
     9  O    0.000003   0.000000   0.000000   0.000000   0.000000   0.000000
    10  H   -0.000035  -0.000013   0.000001  -0.000023   0.000000   0.000000
    11  C   -0.046947   0.239715  -0.035883   0.002452   0.006169  -0.034422
    12  C    0.336997  -0.028265   0.219869  -0.039528  -0.028854  -0.012871
    13  C   -0.050316   0.003776  -0.033159   0.213125  -0.012699   0.000960
    14  C   -0.004352  -0.000024   0.003615  -0.035604   0.000765  -0.000033
    15  H    0.007843   0.003043  -0.000134   0.000001   0.000010  -0.000495
    16  H    0.007434  -0.038892  -0.000827  -0.000072  -0.000194  -0.001279
    17  H    0.007870  -0.000045   0.000839  -0.040161  -0.000186  -0.000005
    18  H    0.006877  -0.000001  -0.000032   0.005933   0.000003  -0.000001
    19  H    0.666385   0.001438  -0.044022  -0.000269  -0.001655  -0.000294
    20  O    0.001438   8.274897  -0.008426  -0.000013   0.000128   0.238530
    21  O   -0.044022  -0.008426   8.305213  -0.006088   0.237629   0.025875
    22  O   -0.000269  -0.000013  -0.006088   8.348354   0.024103  -0.000007
    23  H   -0.001655   0.000128   0.237629   0.024103   0.357978  -0.000882
    24  H   -0.000294   0.238530   0.025875  -0.000007  -0.000882   0.361950
    25  H   -0.000225   0.000001   0.000131   0.221478  -0.000462   0.000000
    26  C   -0.000166   0.000001  -0.000055  -0.000687  -0.000009   0.000000
    27  O   -0.000008   0.000000   0.000000  -0.015600   0.000006   0.000000
    28  H    0.000008   0.000000   0.000000  -0.000194   0.000000   0.000000
    29  H    0.000006   0.000000  -0.000001   0.000200   0.000000   0.000000
    30  H    0.000000   0.000000   0.000000   0.002539  -0.000001   0.000000
              25         26         27         28         29         30
     1  C   -0.000005   0.001032  -0.000008  -0.000073  -0.000092  -0.000001
     2  O    0.000037  -0.031820   0.001511   0.000897   0.005249  -0.000012
     3  O    0.000000  -0.000028   0.000000   0.000001   0.000001   0.000000
     4  H    0.000000   0.000002   0.000000  -0.000003   0.000000   0.000000
     5  H    0.000000  -0.000080  -0.000001   0.000148   0.000000  -0.000001
     6  H    0.000000   0.000000   0.000000   0.000000   0.000000   0.000000
     7  O    0.000000  -0.000001   0.000000   0.000004   0.000000   0.000000
     8  H    0.000000   0.000017   0.000000   0.000001  -0.000002   0.000000
     9  O    0.000000  -0.001520   0.000003   0.003782   0.000042   0.000001
    10  H    0.000005  -0.003025   0.000043   0.003488  -0.000044  -0.000007
    11  C   -0.000140  -0.000171   0.000002  -0.000011   0.000017   0.000001
    12  C    0.004762   0.003767   0.000081  -0.000120  -0.000060  -0.000002
    13  C   -0.021731  -0.025084  -0.000952   0.004588  -0.010523  -0.001596
    14  C   -0.006813   0.329246  -0.036609  -0.044271  -0.039052  -0.001971
    15  H    0.000002  -0.000154   0.000002  -0.000005   0.000013   0.000000
    16  H    0.000006  -0.000039   0.000000   0.000002   0.000006   0.000000
    17  H   -0.002897  -0.010415   0.000022  -0.000020   0.006205   0.000150
    18  H   -0.000304  -0.060415   0.002299  -0.005491   0.006768   0.005059
    19  H   -0.000225  -0.000166  -0.000008   0.000008   0.000006   0.000000
    20  O    0.000001   0.000001   0.000000   0.000000   0.000000   0.000000
    21  O    0.000131  -0.000055   0.000000   0.000000  -0.000001   0.000000
    22  O    0.221478  -0.000687  -0.015600  -0.000194   0.000200   0.002539
    23  H   -0.000462  -0.000009   0.000006   0.000000   0.000000  -0.000001
    24  H    0.000000   0.000000   0.000000   0.000000   0.000000   0.000000
    25  H    0.345786  -0.004399   0.050731   0.000666  -0.000425  -0.003266
    26  C   -0.004399   4.960782   0.213635   0.363353   0.368757  -0.028208
    27  O    0.050731   0.213635   8.231255  -0.027821  -0.033336   0.234018
    28  H    0.000666   0.363353  -0.027821   0.594778  -0.035576  -0.007525
    29  H   -0.000425   0.368757  -0.033336  -0.035576   0.552214   0.006810
    30  H   -0.003266  -0.028208   0.234018  -0.007525   0.006810   0.391628
 Mulliken charges:
               1
     1  C    0.337636
     2  O   -0.658465
     3  O   -0.579233
     4  H    0.470033
     5  H    0.396720
     6  H    0.409182
     7  O   -0.835435
     8  H    0.461358
     9  O   -0.850107
    10  H    0.483177
    11  C    0.132591
    12  C    0.102310
    13  C    0.127815
    14  C    0.111148
    15  H    0.115633
    16  H    0.141227
    17  H    0.128947
    18  H    0.098123
    19  H    0.118635
    20  O   -0.645668
    21  O   -0.666822
    22  O   -0.681418
    23  H    0.418341
    24  H    0.416202
    25  H    0.417062
    26  C   -0.074318
    27  O   -0.619274
    28  H    0.149392
    29  H    0.172825
    30  H    0.402383
 Sum of Mulliken charges =   0.00000
 Mulliken charges with hydrogens summed into heavy atoms:
               1
     1  C    0.453269
     2  O   -0.658465
     3  O   -0.579233
     7  O    0.505137
     9  O    0.029790
    11  C    0.273818
    12  C    0.220945
    13  C    0.256762
    14  C    0.209271
    20  O   -0.229467
    21  O   -0.248481
    22  O   -0.264356
    26  C    0.247899
    27  O   -0.216891
 APT charges:
               1
     1  C   -0.287988
     2  O   -0.468074
     3  O   -0.173622
     4  H    0.351985
     5  H    0.629923
     6  H    0.931390
     7  O   -1.265028
     8  H    0.362741
     9  O   -0.991715
    10  H    0.412040
    11  C   -0.173929
    12  C   -0.119677
    13  C   -0.181913
    14  C   -0.186353
    15  H    0.275142
    16  H    0.349016
    17  H    0.343067
    18  H    0.276220
    19  H    0.294213
    20  O   -0.843356
    21  O   -0.864488
    22  O   -0.818381
    23  H    0.705827
    24  H    0.719446
    25  H    0.631491
    26  C   -0.625224
    27  O   -0.769551
    28  H    0.436828
    29  H    0.388927
    30  H    0.661043
 Sum of APT charges =   0.00000
 APT charges with hydrogens summed into heavy atoms:
               1
     1  C   -0.012846
     2  O   -0.468074
     3  O   -0.173622
     7  O    0.381088
     9  O    0.050247
    11  C    0.175086
    12  C    0.174537
    13  C    0.161154
    14  C    0.089867
    20  O   -0.123910
    21  O   -0.158662
    22  O   -0.186890
    26  C    0.200531
    27  O   -0.108508
 Electronic spatial extent (au):  <R**2>=           3454.4179
 Charge=              0.0000 electrons
 Dipole moment (field-independent basis, Debye):
    X=              0.7244    Y=             -4.0474    Z=             -2.0618  Tot=              4.5997
 Quadrupole moment (field-independent basis, Debye-Ang):
   XX=            -81.6448   YY=            -86.1831   ZZ=            -80.3915
   XY=              5.4178   XZ=             -2.9728   YZ=              5.5054
 Traceless Quadrupole moment (field-independent basis, Debye-Ang):
   XX=              1.0950   YY=             -3.4433   ZZ=              2.3483
   XY=              5.4178   XZ=             -2.9728   YZ=              5.5054
 Octapole moment (field-independent basis, Debye-Ang**2):
  XXX=            -46.7051  YYY=            -19.3643  ZZZ=             -4.9713  XYY=             15.9515
  XXY=            -15.8226  XXZ=             13.4410  XZZ=             -3.8554  YZZ=            -13.7711
  YYZ=            -24.5515  XYZ=              5.1563
 Hexadecapole moment (field-independent basis, Debye-Ang**3):
 XXXX=          -1868.0792 YYYY=          -1664.2074 ZZZZ=           -165.6345 XXXY=             99.1655
 XXXZ=           -146.0610 YYYX=             40.4557 YYYZ=             69.3044 ZZZX=              5.9963
 ZZZY=             15.8608 XXYY=           -658.6955 XXZZ=           -374.4722 YYZZ=           -279.1921
 XXYZ=             15.3837 YYXZ=            -28.5838 ZZXY=              8.9544
 N-N= 1.090722285215D+03 E-N=-4.153975898976D+03  KE= 8.328118605330D+02
  Exact polarizability:   0.000   0.000   0.000   0.000   0.000   0.000
 Approx polarizability: 152.799  -7.142 140.673  -7.350   5.621 120.991
 Calling FoFJK, ICntrl=    100147 FMM=F ISym2X=0 I1Cent= 0 IOpClX= 0 NMat=1 NMatS=1 NMatT=0.
 ***** Axes restored to original set *****
 -------------------------------------------------------------------
 Center     Atomic                   Forces (Hartrees/Bohr)
 Number     Number              X              Y              Z
 -------------------------------------------------------------------
      1        6           0.000002195    0.000001488   -0.000000535
      2        8          -0.000026405   -0.000001551    0.000018518
      3        8           0.000012001    0.000004443   -0.000029546
      4        1           0.000002731   -0.000005793    0.000012068
      5        1           0.000000684   -0.000000557    0.000008465
      6        1          -0.000002138   -0.000004061    0.000002857
      7        8          -0.000000556    0.000012360   -0.000022016
      8        1           0.000022641   -0.000009484    0.000010595
      9        8          -0.000011115    0.000006415   -0.000021539
     10        1           0.000003903   -0.000009033    0.000002486
     11        6           0.000000094    0.000001861    0.000002607
     12        6           0.000003405    0.000000005    0.000004511
     13        6           0.000003777    0.000000926   -0.000002215
     14        6           0.000000778   -0.000000967    0.000001963
     15        1          -0.000003014    0.000000034    0.000004477
     16        1          -0.000001375   -0.000000813    0.000000728
     17        1          -0.000002901   -0.000001140    0.000001956
     18        1          -0.000000805   -0.000000976   -0.000000628
     19        1          -0.000003347   -0.000001561    0.000000595
     20        8           0.000000623   -0.000002240   -0.000000500
     21        8          -0.000000850   -0.000001115    0.000002948
     22        8           0.000000368    0.000003074   -0.000000593
     23        1          -0.000001462    0.000002368   -0.000000297
     24        1          -0.000003362    0.000000977   -0.000000282
     25        1          -0.000000295    0.000000086    0.000001054
     26        6           0.000001006    0.000001748   -0.000000040
     27        8          -0.000001759   -0.000000274   -0.000002763
     28        1           0.000000191    0.000000551   -0.000000305
     29        1           0.000001392    0.000000905    0.000001142
     30        1           0.000003596    0.000002321    0.000004288
 -------------------------------------------------------------------
 Cartesian Forces:  Max     0.000029546 RMS     0.000007220
 FormGI is forming the generalized inverse of G from B-inverse, IUseBI=4.

 GradGradGradGradGradGradGradGradGradGradGradGradGradGradGradGradGradGrad
 Berny optimization.
 Internal  Forces:  Max     0.000035153 RMS     0.000007545
 Search for a saddle point.
 Step number   1 out of a maximum of  180
 All quantities printed in internal units (Hartrees-Bohrs-Radians)
 Swapping is turned off.
 Second derivative matrix not updated -- analytic derivatives used.
 ITU=  0
     Eigenvalues ---   -0.05589   0.00191   0.00328   0.00362   0.00418
     Eigenvalues ---    0.00439   0.00576   0.00657   0.00822   0.00977
     Eigenvalues ---    0.01328   0.01531   0.01932   0.02141   0.02574
     Eigenvalues ---    0.02930   0.03165   0.03286   0.04025   0.04167
     Eigenvalues ---    0.04242   0.04692   0.05030   0.05118   0.05469
     Eigenvalues ---    0.05512   0.05660   0.05842   0.06074   0.06396
     Eigenvalues ---    0.06483   0.06914   0.06998   0.07133   0.07279
     Eigenvalues ---    0.07421   0.07465   0.08211   0.08522   0.08975
     Eigenvalues ---    0.10327   0.12056   0.13071   0.13615   0.15444
     Eigenvalues ---    0.16045   0.17142   0.17302   0.18452   0.18632
     Eigenvalues ---    0.19030   0.19662   0.20433   0.20908   0.21564
     Eigenvalues ---    0.22735   0.23715   0.24908   0.25528   0.27170
     Eigenvalues ---    0.28553   0.28826   0.29912   0.31139   0.31490
     Eigenvalues ---    0.31702   0.32192   0.32478   0.33712   0.34699
     Eigenvalues ---    0.34972   0.36742   0.38533   0.38701   0.40219
     Eigenvalues ---    0.43362   0.48343   0.49208   0.49852   0.50112
     Eigenvalues ---    0.50301   0.51258   0.51295   0.66156
 Eigenvectors required to have negative eigenvalues:
                          R6        R4        R10       R12       R11
   1                    0.40840  -0.39482   0.37991   0.36591  -0.36512
                          R7        D1        D4        D5        R1
   1                   -0.32824   0.16640  -0.11715  -0.10832  -0.09798
 RFO step:  Lambda0=3.045688004D-09 Lambda=-7.15436056D-08.
 Linear search not attempted -- option 19 set.
 Iteration  1 RMS(Cart)=  0.00046097 RMS(Int)=  0.00000011
 Iteration  2 RMS(Cart)=  0.00000018 RMS(Int)=  0.00000002
 Variable       Old X    -DE/DX   Delta X   Delta X   Delta X     New X
                                 (Linear)    (Quad)   (Total)
    R1        2.39812   0.00002   0.00000   0.00002   0.00002   2.39814
    R2        2.87618   0.00001   0.00000   0.00000   0.00000   2.87618
    R3        2.08406   0.00000   0.00000   0.00000   0.00000   2.08405
    R4        2.32818   0.00000   0.00000   0.00013   0.00013   2.32832
    R5        2.68070  -0.00001   0.00000  -0.00004  -0.00004   2.68066
    R6        2.41601   0.00000   0.00000  -0.00007  -0.00007   2.41594
    R7        2.18351   0.00000   0.00000   0.00005   0.00005   2.18357
    R8        1.83366   0.00000   0.00000  -0.00001  -0.00001   1.83365
    R9        1.83440   0.00000   0.00000   0.00000   0.00000   1.83440
   R10        2.28914   0.00001   0.00000  -0.00009  -0.00009   2.28905
   R11        2.29783   0.00001   0.00000   0.00012   0.00012   2.29795
   R12        2.26270   0.00001   0.00000  -0.00012  -0.00012   2.26258
   R13        2.88728   0.00002   0.00000   0.00000   0.00000   2.88728
   R14        2.07817   0.00000   0.00000   0.00000   0.00000   2.07817
   R15        2.68587   0.00000   0.00000   0.00001   0.00001   2.68588
   R16        2.87786   0.00001   0.00000  -0.00001  -0.00001   2.87786
   R17        2.08620   0.00000   0.00000   0.00000   0.00000   2.08620
   R18        2.69125   0.00000   0.00000   0.00002   0.00002   2.69127
   R19        2.89792   0.00000   0.00000   0.00000   0.00000   2.89792
   R20        2.08321   0.00000   0.00000   0.00000   0.00000   2.08321
   R21        2.69236   0.00000   0.00000   0.00001   0.00001   2.69236
   R22        2.09309   0.00000   0.00000   0.00000   0.00000   2.09309
   R23        2.90676   0.00000   0.00000   0.00001   0.00001   2.90677
   R24        1.83928   0.00000   0.00000   0.00000   0.00000   1.83929
   R25        1.83786   0.00000   0.00000   0.00000   0.00000   1.83786
   R26        1.84476   0.00000   0.00000   0.00000   0.00000   1.84476
   R27        2.71228   0.00000   0.00000   0.00000   0.00000   2.71228
   R28        2.07556   0.00000   0.00000   0.00000   0.00000   2.07556
   R29        2.06623   0.00000   0.00000   0.00000   0.00000   2.06623
   R30        1.83416   0.00000   0.00000  -0.00001  -0.00001   1.83416
    A1        2.05232   0.00000   0.00000  -0.00005  -0.00005   2.05227
    A2        2.07393   0.00000   0.00000   0.00002   0.00002   2.07395
    A3        1.99109   0.00000   0.00000   0.00008   0.00008   1.99116
    A4        1.94459   0.00004   0.00000   0.00021   0.00021   1.94480
    A5        1.97890  -0.00001   0.00000   0.00027   0.00027   1.97917
    A6        1.86192  -0.00001   0.00000  -0.00009  -0.00009   1.86183
    A7        1.72570   0.00000   0.00000  -0.00026  -0.00026   1.72544
    A8        1.90109   0.00000   0.00000  -0.00011  -0.00011   1.90098
    A9        1.85897   0.00000   0.00000   0.00021   0.00021   1.85917
   A10        1.90120  -0.00001   0.00000   0.00008   0.00008   1.90128
   A11        1.78671   0.00003   0.00000   0.00039   0.00039   1.78710
   A12        1.96799   0.00002   0.00000  -0.00001  -0.00001   1.96799
   A13        1.88167  -0.00001   0.00000  -0.00001  -0.00001   1.88166
   A14        1.84525   0.00000   0.00000   0.00003   0.00003   1.84528
   A15        1.91841   0.00000   0.00000   0.00000   0.00000   1.91841
   A16        1.90970  -0.00001   0.00000  -0.00001  -0.00001   1.90968
   A17        1.94004   0.00000   0.00000   0.00000   0.00000   1.94003
   A18        1.98370   0.00003   0.00000   0.00010   0.00010   1.98379
   A19        1.89677   0.00000   0.00000   0.00000   0.00000   1.89676
   A20        1.85290  -0.00001   0.00000  -0.00002  -0.00002   1.85288
   A21        1.88917  -0.00001   0.00000  -0.00003  -0.00003   1.88913
   A22        1.92683  -0.00001   0.00000  -0.00002  -0.00002   1.92682
   A23        1.91367   0.00000   0.00000  -0.00003  -0.00003   1.91364
   A24        1.93592   0.00000   0.00000   0.00001   0.00001   1.93594
   A25        1.89535   0.00000   0.00000   0.00001   0.00001   1.89536
   A26        1.84752   0.00000   0.00000  -0.00004  -0.00004   1.84748
   A27        1.89476   0.00000   0.00000   0.00002   0.00002   1.89478
   A28        1.95724   0.00000   0.00000   0.00001   0.00001   1.95725
   A29        1.93221   0.00000   0.00000   0.00000   0.00000   1.93221
   A30        1.89883  -0.00002   0.00000  -0.00004  -0.00004   1.89879
   A31        1.94552   0.00000   0.00000   0.00003   0.00003   1.94555
   A32        1.88245   0.00001   0.00000   0.00001   0.00001   1.88245
   A33        1.88052   0.00000   0.00000  -0.00001  -0.00001   1.88051
   A34        1.95377   0.00001   0.00000   0.00001   0.00001   1.95378
   A35        1.90356   0.00000   0.00000   0.00001   0.00001   1.90357
   A36        1.83504   0.00000   0.00000   0.00000   0.00000   1.83503
   A37        1.84781   0.00000   0.00000  -0.00001  -0.00001   1.84781
   A38        1.85280   0.00000   0.00000   0.00000   0.00000   1.85281
   A39        1.96688   0.00000   0.00000   0.00001   0.00001   1.96689
   A40        1.92359   0.00000   0.00000   0.00000   0.00000   1.92360
   A41        1.90140   0.00000   0.00000  -0.00001  -0.00001   1.90139
   A42        1.93818   0.00000   0.00000  -0.00001  -0.00001   1.93818
   A43        1.84937   0.00000   0.00000   0.00001   0.00001   1.84938
   A44        1.88068   0.00000   0.00000  -0.00002  -0.00002   1.88067
   A45        1.88284   0.00000   0.00000   0.00002   0.00002   1.88286
   A46        2.95993   0.00000   0.00000   0.00018   0.00018   2.96012
   A47        2.94037   0.00000   0.00000  -0.00014  -0.00014   2.94023
   A48        3.05333   0.00000   0.00000  -0.00004  -0.00004   3.05329
   A49        3.10038   0.00000   0.00000  -0.00013  -0.00013   3.10025
   A50        3.15090   0.00003   0.00000   0.00025   0.00025   3.15116
   A51        3.13015  -0.00001   0.00000  -0.00003  -0.00003   3.13012
    D1        3.03247   0.00002   0.00000   0.00036   0.00036   3.03283
    D2        0.51222   0.00001   0.00000   0.00025   0.00025   0.51247
    D3        2.89202   0.00001   0.00000   0.00043   0.00043   2.89245
    D4        0.77109   0.00000   0.00000   0.00044   0.00044   0.77153
    D5       -1.30524   0.00000   0.00000   0.00043   0.00043  -1.30481
    D6       -0.84227   0.00001   0.00000   0.00052   0.00052  -0.84176
    D7       -2.96320   0.00000   0.00000   0.00053   0.00053  -2.96267
    D8        1.24365   0.00001   0.00000   0.00052   0.00052   1.24417
    D9       -0.70556   0.00001   0.00000   0.00083   0.00083  -0.70473
   D10       -2.65257   0.00000   0.00000   0.00040   0.00040  -2.65217
   D11        3.00235  -0.00001   0.00000   0.00039   0.00039   3.00273
   D12        0.93109   0.00000   0.00000   0.00041   0.00041   0.93150
   D13       -1.15810   0.00000   0.00000   0.00038   0.00038  -1.15772
   D14        2.75345  -0.00001   0.00000  -0.00017  -0.00017   2.75328
   D15        0.81428  -0.00001   0.00000   0.00004   0.00004   0.81432
   D16       -1.97957  -0.00001   0.00000  -0.00028  -0.00028  -1.97984
   D17       -0.01996   0.00000   0.00000  -0.00002  -0.00002  -0.01998
   D18        2.39044   0.00000   0.00000  -0.00005  -0.00005   2.39039
   D19       -1.93314   0.00000   0.00000   0.00021   0.00021  -1.93293
   D20       -1.14896   0.00000   0.00000   0.00004   0.00004  -1.14892
   D21        0.95565   0.00000   0.00000   0.00006   0.00006   0.95571
   D22        3.01286   0.00000   0.00000   0.00002   0.00002   3.01287
   D23        0.95101   0.00000   0.00000   0.00003   0.00003   0.95104
   D24        3.05562   0.00001   0.00000   0.00005   0.00005   3.05566
   D25       -1.17036   0.00000   0.00000   0.00000   0.00000  -1.17036
   D26        3.08600   0.00000   0.00000   0.00001   0.00001   3.08602
   D27       -1.09257   0.00000   0.00000   0.00003   0.00003  -1.09254
   D28        0.96463   0.00000   0.00000  -0.00001  -0.00001   0.96462
   D29       -2.86410  -0.00001   0.00000   0.00022   0.00022  -2.86388
   D30       -0.74017   0.00001   0.00000   0.00023   0.00023  -0.73994
   D31        1.38184   0.00000   0.00000   0.00022   0.00022   1.38206
   D32        1.07685   0.00000   0.00000  -0.00030  -0.00030   1.07655
   D33       -1.00395   0.00000   0.00000  -0.00034  -0.00034  -1.00429
   D34       -3.07927   0.00000   0.00000  -0.00032  -0.00032  -3.07958
   D35       -1.03203   0.00000   0.00000  -0.00034  -0.00034  -1.03236
   D36       -3.11283   0.00000   0.00000  -0.00037  -0.00037  -3.11320
   D37        1.09504   0.00000   0.00000  -0.00035  -0.00035   1.09469
   D38       -3.12669   0.00000   0.00000  -0.00027  -0.00027  -3.12696
   D39        1.07569   0.00000   0.00000  -0.00031  -0.00031   1.07539
   D40       -0.99962   0.00000   0.00000  -0.00028  -0.00028  -0.99991
   D41        2.98790   0.00001   0.00000   0.00047   0.00047   2.98836
   D42        0.83052  -0.00001   0.00000   0.00037   0.00037   0.83088
   D43       -1.24934   0.00000   0.00000   0.00044   0.00044  -1.24890
   D44       -0.96127   0.00000   0.00000  -0.00003  -0.00003  -0.96129
   D45        1.15038   0.00000   0.00000  -0.00002  -0.00002   1.15035
   D46       -3.03992   0.00000   0.00000  -0.00002  -0.00002  -3.03994
   D47        1.11989   0.00000   0.00000   0.00000   0.00000   1.11989
   D48       -3.05165   0.00000   0.00000   0.00001   0.00001  -3.05165
   D49       -0.95877   0.00000   0.00000   0.00001   0.00001  -0.95875
   D50       -3.02285   0.00000   0.00000   0.00001   0.00001  -3.02284
   D51       -0.91121   0.00000   0.00000   0.00002   0.00002  -0.91119
   D52        1.18168   0.00000   0.00000   0.00002   0.00002   1.18171
   D53       -3.05868   0.00000   0.00000   0.00001   0.00001  -3.05868
   D54       -0.94535   0.00000   0.00000   0.00000   0.00000  -0.94535
   D55        1.17374   0.00000   0.00000   0.00002   0.00002   1.17376
   D56       -3.09039   0.00001   0.00000   0.00013   0.00013  -3.09025
   D57        1.01690   0.00001   0.00000   0.00013   0.00013   1.01703
   D58       -1.04312   0.00001   0.00000   0.00015   0.00015  -1.04297
   D59       -1.00209   0.00000   0.00000   0.00009   0.00009  -1.00200
   D60        3.10519   0.00000   0.00000   0.00009   0.00009   3.10528
   D61        1.04518   0.00000   0.00000   0.00011   0.00011   1.04529
   D62        1.07726   0.00000   0.00000   0.00009   0.00009   1.07735
   D63       -1.09864   0.00000   0.00000   0.00008   0.00008  -1.09856
   D64        3.12453   0.00000   0.00000   0.00010   0.00010   3.12463
   D65       -1.25538   0.00000   0.00000  -0.00049  -0.00049  -1.25587
   D66        0.91252   0.00000   0.00000  -0.00048  -0.00048   0.91203
   D67        2.95000   0.00000   0.00000  -0.00050  -0.00050   2.94950
         Item               Value     Threshold  Converged?
 Maximum Force            0.000035     0.000450     YES
 RMS     Force            0.000008     0.000300     YES
 Maximum Displacement     0.001893     0.001800     NO 
 RMS     Displacement     0.000461     0.001200     YES
 Predicted change in Energy=-3.424896D-08
 GradGradGradGradGradGradGradGradGradGradGradGradGradGradGradGradGradGrad

                          Input orientation:                          
 ---------------------------------------------------------------------
 Center     Atomic      Atomic             Coordinates (Angstroms)
 Number     Number       Type             X           Y           Z
 ---------------------------------------------------------------------
      1          6           0       -0.000303    0.000298   -0.000066
      2          8           0       -0.000049   -0.000182    1.849761
      3          8           0        1.221288    0.000718   -0.343834
      4          1           0        1.787673    1.138308   -0.203964
      5          1           0        0.509146    2.819209    2.295624
      6          1           0        3.202525    2.010330    0.194717
      7          8           0        2.243664    2.146522    0.128816
      8          1           0        1.777321    2.202740    1.245349
      9          8           0        1.151467    2.092044    2.282058
     10          1           0        0.566560    1.059952    2.120168
     11          6           0       -0.806002   -1.263948   -0.262814
     12          6           0       -2.135971   -1.284140    0.488986
     13          6           0       -1.981522   -1.347725    2.002695
     14          6           0       -1.239822   -0.113332    2.529782
     15          1           0       -0.580899    0.932693   -0.098996
     16          1           0       -0.191137   -2.123800    0.040459
     17          1           0       -1.395159   -2.245404    2.258837
     18          1           0       -1.883382    0.769862    2.349190
     19          1           0       -2.698322   -0.368106    0.237217
     20          8           0       -1.054025   -1.278836   -1.662231
     21          8           0       -2.842704   -2.425588    0.013750
     22          8           0       -3.303557   -1.443545    2.525112
     23          1           0       -3.620320   -2.516214    0.590777
     24          1           0       -1.769253   -1.927121   -1.786748
     25          1           0       -3.215071   -1.407069    3.496613
     26          6           0       -0.943893   -0.219976    4.035470
     27          8           0       -2.130361   -0.407310    4.821106
     28          1           0       -0.380883    0.659912    4.374838
     29          1           0       -0.322959   -1.102166    4.213537
     30          1           0       -2.620777    0.430267    4.824606
 ---------------------------------------------------------------------
                    Distance matrix (angstroms):
[...]
 7,-0.00000919,-0.00005978,-0.00039900,-0.00116964,0.00031162,-0.000487
 16,0.00214906,0.00089316,-0.00064623,-0.00071997,-0.00082939,-0.000353
 46,-0.00013251,-0.00012517,0.00021947,0.00011488,0.00027996,0.00074523
 ,0.00009714,0.00170227,0.00008806,-0.00007848,0.00028312,0.00003916,-0
 .00002777,-0.00001176,0.00035205,-0.00078019,-0.00051604,-0.23580541,-
 0.21967731,-0.04532637,0.00060791,-0.00111632,0.00126971,-0.00023973,-
 0.00011554,0.00068815,0.00001910,-0.00067845,-0.00033356,0.23636684,0.
 22189388,-0.00000752,0.00272211,-0.00650837,-0.00011864,-0.00104930,-0
 .00193691,0.00030053,-0.00002779,0.00046591,-0.00014039,-0.00025500,0.
 00019617,-0.00003789,-0.00004626,0.00001281,-0.00002024,-0.00001236,0.
 00002472,0.00013554,0.00019949,-0.00006238,-0.00006366,-0.00003524,0.0
 0004931,0.00002975,-0.00003793,0.00001002,0.00009599,0.00020148,-0.000
 26098,-0.03674490,-0.03369977,-0.01763771,-0.00154292,-0.00502026,-0.0
 0317165,-0.00082614,0.00014290,-0.00035139,-0.00117499,-0.00052909,0.0
 0060876,0.00013893,-0.00016837,0.00032044,-0.00018519,0.00041778,0.000
 04101,0.00002495,-0.00006096,0.00003530,0.00014130,0.00003243,-0.00003
 501,0.00037949,0.00055805,0.00000887,-0.01556870,-0.00797538,-0.046009
 89,-0.00166283,0.00014128,0.00047791,0.00000493,0.00039912,0.00127875,
 0.00113929,0.00067168,0.00150098,0.05536227,0.04321423,0.07105231,0.00
 001065,0.00040902,0.00151596,0.00074241,0.00055186,-0.00193205,0.00029
 503,-0.00011509,-0.00045115,-0.00003718,-0.00005158,0.00007051,-0.0000
 2418,-0.00007761,0.00007491,-0.00002429,-0.00002394,0.00002453,0.00012
 954,0.00003776,-0.00027572,-0.00024619,-0.00002884,0.00040741,0.000340
 10,0.00033860,-0.00031024,-0.00022871,-0.00046530,0.00000840,0.0016690
 7,0.00002857,0.00132070,-0.00885432,-0.00042512,0.00202396,-0.00189792
 ,0.00019750,0.04670091,-0.00008414,-0.00173727,0.00180636,-0.00008908,
 -0.00006357,-0.00014652,-0.00003069,0.00006115,-0.00007423,-0.00016791
 ,0.00072478,-0.00001113,0.00003892,0.00016622,-0.00020284,0.00011902,-
 0.00017606,-0.00026465,-0.00073041,-0.00007929,0.00089401,0.00043709,-
 0.00053728,-0.00132765,-0.05184076,-0.00489853,-0.07354548,0.00006426,
 0.00109582,0.00082104,-0.00006119,-0.00015891,-0.00008992,0.06513244,-
 0.00002214,0.00047626,0.00161861,0.00095346,-0.00045135,-0.00205426,0.
 00031927,-0.00020736,-0.00045784,-0.00000137,0.00004065,0.00007947,-0.
 00006579,-0.00008066,0.00009565,-0.00002327,-0.00000798,0.00001896,0.0
 0012884,-0.00003652,-0.00030560,-0.00027964,-0.00001113,0.00044969,0.0
 0032023,0.00017046,-0.00036915,-0.00017561,-0.00023779,0.00007676,0.00
 032998,0.00070289,0.00000834,-0.00250166,-0.00080431,0.00052038,0.0023
 8218,0.00037111,0.00306846,-0.00101313,0.00112822,0.00228874,-0.000076
 34,-0.00010326,-0.00014175,-0.00009776,-0.00007966,0.00004428,-0.00048
 196,0.00027662,-0.00088394,0.00011003,-0.00071193,0.00011304,-0.000013
 18,0.00010690,-0.00027656,-0.00025237,-0.00010288,0.00033432,0.0005547
 0,-0.00010304,-0.00109565,-0.00442761,-0.00952606,-0.01610209,0.000450
 70,0.00046521,0.00095853,0.00003963,-0.00004475,-0.00007797,0.00311836
 ,0.01342924,0.00053997,0.00036015,0.00021851,-0.00202524,-0.00212624,-
 0.00179652,-0.00044156,-0.00033283,-0.00009156,0.00027961,0.00045922,0
 .00009280,-0.00002285,-0.00001861,0.00015184,0.00002362,0.00001964,0.0
 0000457,-0.00012108,-0.00030540,-0.00018323,-0.00004507,0.00005077,0.0
 0018213,-0.00025460,-0.00071165,-0.00053301,0.00048143,0.00119038,0.00
 066333,-0.00022949,0.00003478,-0.00035146,0.00264401,-0.00021531,-0.00
 049901,0.00268299,0.00071227,-0.01839191,0.00057911,0.00153025,0.00279
 286,-0.00005351,-0.00000565,-0.00005514,0.00005853,-0.00005994,0.00003
 901,-0.00248340,-0.00005813,0.00102003,0.00013680,0.00016450,-0.000099
 28,0.00002894,-0.00011449,0.00023812,-0.00019150,-0.00007085,0.0003382
 5,-0.00017178,0.00036887,0.00151414,-0.02307096,-0.01358125,-0.4583545
 0,-0.00026267,-0.00037722,-0.00132803,0.00014535,0.00000886,-0.0002471
 9,0.01996991,0.01097397,0.47615459,-0.00021209,-0.00012072,-0.00685633
 ,-0.00899532,-0.00394777,0.04443326,-0.00369827,-0.00086835,0.00283208
 ,0.00107172,0.00191710,0.00049477,-0.00021451,-0.00043870,0.00060110,-
 0.00000944,-0.00004456,0.00006252,0.00011072,-0.00102041,-0.00174410,-
 0.00118685,0.00019862,0.00235332,0.00083241,-0.00025055,-0.00306496,0.
 00133485,0.00121149,0.00340239,-0.00012741,-0.00065996,0.00106166,-0.0
 0210329,-0.00231170,0.00122452,0.00337311,0.00180991,-0.02415450,-0.08
 242940,0.00255056,-0.04436040,0.00059156,-0.00027616,0.00073898,0.0000
 1965,0.00006612,-0.00002939,0.00008728,0.00113225,0.00124489,-0.004003
 43,0.00263488,-0.02005458,0.00007413,-0.00010062,0.00003217,0.00029158
 ,0.00032484,-0.00010122,-0.00092378,-0.00126211,-0.00177408,-0.0008711
 5,0.00301542,0.00808000,0.00033638,-0.00014284,-0.00066807,-0.00008227
 ,0.00002603,0.00017576,-0.00620216,-0.00619890,-0.00534117,0.52902451,
 0.00018900,-0.00083030,-0.00041737,-0.00265412,0.00036493,0.00407006,-
 0.00029192,0.00000852,0.00012680,0.00032799,0.00057130,0.00017255,-0.0
 0002224,-0.00029064,0.00063291,-0.00003010,0.00001168,-0.00000270,0.00
 033744,-0.00037057,-0.00111280,-0.00097412,0.00019379,0.00164410,0.000
 69361,-0.00024912,-0.00273371,0.00059443,0.00117775,0.00293459,-0.0004
 8189,0.00024485,0.00034592,-0.00194456,-0.00532798,0.00164838,-0.00510
 609,0.00284771,-0.03394770,0.00574346,-0.08814547,0.00446989,0.0000705
 0,0.00010932,-0.00019918,0.00008442,-0.00002396,-0.00005471,-0.0002515
 1,0.00045660,-0.00107528,0.00764091,-0.00231732,0.02925426,-0.00019809
 ,0.00066468,-0.00007765,0.00015853,-0.00003366,-0.00023249,-0.00121974
 ,-0.00097005,-0.00284249,0.00112976,0.00054622,0.00183412,0.00038745,0
 .00010085,-0.00006756,-0.00009082,0.00001675,0.00013446,-0.00239938,0.
 00018496,0.00151562,-0.02443229,0.64746412,0.00125456,-0.00035362,-0.0
 0346246,0.01078307,0.00075267,-0.01792914,-0.00273272,-0.00060059,0.00
 158525,0.00107838,0.00176825,0.00021298,0.00008527,0.00018550,0.000421
 73,0.00010547,0.00008264,-0.00004646,-0.00050922,-0.00112456,-0.000369
 35,-0.00001456,0.00027668,0.00025497,-0.00081060,-0.00214711,-0.001773
 20,0.00258859,0.00474489,0.00164432,-0.00019159,-0.00081502,-0.0004730
 3,-0.00079043,-0.00046477,-0.00014418,-0.01226910,-0.00776168,-0.01415
 446,-0.04388628,0.00727795,-0.16194656,0.00020694,0.00016245,0.0003293
 5,0.00001277,0.00003945,0.00003033,0.00089468,0.00207254,0.00095004,-0
 .00181160,-0.00126228,-0.00761912,-0.00002945,0.00010765,-0.00014979,0
 .00036667,0.00043987,0.00068603,0.00092847,0.00104319,0.00060376,0.003
 25699,-0.00003316,-0.00529027,-0.00019918,-0.00001267,0.00016816,-0.00
 007944,-0.00003478,-0.00003652,0.00062653,0.00242711,0.00615106,0.0383
 4986,0.01805829,0.44920393,0.00042456,-0.00071265,-0.00459306,0.002529
 27,-0.00021253,0.00611309,-0.00119160,0.00011448,0.00128384,0.00021842
 ,0.00038499,-0.00016293,0.00004322,0.00035429,-0.00031778,0.00009246,0
 .00009182,-0.00008287,-0.00053088,-0.00027059,0.00095941,0.00086712,0.
 00006658,-0.00145543,-0.00102211,-0.00063580,0.00172650,0.00034169,0.0
 0052186,-0.00129877,-0.00073732,-0.00065608,-0.00016057,0.00061162,0.0
 0006055,-0.00039147,-0.00809766,-0.00168261,0.00381834,-0.00773881,0.0
 0139641,0.00751420,0.00026874,0.00008177,0.00047450,0.00007488,-0.0000
 1208,-0.00002016,0.00112594,-0.00013882,-0.00033331,0.00203245,-0.0017
 4511,0.00016252,-0.00000912,0.00005483,0.00010811,0.00073115,0.0003910
 7,-0.00000702,0.00109962,0.00076976,-0.00008587,0.00333535,-0.00528480
 ,-0.01262885,0.00000506,0.00042747,0.00099050,-0.00020143,0.00005192,0
 .00024376,-0.00115594,0.00693528,0.00468833,-0.16826153,-0.03223935,0.
 07257714,0.36718349,-0.00020924,0.00002065,-0.00142210,0.00046423,0.00
 273001,0.00238347,-0.00019630,0.00016866,0.00048784,-0.00007944,-0.000
 17147,-0.00009767,0.00008584,0.00018852,-0.00028419,0.00002249,-0.0000
 0087,-0.00000935,-0.00018204,0.00013365,0.00052016,0.00045253,-0.00004
 494,-0.00076648,-0.00042304,0.00022516,0.00111736,-0.00000848,-0.00057
 421,-0.00096421,-0.00030293,-0.00027990,0.00010562,0.00040224,0.000049
 46,-0.00009469,-0.00339688,-0.00121881,0.00275964,-0.00417527,0.001061
 04,0.00367077,0.00007544,0.00002614,0.00002116,0.00001406,0.00003400,-
 0.00000254,0.00034907,0.00026581,0.00018537,-0.00101293,0.00064024,-0.
 00151369,-0.00001224,-0.00001805,-0.00003809,0.00029045,0.00017493,-0.
 00021208,0.00041257,0.00028436,-0.00021555,-0.00194897,0.00035974,-0.0
 0858086,0.00007879,0.00024052,0.00056730,-0.00007205,0.00002328,0.0001
 6467,0.00301656,-0.00201248,0.00073117,0.01006204,-0.09937034,0.001948
 56,-0.17514029,0.47249378,-0.00156336,0.00030159,0.00812898,0.00285477
 ,0.00199724,-0.01691816,0.00407172,0.00096876,-0.00262917,-0.00140968,
 -0.00239900,-0.00027844,-0.00002415,-0.00024035,-0.00029915,-0.0001497
 1,-0.00012087,0.00003789,0.00081539,0.00148123,0.00023279,-0.00026763,
 -0.00026539,0.00001372,0.00130600,0.00218442,0.00084288,-0.00232553,-0
 .00390572,-0.00114809,0.00001908,0.00094278,-0.00000772,0.00095310,0.0
 0034105,-0.00001455,-0.00239415,0.00080163,0.00486327,0.03862230,0.005
 06544,-0.01389154,-0.00046204,-0.00001594,-0.00073482,0.00000911,-0.00
 001719,-0.00002016,0.00037693,-0.00055520,-0.00030741,-0.00070979,0.00
 022887,0.00282824,0.00002151,-0.00008163,0.00010302,-0.00037113,-0.000
 53204,-0.00090429,-0.00027745,-0.00045151,-0.00050553,-0.00608505,-0.0
 0689652,-0.00914886,0.00026462,0.00044188,0.00069153,0.00008102,0.0000
 5682,0.00011613,0.00237621,0.00218988,-0.00601444,0.06110345,0.0271214
 5,-0.10776733,-0.12296026,-0.02763829,0.15363363,-0.00004358,-0.000011
 39,-0.00000323,0.00109256,0.00099214,0.00002988,0.00013628,0.00007457,
 -0.00003905,-0.00004822,-0.00010327,-0.00002030,0.00022247,0.00018393,
 -0.00029720,-0.00000118,-0.00000863,-0.00000276,-0.00000219,0.00007351
 ,0.00013382,-0.00003194,-0.00001738,-0.00018768,-0.00056974,0.00001680
 ,0.00045447,0.00035307,-0.00040856,0.00003768,-0.00011795,0.00003427,0
 .00001434,0.00022319,-0.00054960,0.00017143,-0.00000598,0.00128128,-0.
 00074742,-0.00296874,-0.00781303,-0.00471726,-0.00001257,0.00000933,-0
 .00002629,0.00001666,-0.00000543,-0.00001292,0.00015594,-0.00036054,-0
 .00002499,0.00023423,-0.00003994,0.00065473,-0.00000573,0.00002014,0.0
 0007661,0.00007111,-0.00000883,-0.00009857,-0.00002450,-0.00004525,-0.
 00025172,0.00000601,-0.00020321,-0.00064257,0.00002967,0.00005691,0.00
 012398,-0.00001655,0.00001143,0.00004088,0.00037444,0.00075875,0.00126
 939,-0.10871189,-0.09292472,-0.04220558,-0.02778315,-0.02503851,0.0023
 6431,0.12484453,-0.00014676,-0.00004758,0.00011868,0.00126264,0.000853
 78,-0.00068589,0.00033913,0.00017394,-0.00008303,-0.00018082,-0.000299
 13,-0.00009623,0.00005366,0.00002919,-0.00000089,-0.00000181,0.0000048
 5,-0.00003246,0.00000136,0.00018452,0.00033640,0.00012428,-0.00009242,
 -0.00039637,-0.00025581,-0.00018534,0.00095470,-0.00028719,-0.00041692
 ,-0.00084223,-0.00010512,-0.00002903,0.00006592,-0.00009604,0.00037886
 ,0.00028150,-0.00034081,0.00039157,0.00035756,0.00199545,0.00286761,0.
 00334057,-0.00001320,0.00000856,0.00000975,0.00000299,0.00000923,0.000
 00048,-0.00001447,0.00052472,0.00019830,-0.00010557,0.00090454,-0.0007
 7470,-0.00001141,0.00001878,-0.00012771,0.00008228,0.00000727,-0.00013
 210,0.00002771,-0.00002406,-0.00004152,-0.00014138,-0.00014384,-0.0003
 1879,0.00004144,0.00002010,0.00009254,-0.00001888,0.00001930,0.0000582
 8,0.00042079,0.00022033,0.00034540,-0.09635323,-0.22386498,-0.06799261
 ,-0.00483207,0.00302443,0.00277552,0.11135996,0.23405514,-0.00015759,-
 0.00015248,-0.00063983,0.00016794,0.00156114,0.00369974,0.00028117,0.0
 0034057,0.00009757,-0.00030324,-0.00053715,-0.00017725,0.00003044,0.00
 032318,-0.00033111,0.00002701,0.00002061,0.00002452,-0.00026656,0.0003
 4352,0.00088584,0.00093549,-0.00011126,-0.00133919,-0.00046541,0.00073
 249,0.00162220,-0.00036525,-0.00145938,-0.00203883,-0.00034017,-0.0000
 7273,0.00041788,-0.00083247,-0.00170287,0.00124387,0.00112843,0.003354
 79,-0.00774200,-0.01649138,-0.02929640,-0.01145116,0.00002646,0.000001
 16,0.00005998,0.00004210,0.00000520,-0.00002394,0.00011212,0.00005634,
 0.00015544,0.00024000,0.00074214,0.00160127,-0.00002239,0.00014064,-0.
 00007848,0.00023598,0.00008317,-0.00025029,-0.00053865,-0.00058042,-0.
 00137341,-0.00042131,0.00034074,0.00153586,0.00025431,0.00006418,0.000
 01864,-0.00008386,0.00002733,0.00016425,-0.00026567,-0.00050090,-0.001
 34775,-0.04232693,-0.07053267,-0.08020651,0.01945434,0.02018226,0.0048
 3779,0.03910222,0.07102372,0.08628012,0.00007410,-0.00000916,0.0001699
 8,0.00121419,-0.00084919,0.00026746,0.00003993,-0.00000964,-0.00009237
 ,-0.00000736,-0.00001922,0.00000417,0.00001522,0.00006100,-0.00011082,
 0.00000081,-0.00000359,0.00000922,-0.00003635,0.00001331,0.00006646,0.
 00007577,-0.00001152,-0.00011299,-0.00014866,0.00002928,0.00020193,0.0
 0005739,-0.00016456,-0.00008855,0.00001642,0.00004089,-0.00006879,0.00
 014164,-0.00021622,-0.00008166,-0.00038151,0.00140724,0.00068561,-0.00
 440973,0.00776274,-0.00318457,-0.00005714,0.00001436,0.00008136,0.0000
 2587,-0.00002266,-0.00000524,0.00010269,-0.00075823,-0.00020764,-0.000
 09927,0.00022434,-0.00109624,0.00004823,-0.00007258,0.00017067,-0.0000
 2103,-0.00002571,0.00004748,0.00002953,-0.00005829,0.00002160,0.000320
 97,-0.00057919,-0.00042435,-0.00003681,0.00003637,-0.00001379,-0.00000
 191,-0.00000438,-0.00001993,-0.00015960,0.00077900,0.00039232,-0.12627
 724,0.11240342,-0.02728192,-0.02514124,0.02483069,0.00344810,0.0113497
 3,-0.01287105,0.00246882,0.14875956,0.00002783,0.00000472,-0.00011263,
 -0.00105826,0.00064259,-0.00005246,-0.00016955,0.00002195,0.00009393,0
 .00002973,-0.00000443,0.00001079,0.00010705,0.00016436,-0.00020417,0.0
 0000703,-0.00001440,0.00002519,-0.00011235,0.00002489,0.00013854,0.000
 19262,-0.00003330,-0.00025061,-0.00038845,0.00012830,0.00039276,0.0002
 2123,-0.00044472,-0.00010404,0.00004408,-0.00003054,0.00000956,-0.0001
 7185,0.00029766,-0.00015606,-0.00109358,0.00083998,-0.00060410,0.00223
 837,-0.00206517,0.00012456,-0.00000143,0.00001342,-0.00007007,-0.00000
 695,0.00001932,0.00000814,0.00022509,0.00054648,0.00019516,-0.00027658
 ,0.00113695,0.00046586,-0.00002602,-0.00008262,-0.00016153,-0.00002976
 ,0.00001684,0.00003069,0.00003870,0.00001847,0.00014655,0.00013626,0.0
 0006649,-0.00007468,-0.00002226,-0.00002526,-0.00002830,0.00001272,-0.
 00000790,-0.00001710,-0.00000881,-0.00015884,-0.00006920,0.12179421,-0
 .23738898,0.03647002,-0.00262454,0.00795060,-0.00211836,0.01412901,-0.
 02003630,0.00500184,-0.13084103,0.24616019,0.00009569,0.00008328,-0.00
 054637,-0.00018106,-0.00162813,0.00322611,-0.00005451,-0.00012030,0.00
 003076,0.00001238,0.00007425,-0.00000329,-0.00006815,-0.00004379,-0.00
 006230,0.00000488,0.00001124,-0.00000431,-0.00000665,-0.00005132,0.000
 00494,-0.00001323,0.00001115,-0.00000193,-0.00003961,-0.00011941,0.000
 08654,-0.00003534,0.00014699,-0.00003390,-0.00003982,-0.00001211,0.000
 03630,0.00006673,0.00016937,-0.00017664,0.00017679,0.00257000,0.001867
 31,-0.02009279,0.02831008,-0.00861275,0.00007023,-0.00012926,0.0002306
 2,0.00003822,-0.00005858,-0.00002778,0.00019575,-0.00131008,0.00000532
 ,-0.00069399,0.00026810,-0.00642086,0.00013136,-0.00024729,0.00020586,
 0.00005060,-0.00001335,0.00006840,0.00005120,-0.00020039,0.00004059,-0
 .00004686,-0.00055235,0.00019315,-0.00002002,0.00002445,-0.00004665,-0
 .00001697,0.00000817,0.00000011,-0.00021184,-0.00003895,-0.00036544,-0
 .03059351,0.04078214,-0.05804628,0.01821091,-0.01857384,0.00050102,0.0
 0544826,-0.00945599,0.00332866,0.02280127,-0.04012396,0.06589007,-0.00
 002752,0.00000560,0.00065769,0.00033499,-0.00045470,-0.00115065,0.0001
 8265,-0.00002716,-0.00022493,-0.00000470,0.00000411,0.00004530,-0.0000
 5968,-0.00011280,0.00018964,-0.00001763,-0.00000938,0.00001270,0.00012
 306,-0.00000153,-0.00027106,-0.00024491,-0.00000303,0.00041272,0.00026
 186,-0.00002610,-0.00050448,-0.00006104,0.00018585,0.00024978,0.000045
 33,0.00010293,0.00001406,-0.00002424,-0.00007071,0.00013147,0.00068169
 ,0.00009232,-0.00030305,0.00119473,-0.00038704,0.00055386,-0.00003304,
 0.,-0.00003064,-0.00000974,-0.00000161,-0.00000053,-0.00023673,-0.0000
 0729,0.00001554,0.00026289,-0.00005150,0.00078400,0.00000173,0.0000246
 3,-0.00004385,-0.00008069,-0.00005670,-0.00006064,-0.00015936,-0.00009
 765,-0.00011950,-0.00150551,0.00058734,-0.00059058,0.00006363,-0.00002
 244,-0.00002245,0.00002509,-0.00000450,-0.00000950,0.00248168,-0.00154
 968,0.00079457,-0.02283788,0.03550002,-0.00030372,-0.13911424,0.171641
 61,0.02031232,0.00123401,0.00006394,-0.00162595,-0.00549419,-0.0023725
 0,0.00476008,0.16301776,0.00019056,0.00008549,-0.00054034,-0.00047350,
 -0.00042716,0.00109091,-0.00037809,-0.00016801,0.00016907,0.00016307,0
 .00029733,0.00005152,-0.00007011,-0.00000297,0.00014725,0.00000927,0.0
 0001550,-0.00000076,-0.00004360,-0.00019161,-0.00013265,-0.00006688,0.
 00003012,0.00015929,-0.00005838,-0.00036723,-0.00025376,0.00029540,0.0
 0067513,0.00014490,0.00008681,-0.00005683,-0.00000305,-0.00018652,0.00
 012151,-0.00002176,0.00112470,-0.00039667,-0.00029498,-0.00150630,0.00
 044787,-0.00079144,0.00003482,-0.00001651,0.00005655,-0.00000965,-0.00
 000623,0.00000369,-0.00021639,0.00004611,0.00004948,0.00036236,-0.0003
 2963,-0.00032432,0.00000966,0.00000489,-0.00002527,-0.00002893,0.00002
 169,0.00014014,-0.00001795,0.00001483,0.00013790,-0.00094927,0.0012137
 6,0.00079316,-0.00002989,-0.00006985,-0.00015391,0.00001177,-0.0000103
 1,-0.00004522,0.00107958,-0.00289282,-0.00041907,-0.00831459,0.0042193
 5,0.00474514,0.21448428,-0.38640392,-0.00166055,-0.00146375,0.00144288
 ,0.00060125,-0.00108644,0.00223926,0.00021987,-0.20295204,0.38046404,0
 .00046810,0.00007482,-0.00090578,-0.00171807,0.00038029,0.00036546,-0.
 00069000,-0.00022999,0.00028616,0.00029985,0.00047365,0.00006064,0.000
 09787,0.00011224,0.00010236,0.00003723,0.00003223,-0.00000373,-0.00020
 588,-0.00030873,-0.00001437,0.00011231,0.00005728,-0.00007315,-0.00043
 502,-0.00057071,-0.00023010,0.00067504,0.00093512,0.00030996,0.0001386
 8,-0.00008137,-0.00013288,-0.00019391,-0.00011251,-0.00021529,0.000657
 32,-0.00047001,-0.00081810,0.00334021,-0.00325728,0.00050980,0.0000173
 6,0.00004268,0.00000681,-0.00002335,0.00000024,0.00001746,-0.00020022,
 0.00037313,0.00015919,-0.00069048,0.00129040,-0.00084753,-0.00002870,0
 .00005043,-0.00005794,-0.00005511,0.00007749,0.00032092,0.00010801,0.0
 0023981,0.00033898,-0.00076881,0.00171216,0.00047366,-0.00012106,-0.00
 014915,-0.00020767,0.00002367,-0.00004150,-0.00010575,0.00046775,-0.00
 296152,0.00009721,0.01487852,-0.02144926,-0.00282727,0.00617289,0.0255
 6826,-0.01624122,-0.00064445,0.00102117,0.00102613,0.00195244,0.001033
 68,-0.00136724,-0.02367219,-0.00384305,0.01997329\\0.00000043,0.000000
 49,0.00000027,-0.00000018,0.00000022,0.00000024,0.00000046,0.00000089,
 0.00000068,0.00000006,0.00000110,0.00000093,-0.00000130,0.00000035,0.0
 0000073,-0.00000037,0.00000155,0.00000148,-0.00000041,0.00000123,0.000
 00120,-0.00000077,0.00000091,0.00000103,-0.00000105,0.00000061,0.00000
 086,-0.00000064,0.00000039,0.00000055,0.00000088,0.00000014,-0.0000001
 6,0.00000074,-0.00000030,-0.00000047,0.00000030,-0.00000049,-0.0000005
 6,-0.00000038,-0.00000027,-0.00000011,0.00000010,0.00000025,0.00000020
 ,0.00000114,0.00000033,-0.00000007,0.00000049,-0.00000030,-0.00000044,
 -0.00000059,-0.00000052,-0.00000025,0.00000047,-0.00000058,-0.00000063
 ,0.00000139,0.00000026,-0.00000023,0.00000124,-0.00000056,-0.00000090,
 0.00000013,-0.00000101,-0.00000092,0.00000110,-0.00000094,-0.00000119,
 0.00000162,0.,-0.00000053,-0.00000019,-0.00000111,-0.00000091,-0.00000
 079,-0.00000038,-0.00000011,-0.00000090,-0.00000082,-0.00000044,-0.000
 00121,-0.00000021,0.00000021,-0.00000052,-0.00000016,0.00000003,-0.000
 00125,-0.00000107,-0.00000050\\\@
 Job cpu time:       0 days 12 hours 30 minutes 59.4 seconds.
 File lengths (MBytes):  RWF= 120410 Int=      0 D2E=      0 Chk=     23 Scr=      1
 Normal termination of Gaussian 09 at Tue Jun  7 02:12:04 2016.
