 Entering Gaussian System, Link 0=g09
 Initial command:
 /global/software/gaussian/g09.e01/l1.exe "/scratch/10451555.yak.local/Gau-24572.inp" -scrdir="/scratch/10451555.yak.local/"
 Entering Link 1 = /global/software/gaussian/g09.e01/l1.exe PID=     24573.
  
 Copyright (c) 1988,1990,1992,1993,1995,1998,2003,2009,2015,
            Gaussian, Inc.  All Rights Reserved.
  
 This is part of the Gaussian(R) 09 program.  It is based on
 the Gaussian(R) 03 system (copyright 2003, Gaussian, Inc.),
 the Gaussian(R) 98 system (copyright 1998, Gaussian, Inc.),
 the Gaussian(R) 94 system (copyright 1995, Gaussian, Inc.),
 the Gaussian 92(TM) system (copyright 1992, Gaussian, Inc.),
 the Gaussian 90(TM) system (copyright 1990, Gaussian, Inc.),
 the Gaussian 88(TM) system (copyright 1988, Gaussian, Inc.),
 the Gaussian 86(TM) system (copyright 1986, Carnegie Mellon
 University), and the Gaussian 82(TM) system (copyright 1983,
 Carnegie Mellon University). Gaussian is a federally registered
 trademark of Gaussian, Inc.
  
 This software contains proprietary and confidential information,
 including trade secrets, belonging to Gaussian, Inc.
  
 This software is provided under written license and may be
 used, copied, transmitted, or stored only in accord with that
 written license.
  
 The following legend is applicable only to US Government
 contracts under FAR:
  
                    RESTRICTED RIGHTS LEGEND
  
 Use, reproduction and disclosure by the US Government is
 subject to restrictions as set forth in subparagraphs (a)
 and (c) of the Commercial Computer Software - Restricted
 Rights clause in FAR 52.227-19.
  
 Gaussian, Inc.
 340 Quinnipiac St., Bldg. 40, Wallingford CT 06492
  
  
 ---------------------------------------------------------------
 Warning -- This program may not be used in any manner that
 competes with the business of Gaussian, Inc. or will provide
 assistance to any competitor of Gaussian, Inc.  The licensee
 of this program is prohibited from giving any competitor of
 Gaussian, Inc. access to this program.  By using this program,
 the user acknowledges that Gaussian, Inc. is engaged in the
 business of creating and licensing software in the field of
 computational chemistry and represents and warrants to the
 licensee that it is not a competitor of Gaussian, Inc. and that
 it will not use this program in any manner prohibited above.
 ---------------------------------------------------------------
  

 Cite this work as:
 Gaussian 09, Revision E.01,
 M. J. Frisch, G. W. Trucks, H. B. Schlegel, G. E. Scuseria, 
 M. A. Robb, J. R. Cheeseman, G. Scalmani, V. Barone, B. Mennucci, 
 G. A. Petersson, H. Nakatsuji, M. Caricato, X. Li, H. P. Hratchian, 
 A. F. Izmaylov, J. Bloino, G. Zheng, J. L. Sonnenberg, M. Hada, 
 M. Ehara, K. Toyota, R. Fukuda, J. Hasegawa, M. Ishida, T. Nakajima, 
 Y. Honda, O. Kitao, H. Nakai, T. Vreven, J. A. Montgomery, Jr., 
 J. E. Peralta, F. Ogliaro, M. Bearpark, J. J. Heyd, E. Brothers, 
 K. N. Kudin, V. N. Staroverov, T. Keith, R. Kobayashi, J. Normand, 
 K. Raghavachari, A. Rendell, J. C. Burant, S. S. Iyengar, J. Tomasi, 
 M. Cossi, N. Rega, J. M. Millam, M. Klene, J. E. Knox, J. B. Cross, 
 V. Bakken, C. Adamo, J. Jaramillo, R. Gomperts, R. E. Stratmann, 
 O. Yazyev, A. J. Austin, R. Cammi, C. Pomelli, J. W. Ochterski, 
 R. L. Martin, K. Morokuma, V. G. Zakrzewski, G. A. Voth, 
 P. Salvador, J. J. Dannenberg, S. Dapprich, A. D. Daniels, 
 O. Farkas, J. B. Foresman, J. V. Ortiz, J. Cioslowski, 
 and D. J. Fox, Gaussian, Inc., Wallingford CT, 2013.
 
 ******************************************
 Gaussian 09:  ES64L-G09RevE.01 30-Nov-2015
                11-Jan-2017 
 ******************************************
 ----------------------------------------------------------------------
 # opt=(calcfc,ts,cartesian,noeigentest,maxcycles=500) freq b3lyp/6-31g
 (d)
 ----------------------------------------------------------------------
 1/5=1,6=500,10=4,11=1,14=-1,18=10,26=3,38=1/1,3;
 2/12=2,17=6,18=5,29=2,40=1/2;
 3/5=1,6=6,7=1,11=2,16=1,25=1,30=1,71=2,74=-5,140=1/1,2,3;
 4//1;
 5/5=2,38=5/2;
 8/6=4,10=90,11=11/1;
 11/6=1,8=1,9=11,15=111,16=1/1,2,10;
 10/6=1,13=1/2;
 6/7=2,8=2,9=2,10=2,28=1/1;
 7/7=1,10=1,18=20,25=1/1,2,3,16;
 1/5=1,6=500,10=4,11=1,14=-1,18=10,26=3/3(2);
 2/29=1/2;
 99/12=1/99;
 2/29=1/2;
 3/5=1,6=6,7=1,11=2,16=1,25=1,30=1,71=1,74=-5/1,2,3;
 4/5=5,16=3,69=1/1;
 5/5=2,38=5/2;
 7/7=1/1,2,3,16;
 1/5=1,6=500,11=1,14=-1,18=10,26=3/3(-5);
 2/29=1/2;
 6/7=2,8=2,9=2,10=2,19=2,28=1/1;
 99/9=1,12=1/99;
 -------------------
 glo_2w_beta_ts_boat
 -------------------
 Symbolic Z-matrix:
 Charge =  0 Multiplicity = 1
 C                     0.20267  -1.60818   0.03139 
 O                     0.67461  -0.11201   0.74107 
 H                     2.18337   0.57681   2.85261 
 H                     1.37535  -2.75411   3.373 
 O                     1.87998  -2.30269   2.69032 
 H                     1.85458  -1.14543   3.0067 
 O                     1.41932  -0.02716   3.00078 
 H                     0.89685   0.0009    1.91489 
 C                    -1.44097   0.94311   0.54131 
 C                     0.0535    1.03359   0.1333 
 H                    -1.75193   1.80069   1.18195 
 H                     0.15397   0.94393  -0.97411 
 O                    -2.24082   1.09171  -0.62546 
 H                    -2.27049   0.23622  -1.1418 
 C                     0.77752   2.28486   0.64054 
 O                     2.02977   2.4177   -0.05685 
 H                     1.09062   2.18406   1.70129 
 H                     0.17853   3.20324   0.51355 
 H                     1.88346   2.7517   -0.96696 
 H                     1.33609  -2.73373   1.71135 
 C                    -1.27512  -1.64928   0.49649 
 H                    -1.45096  -2.56347   1.10545 
 C                    -1.76538  -0.39531   1.2625 
 H                    -2.86457  -0.45819   1.44654 
 O                    -2.00487  -1.70685  -0.74718 
 H                    -2.79443  -2.27853  -0.65603 
 O                    -1.20556  -0.37796   2.56526 
 H                    -0.20612  -0.42707   2.50643 
 O                     1.03391  -2.35102   0.61489 
 H                     0.32994  -1.34271  -1.03116 
 

 GradGradGradGradGradGradGradGradGradGradGradGradGradGradGradGradGradGrad
 Berny optimization.
 Initialization pass.
 No Z-matrix variables, so optimization will use Cartesian coordinates.
 Trust Radius=3.00D-01 FncErr=1.00D-07 GrdErr=1.00D-06
 Number of steps in this run=    180 maximum allowed number of steps=    180.
 Search for a saddle point of order  1.
 GradGradGradGradGradGradGradGradGradGradGradGradGradGradGradGradGradGrad

 ---------------------------------------------------------------------------------------------------
                            Z-MATRIX (ANGSTROMS AND DEGREES)
   CD    Cent   Atom    N1       Length/X        N2       Alpha/Y        N3        Beta/Z          J
 ---------------------------------------------------------------------------------------------------
      1      1  C        0   0.202666         -1.608175          0.031395
      2      2  O        0   0.674605         -0.112011          0.741068
      3      3  H        0   2.183368          0.576806          2.852614
      4      4  H        0   1.375354         -2.754108          3.372996
      5      5  O        0   1.879979         -2.302691          2.690320
      6      6  H        0   1.854575         -1.145426          3.006697
      7      7  O        0   1.419320         -0.027161          3.000778
      8      8  H        0   0.896846          0.000897          1.914891
      9      9  C        0  -1.440970          0.943108          0.541307
     10     10  C        0   0.053495          1.033588          0.133304
     11     11  H        0  -1.751933          1.800693          1.181949
     12     12  H        0   0.153967          0.943931         -0.974108
     13     13  O        0  -2.240821          1.091712         -0.625461
     14     14  H        0  -2.270493          0.236224         -1.141799
     15     15  C        0   0.777522          2.284857          0.640541
     16     16  O        0   2.029769          2.417697         -0.056849
     17     17  H        0   1.090621          2.184064          1.701295
     18     18  H        0   0.178527          3.203240          0.513555
     19     19  H        0   1.883457          2.751699         -0.966962
     20     20  H        0   1.336089         -2.733735          1.711349
     21     21  C        0  -1.275117         -1.649279          0.496494
     22     22  H        0  -1.450962         -2.563470          1.105455
     23     23  C        0  -1.765383         -0.395305          1.262500
     24     24  H        0  -2.864572         -0.458192          1.446537
     25     25  O        0  -2.004866         -1.706848         -0.747183
     26     26  H        0  -2.794433         -2.278528         -0.656034
     27     27  O        0  -1.205560         -0.377955          2.565257
     28     28  H        0  -0.206125         -0.427065          2.506429
     29     29  O        0   1.033908         -2.351018          0.614894
     30     30  H        0   0.329937         -1.342706         -1.031159
 ---------------------------------------------------------------------------------------------------
                         Z-Matrix orientation:                         
 ---------------------------------------------------------------------
 Center     Atomic      Atomic             Coordinates (Angstroms)
 Number     Number       Type             X           Y           Z
 ---------------------------------------------------------------------
      1          6           0        0.202666   -1.608175    0.031395
      2          8           0        0.674605   -0.112011    0.741068
      3          1           0        2.183368    0.576806    2.852614
      4          1           0        1.375354   -2.754108    3.372996
      5          8           0        1.879979   -2.302691    2.690320
      6          1           0        1.854575   -1.145426    3.006697
      7          8           0        1.419320   -0.027161    3.000778
      8          1           0        0.896846    0.000897    1.914891
      9          6           0       -1.440970    0.943108    0.541307
     10          6           0        0.053495    1.033588    0.133304
     11          1           0       -1.751933    1.800693    1.181949
     12          1           0        0.153967    0.943931   -0.974108
     13          8           0       -2.240821    1.091712   -0.625461
     14          1           0       -2.270493    0.236224   -1.141799
     15          6           0        0.777522    2.284857    0.640541
     16          8           0        2.029769    2.417697   -0.056849
     17          1           0        1.090621    2.184064    1.701295
     18          1           0        0.178527    3.203240    0.513555
     19          1           0        1.883457    2.751699   -0.966962
     20          1           0        1.336089   -2.733735    1.711349
     21          6           0       -1.275117   -1.649279    0.496494
     22          1           0       -1.450962   -2.563470    1.105455
     23          6           0       -1.765383   -0.395305    1.262500
     24          1           0       -2.864572   -0.458192    1.446537
     25          8           0       -2.004866   -1.706848   -0.747183
     26          1           0       -2.794433   -2.278528   -0.656034
     27          8           0       -1.205560   -0.377955    2.565257
     28          1           0       -0.206125   -0.427065    2.506429
     29          8           0        1.033908   -2.351018    0.614894
     30          1           0        0.329937   -1.342706   -1.031159
 ---------------------------------------------------------------------
                    Distance matrix (angstroms):
                    1          2          3          4          5
     1  C    0.000000
     2  O    1.721879   0.000000
     3  H    4.081250   2.685044   0.000000
     4  H    3.722184   3.794571   3.466796   0.000000
     5  O    3.219568   3.170424   2.899980   0.961494   0.000000
     6  H    3.434438   2.755604   1.760094   1.718047   1.200000
     7  O    3.577302   2.380775   0.985139   2.752584   2.342355
     8  H    2.572656   1.200000   1.692966   3.153584   2.621900
     9  C    3.077433   2.372517   4.314179   5.442384   5.116852
    10  C    2.647933   1.437898   3.484201   5.156506   4.583136
    11  H    4.094461   3.121041   4.446978   5.943637   5.683637
    12  H    2.743475   2.080362   4.347074   5.836488   5.191118
    13  O    3.700200   3.437450   5.651157   6.622289   6.284693
    14  H    3.300713   3.512842   5.992346   6.528220   6.193355
    15  C    3.982112   2.401182   3.128435   5.763235   5.144181
    16  O    4.421961   2.978685   3.446367   6.240165   5.463647
    17  H    4.237701   2.523305   2.258962   5.221226   4.661783
    18  H    4.835574   3.359873   4.048301   6.715563   6.160237
    19  H    4.778104   3.546763   4.405595   7.029034   6.238796
    20  H    2.318141   2.872706   3.602783   1.662235   1.200000
    21  C    1.549790   2.494880   4.740029   4.064469   3.898006
    22  H    2.191045   3.265037   5.110993   3.628519   3.697969
    23  C    2.619139   2.511113   4.366474   4.458965   4.354935
    24  H    3.568338   3.625369   5.341345   5.192249   5.240223
    25  O    2.342887   3.455135   5.976196   5.431254   5.221444
    26  H    3.147147   4.322027   6.726221   5.817764   5.748809
    27  O    3.149127   2.633137   3.532559   3.599953   3.638791
    28  H    2.772711   1.997860   2.614819   2.944001   2.811337
    29  O    1.258273   2.271161   3.860156   2.808237   2.241778
    30  H    1.102585   2.184993   4.712051   4.741470   4.144106
                    6          7          8          9         10
     6  H    0.000000
     7  O    1.200000   0.000000
     8  H    1.850228   1.205370   0.000000
     9  C    4.615273   3.895084   2.870518   0.000000
    10  C    4.030928   3.348593   2.225251   1.551799   0.000000
    11  H    5.001623   4.087301   3.285193   1.114707   2.224337
    12  H    4.806693   4.282973   3.128498   2.200070   1.115569
    13  O    5.913513   5.272392   4.181891   1.422390   2.417227
    14  H    6.011253   5.553831   4.408034   2.005153   2.768140
    15  C    4.304136   3.365717   2.618144   2.594580   1.532050
    16  O    4.702325   3.962204   3.318463   3.818145   2.420243
    17  H    3.656940   2.585772   2.202133   3.048688   2.204047
    18  H    5.285432   4.261612   3.568574   2.780600   2.206267
    19  H    5.565823   4.866256   4.104314   4.074026   2.740666
    20  H    2.114114   2.999182   2.777152   4.753970   4.281121
    21  C    4.043509   4.020285   3.074468   2.598073   3.015774
    22  H    4.068433   4.273597   3.569785   3.551683   4.018370
    23  C    4.087665   3.646844   2.769486   1.554578   2.573934
    24  H    5.017643   4.577465   3.818164   2.193109   3.530595
    25  O    5.413141   5.347299   4.292198   3.000075   3.538657
    26  H    6.026010   6.016364   5.042913   3.693836   4.438903
    27  O    3.185641   2.683790   2.233073   2.428374   3.080920
    28  H    2.238928   1.745387   1.322729   2.695166   2.798684
    29  O    2.801369   3.352804   2.690778   4.120886   3.556501
    30  H    4.320616   4.378805   3.287228   3.291460   2.660670
                   11         12         13         14         15
    11  H    0.000000
    12  H    3.002512   0.000000
    13  O    2.002098   2.424542   0.000000
    14  H    2.848907   2.531200   0.999672   0.000000
    15  C    2.631669   2.189519   3.483784   4.082160   0.000000
    16  O    4.026982   2.555775   4.507715   4.942489   1.439487
    17  H    2.914928   3.094032   4.207794   4.813975   1.110581
    18  H    2.478016   2.705221   3.407221   4.188207   1.103788
    19  H    4.328775   2.501842   4.458907   4.859371   2.006265
    20  H    5.511549   4.704712   5.734894   5.474353   5.161869
    21  C    3.549579   3.306008   3.115188   2.688847   4.439764
    22  H    4.375198   4.382036   4.120716   3.682400   5.356170
    23  C    2.197516   3.237263   2.449828   2.536655   3.746527
    24  H    2.531903   4.115465   2.661662   2.744927   4.630205
    25  O    4.011031   3.426176   2.811126   2.000452   5.059760
    26  H    4.594021   4.379324   3.415544   2.614280   5.938388
    27  O    2.637910   4.015321   3.662290   3.905581   3.837670
    28  H    3.017727   3.758116   4.031799   4.243953   3.435640
    29  O    5.031815   3.762434   4.910674   4.549600   4.643030
    30  H    4.371840   2.294107   3.563675   3.044256   4.019220
                   16         17         18         19         20
    16  O    0.000000
    17  H    2.006902   0.000000
    18  H    2.090343   1.811453   0.000000
    19  H    0.980444   2.840844   2.302739   0.000000
    20  H    5.490443   4.923931   6.166225   6.128862   0.000000
    21  C    5.269607   4.662915   5.065601   5.611319   3.077387
    22  H    6.186959   5.417910   6.021671   6.607896   2.857228
    23  C    4.904777   3.873299   4.158032   5.309253   3.910095
    24  H    5.872434   4.763399   4.851494   6.218694   4.784743
    25  O    5.810913   5.542227   5.519568   5.919966   4.273272
    26  H    6.759177   6.369095   6.344778   6.876228   4.782565
    27  O    5.015821   3.547227   4.353175   5.640331   3.569150
    28  H    4.434218   3.024531   4.159161   5.151246   2.886399
    29  O    4.917684   4.663738   5.620652   5.409411   1.200000
    30  H    4.240205   4.525821   4.803612   4.379692   3.235530
                   21         22         23         24         25
    21  C    0.000000
    22  H    1.112430   0.000000
    23  C    1.549057   2.196466   0.000000
    24  H    2.201735   2.558677   1.116262   0.000000
    25  O    1.443115   2.114918   2.411705   2.666579   0.000000
    26  H    2.008133   2.233596   2.878584   2.781968   0.979052
    27  O    2.429173   2.639644   1.418055   2.002572   3.657473
    28  H    2.583871   2.841931   1.994907   2.862111   3.931832
    29  O    2.416206   2.541725   3.475664   4.412773   3.391807
    30  H    2.236942   3.037595   3.247893   4.138385   2.380031
                   26         27         28         29         30
    26  H    0.000000
    27  O    4.063670   0.000000
    28  H    4.486471   1.002369   0.000000
    29  O    4.034440   3.565405   2.969374   0.000000
    30  H    3.283012   4.027742   3.693276   2.054692   0.000000
 Stoichiometry    C6H16O8
 Framework group  C1[X(C6H16O8)]
 Deg. of freedom    84
 Full point group                 C1      NOp   1
 Largest Abelian subgroup         C1      NOp   1
 Largest concise Abelian subgroup C1      NOp   1
                         Standard orientation:                         
 ---------------------------------------------------------------------
 Center     Atomic      Atomic             Coordinates (Angstroms)
 Number     Number       Type             X           Y           Z
 ---------------------------------------------------------------------
      1          6           0        0.561901   -0.948804   -1.220489
      2          8           0        0.271002    0.558981   -0.441497
      3          1           0        1.829268    2.398369    0.740840
      4          1           0        3.768697   -0.472116    0.608140
      5          8           0        3.384519    0.089359   -0.071290
      6          1           0        2.817342    0.956555    0.533922
      7          8           0        1.872369    1.469652    1.066611
      8          1           0        0.969392    0.970724    0.443217
      9          6           0       -1.661586   -0.136597    0.745985
     10          6           0       -1.125036    0.874017   -0.302276
     11          1           0       -2.017783    0.371397    1.672072
     12          1           0       -1.624645    0.706922   -1.285620
     13          8           0       -2.836933   -0.747974    0.228328
     14          1           0       -2.600047   -1.465102   -0.426621
     15          6           0       -1.235534    2.343874    0.115441
     16          8           0       -1.017970    3.177261   -1.037925
     17          1           0       -0.415363    2.645202    0.800942
     18          1           0       -2.211283    2.583593    0.572385
     19          1           0       -1.810338    3.179978   -1.615348
     20          1           0        2.817543   -0.739135   -0.728660
     21          6           0        0.034938   -1.903739   -0.119463
     22          1           0        0.849577   -2.588987    0.203492
     23          6           0       -0.599596   -1.211163    1.112317
     24          1           0       -1.060568   -1.969659    1.789243
     25          8           0       -1.014781   -2.628540   -0.794248
     26          1           0       -1.037422   -3.559909   -0.493281
     27          8           0        0.414940   -0.620939    1.908074
     28          1           0        0.960796    0.008632    1.350916
     29          8           0        1.806346   -0.834989   -1.367637
     30          1           0       -0.121624   -0.834477   -2.078053
 ---------------------------------------------------------------------
 Rotational constants (GHZ):      0.6804780      0.6388834      0.4444908
 Standard basis: 6-31G(d) (6D, 7F)
 There are   242 symmetry adapted cartesian basis functions of A   symmetry.
 There are   242 symmetry adapted basis functions of A   symmetry.
   242 basis functions,   456 primitive gaussians,   242 cartesian basis functions
    58 alpha electrons       58 beta electrons
       nuclear repulsion energy      1146.3002490035 Hartrees.
 NAtoms=   30 NActive=   30 NUniq=   30 SFac= 1.00D+00 NAtFMM=   60 NAOKFM=F Big=F
 Integral buffers will be    131072 words long.
 Raffenetti 2 integral format.
 Two-electron integral symmetry is turned on.
 One-electron integrals computed using PRISM.
 NBasis=   242 RedAO= T EigKep=  1.43D-03  NBF=   242
 NBsUse=   242 1.00D-06 EigRej= -1.00D+00 NBFU=   242
 ExpMin= 1.61D-01 ExpMax= 5.48D+03 ExpMxC= 8.25D+02 IAcc=1 IRadAn=         1 AccDes= 0.00D+00
 Harris functional with IExCor=  402 and IRadAn=       1 diagonalized for initial guess.
 HarFok:  IExCor=  402 AccDes= 0.00D+00 IRadAn=         1 IDoV= 1 UseB2=F ITyADJ=14
 ICtDFT=  3500011 ScaDFX=  1.000000  1.000000  1.000000  1.000000
 FoFCou: FMM=F IPFlag=           0 FMFlag=      100000 FMFlg1=           0
         NFxFlg=           0 DoJE=T BraDBF=F KetDBF=T FulRan=T
         wScrn=  0.000000 ICntrl=     500 IOpCl=  0 I1Cent=   200000004 NGrid=           0
         NMat0=    1 NMatS0=      1 NMatT0=    0 NMatD0=    1 NMtDS0=    0 NMtDT0=    0
 Petite list used in FoFCou.
 Requested convergence on RMS density matrix=1.00D-08 within 128 cycles.
 Requested convergence on MAX density matrix=1.00D-06.
 Requested convergence on             energy=1.00D-06.
 No special actions if energy rises.
 Integral accuracy reduced to 1.0D-05 until final iterations.
 Initial convergence to 1.0D-05 achieved.  Increase integral accuracy.
 SCF Done:  E(RB3LYP) =  -839.875036372     A.U. after   14 cycles
            NFock= 14  Conv=0.72D-08     -V/T= 2.0083
 DoSCS=F DFT=T ScalE2(SS,OS)=  1.000000  1.000000
 Range of M.O.s used for correlation:     1   242
 NBasis=   242 NAE=    58 NBE=    58 NFC=     0 NFV=     0
 NROrb=    242 NOA=    58 NOB=    58 NVA=   184 NVB=   184
 Symmetrizing basis deriv contribution to polar:
 IMax=3 JMax=2 DiffMx= 0.00D+00
 G2DrvN: will do    31 centers at a time, making    1 passes.
 Calling FoFCou, ICntrl=  3107 FMM=F I1Cent=   0 AccDes= 0.00D+00.
 End of G2Drv F.D. properties file   721 does not exist.
 End of G2Drv F.D. properties file   722 does not exist.
 End of G2Drv F.D. properties file   788 does not exist.
          IDoAtm=111111111111111111111111111111
          Differentiating once with respect to nuclear coordinates.
          There are    93 degrees of freedom in the 1st order CPHF.  IDoFFX=6 NUNeed=     0.
     87 vectors produced by pass  0 Test12= 1.15D-14 1.08D-09 XBig12= 1.51D-01 7.24D-02.
 AX will form    87 AO Fock derivatives at one time.
     87 vectors produced by pass  1 Test12= 1.15D-14 1.08D-09 XBig12= 3.48D-02 3.32D-02.
     87 vectors produced by pass  2 Test12= 1.15D-14 1.08D-09 XBig12= 2.83D-04 1.89D-03.
     87 vectors produced by pass  3 Test12= 1.15D-14 1.08D-09 XBig12= 6.69D-07 1.05D-04.
     87 vectors produced by pass  4 Test12= 1.15D-14 1.08D-09 XBig12= 8.16D-10 3.15D-06.
     73 vectors produced by pass  5 Test12= 1.15D-14 1.08D-09 XBig12= 5.66D-13 6.80D-08.
      1 vectors produced by pass  6 Test12= 1.15D-14 1.08D-09 XBig12= 4.49D-16 2.07D-09.
 InvSVY:  IOpt=1 It=  1 EMax= 5.55D-16
 Solved reduced A of dimension   509 with    93 vectors.
 End of Minotr F.D. properties file   721 does not exist.
 End of Minotr F.D. properties file   722 does not exist.
 End of Minotr F.D. properties file   788 does not exist.

 **********************************************************************

            Population analysis using the SCF density.

 **********************************************************************

 Orbital symmetries:
       Occupied  (A) (A) (A) (A) (A) (A) (A) (A) (A) (A) (A) (A)
                 (A) (A) (A) (A) (A) (A) (A) (A) (A) (A) (A) (A)
                 (A) (A) (A) (A) (A) (A) (A) (A) (A) (A) (A) (A)
                 (A) (A) (A) (A) (A) (A) (A) (A) (A) (A) (A) (A)
                 (A) (A) (A) (A) (A) (A) (A) (A) (A) (A)
       Virtual   (A) (A) (A) (A) (A) (A) (A) (A) (A) (A) (A) (A)
                 (A) (A) (A) (A) (A) (A) (A) (A) (A) (A) (A) (A)
                 (A) (A) (A) (A) (A) (A) (A) (A) (A) (A) (A) (A)
                 (A) (A) (A) (A) (A) (A) (A) (A) (A) (A) (A) (A)
                 (A) (A) (A) (A) (A) (A) (A) (A) (A) (A) (A) (A)
                 (A) (A) (A) (A) (A) (A) (A) (A) (A) (A) (A) (A)
                 (A) (A) (A) (A) (A) (A) (A) (A) (A) (A) (A) (A)
                 (A) (A) (A) (A) (A) (A) (A) (A) (A) (A) (A) (A)
                 (A) (A) (A) (A) (A) (A) (A) (A) (A) (A) (A) (A)
                 (A) (A) (A) (A) (A) (A) (A) (A) (A) (A) (A) (A)
                 (A) (A) (A) (A) (A) (A) (A) (A) (A) (A) (A) (A)
                 (A) (A) (A) (A) (A) (A) (A) (A) (A) (A) (A) (A)
                 (A) (A) (A) (A) (A) (A) (A) (A) (A) (A) (A) (A)
                 (A) (A) (A) (A) (A) (A) (A) (A) (A) (A) (A) (A)
                 (A) (A) (A) (A) (A) (A) (A) (A) (A) (A) (A) (A)
                 (A) (A) (A) (A)
 The electronic state is 1-A.
 Alpha  occ. eigenvalues --  -19.17495 -19.16650 -19.15494 -19.14734 -19.14330
 Alpha  occ. eigenvalues --  -19.13165 -19.12782 -19.11571 -10.29698 -10.25230
 Alpha  occ. eigenvalues --  -10.24589 -10.24285 -10.23964 -10.23396  -1.06919
 Alpha  occ. eigenvalues --   -1.04188  -1.02747  -1.02157  -1.01164  -0.99782
 Alpha  occ. eigenvalues --   -0.99608  -0.97437  -0.76284  -0.75287  -0.68874
 Alpha  occ. eigenvalues --   -0.65137  -0.61716  -0.61074  -0.56162  -0.55014
 Alpha  occ. eigenvalues --   -0.53559  -0.52647  -0.51668  -0.50446  -0.49589
 Alpha  occ. eigenvalues --   -0.47198  -0.45759  -0.44940  -0.44082  -0.43220
 Alpha  occ. eigenvalues --   -0.42361  -0.40055  -0.39720  -0.38769  -0.37710
 Alpha  occ. eigenvalues --   -0.35650  -0.34699  -0.34242  -0.32920  -0.31285
 Alpha  occ. eigenvalues --   -0.31136  -0.30441  -0.29549  -0.28521  -0.27087
 Alpha  occ. eigenvalues --   -0.26017  -0.24689  -0.23559
 Alpha virt. eigenvalues --    0.02905   0.04349   0.04915   0.06719   0.08581
 Alpha virt. eigenvalues --    0.09635   0.11037   0.11298   0.12634   0.13724
 Alpha virt. eigenvalues --    0.15049   0.15793   0.16567   0.17587   0.18902
 Alpha virt. eigenvalues --    0.19458   0.21572   0.23379   0.24004   0.24635
 Alpha virt. eigenvalues --    0.25577   0.26023   0.28023   0.29740   0.30899
 Alpha virt. eigenvalues --    0.33882   0.35649   0.36432   0.52245   0.52925
 Alpha virt. eigenvalues --    0.54220   0.54919   0.56532   0.59108   0.59769
 Alpha virt. eigenvalues --    0.60082   0.60978   0.62744   0.64122   0.64576
 Alpha virt. eigenvalues --    0.66069   0.68168   0.68974   0.70684   0.71950
 Alpha virt. eigenvalues --    0.74260   0.77048   0.77555   0.78727   0.79686
 Alpha virt. eigenvalues --    0.80361   0.81075   0.82689   0.83107   0.83912
 Alpha virt. eigenvalues --    0.85325   0.86596   0.86737   0.87974   0.88354
 Alpha virt. eigenvalues --    0.89945   0.90907   0.91282   0.94311   0.95872
 Alpha virt. eigenvalues --    0.96616   0.97774   0.99563   1.02197   1.03007
 Alpha virt. eigenvalues --    1.03797   1.04761   1.06703   1.06996   1.09629
 Alpha virt. eigenvalues --    1.10985   1.13245   1.13824   1.17840   1.18519
 Alpha virt. eigenvalues --    1.20652   1.21980   1.23226   1.26124   1.28642
 Alpha virt. eigenvalues --    1.30593   1.31757   1.34491   1.37906   1.42266
 Alpha virt. eigenvalues --    1.44121   1.46021   1.48994   1.49781   1.50898
 Alpha virt. eigenvalues --    1.52317   1.56125   1.59615   1.60448   1.61398
 Alpha virt. eigenvalues --    1.63836   1.65024   1.65761   1.67485   1.70341
 Alpha virt. eigenvalues --    1.71086   1.72335   1.73173   1.74172   1.75392
 Alpha virt. eigenvalues --    1.76722   1.78303   1.79267   1.80805   1.82119
 Alpha virt. eigenvalues --    1.83585   1.84766   1.85308   1.87937   1.88729
 Alpha virt. eigenvalues --    1.89831   1.91690   1.93529   1.94561   1.98846
 Alpha virt. eigenvalues --    1.99094   2.01335   2.04015   2.04640   2.06454
 Alpha virt. eigenvalues --    2.06898   2.07969   2.12183   2.13103   2.13787
 Alpha virt. eigenvalues --    2.17839   2.18411   2.23040   2.25429   2.30828
 Alpha virt. eigenvalues --    2.31627   2.33920   2.34248   2.36965   2.38824
 Alpha virt. eigenvalues --    2.40732   2.44622   2.45623   2.47119   2.49028
 Alpha virt. eigenvalues --    2.54617   2.55013   2.56679   2.58945   2.62345
 Alpha virt. eigenvalues --    2.63337   2.64777   2.67561   2.73231   2.74560
 Alpha virt. eigenvalues --    2.77124   2.78310   2.80787   2.84473   2.87355
 Alpha virt. eigenvalues --    2.91199   2.94860   2.99333   3.06316   3.08707
 Alpha virt. eigenvalues --    3.73200   3.74342   3.76412   3.86450   3.87772
 Alpha virt. eigenvalues --    4.04812   4.12169   4.16311   4.29956   4.43756
 Alpha virt. eigenvalues --    4.48232   4.62342   4.76620   4.95849
          Condensed to atoms (all electrons):
               1          2          3          4          5          6
     1  C    4.637556   0.061086  -0.000014  -0.000649   0.008896  -0.000706
     2  O    0.061086   8.728775   0.005808  -0.000063  -0.000311   0.005344
     3  H   -0.000014   0.005808   0.355895  -0.000125   0.004268  -0.001390
     4  H   -0.000649  -0.000063  -0.000125   0.397742   0.215314  -0.009348
     5  O    0.008896  -0.000311   0.004268   0.215314   8.562442   0.133283
     6  H   -0.000706   0.005344  -0.001390  -0.009348   0.133283   0.287095
     7  O    0.002217  -0.112224   0.222569   0.005421  -0.116273   0.131560
     8  H   -0.000622   0.077150  -0.006498  -0.000210   0.000434  -0.011727
     9  C   -0.016128  -0.043279   0.000070   0.000002  -0.000001   0.000029
    10  C   -0.002119   0.140092  -0.000860   0.000003   0.000021  -0.000058
    11  H    0.000096   0.003946  -0.000010  -0.000000   0.000000  -0.000001
    12  H   -0.003336  -0.035097   0.000019   0.000000  -0.000002   0.000010
    13  O    0.000019   0.001999  -0.000000  -0.000000   0.000000  -0.000000
    14  H   -0.000203   0.000023   0.000000   0.000000  -0.000000   0.000000
    15  C    0.001316  -0.028998   0.000326   0.000001  -0.000011   0.000046
    16  O   -0.000080   0.001671   0.000485  -0.000000   0.000000  -0.000005
    17  H   -0.000045  -0.006324   0.002427  -0.000002   0.000041  -0.000090
    18  H   -0.000025   0.003051   0.000044   0.000000   0.000000  -0.000000
    19  H   -0.000002  -0.000135  -0.000012   0.000000  -0.000000   0.000001
    20  H   -0.017711   0.004328  -0.000139  -0.006478   0.144019  -0.007584
    21  C    0.284055  -0.030983   0.000008   0.000175   0.000294   0.000075
    22  H   -0.040503   0.003087  -0.000001   0.000150  -0.000185  -0.000016
    23  C   -0.038105  -0.011886  -0.000099  -0.000059  -0.000123  -0.000104
    24  H    0.004079   0.000476   0.000003   0.000000  -0.000001   0.000001
    25  O   -0.032924   0.000712   0.000000   0.000000  -0.000000  -0.000000
    26  H    0.005367  -0.000120   0.000000   0.000000  -0.000000   0.000000
    27  O    0.004326  -0.020245   0.000994   0.000278  -0.000878   0.001225
    28  H    0.003587   0.029469  -0.001115   0.000410   0.009876  -0.000911
    29  O    0.391963  -0.083416   0.000050   0.006379  -0.131552   0.006296
    30  H    0.364512  -0.030835   0.000004   0.000015  -0.000311   0.000061
               7          8          9         10         11         12
     1  C    0.002217  -0.000622  -0.016128  -0.002119   0.000096  -0.003336
     2  O   -0.112224   0.077150  -0.043279   0.140092   0.003946  -0.035097
     3  H    0.222569  -0.006498   0.000070  -0.000860  -0.000010   0.000019
     4  H    0.005421  -0.000210   0.000002   0.000003  -0.000000   0.000000
     5  O   -0.116273   0.000434  -0.000001   0.000021   0.000000  -0.000002
     6  H    0.131560  -0.011727   0.000029  -0.000058  -0.000001   0.000010
     7  O    8.560757   0.124157  -0.000147   0.004643  -0.000002  -0.000199
     8  H    0.124157   0.353539  -0.002254  -0.003809   0.000165   0.001411
     9  C   -0.000147  -0.002254   5.042402   0.235296   0.370028  -0.049529
    10  C    0.004643  -0.003809   0.235296   5.086283  -0.059700   0.357846
    11  H   -0.000002   0.000165   0.370028  -0.059700   0.605120   0.004732
    12  H   -0.000199   0.001411  -0.049529   0.357846   0.004732   0.596621
    13  O   -0.000000   0.000068   0.211924  -0.042679  -0.041500   0.005101
    14  H   -0.000000   0.000001  -0.029461  -0.002010   0.005845   0.002486
    15  C   -0.002052  -0.002535  -0.020573   0.311028  -0.002692  -0.038062
    16  O   -0.000074   0.000311   0.003241  -0.041542   0.000077  -0.001428
    17  H    0.005209   0.003956  -0.001325  -0.035606   0.001410   0.004151
    18  H    0.000046   0.000085   0.004314  -0.050969   0.003229   0.000871
    19  H   -0.000005   0.000023  -0.000239  -0.002666   0.000014   0.004719
    20  H    0.004908  -0.001888   0.000004  -0.000124  -0.000001  -0.000008
    21  C   -0.000175   0.001301  -0.022338  -0.016344   0.005275  -0.000102
    22  H    0.000031  -0.000427   0.004883  -0.000091  -0.000131   0.000011
    23  C    0.001115   0.001772   0.314401  -0.032178  -0.039117   0.000865
    24  H   -0.000043   0.000058  -0.047652   0.005330  -0.005128  -0.000157
    25  O   -0.000000  -0.000038  -0.000089   0.000456  -0.000206  -0.000113
    26  H   -0.000000   0.000003  -0.000396   0.000014   0.000009  -0.000004
    27  O   -0.018774   0.003865  -0.040374   0.003457   0.002995  -0.000175
    28  H    0.018407  -0.009041  -0.004639   0.001587  -0.000062   0.000293
    29  O   -0.002506   0.005899   0.000325   0.002520   0.000003   0.000258
    30  H   -0.000086   0.000848   0.000305  -0.002545   0.000027   0.008869
              13         14         15         16         17         18
     1  C    0.000019  -0.000203   0.001316  -0.000080  -0.000045  -0.000025
     2  O    0.001999   0.000023  -0.028998   0.001671  -0.006324   0.003051
     3  H   -0.000000   0.000000   0.000326   0.000485   0.002427   0.000044
     4  H   -0.000000   0.000000   0.000001  -0.000000  -0.000002   0.000000
     5  O    0.000000  -0.000000  -0.000011   0.000000   0.000041   0.000000
     6  H   -0.000000   0.000000   0.000046  -0.000005  -0.000090  -0.000000
     7  O   -0.000000  -0.000000  -0.002052  -0.000074   0.005209   0.000046
     8  H    0.000068   0.000001  -0.002535   0.000311   0.003956   0.000085
     9  C    0.211924  -0.029461  -0.020573   0.003241  -0.001325   0.004314
    10  C   -0.042679  -0.002010   0.311028  -0.041542  -0.035606  -0.050969
    11  H   -0.041500   0.005845  -0.002692   0.000077   0.001410   0.003229
    12  H    0.005101   0.002486  -0.038062  -0.001428   0.004151   0.000871
    13  O    8.335833   0.227478   0.002152  -0.000028  -0.000026   0.000621
    14  H    0.227478   0.361369  -0.000037   0.000001   0.000001  -0.000003
    15  C    0.002152  -0.000037   4.922355   0.233490   0.363626   0.359121
    16  O   -0.000028   0.000001   0.233490   8.267029  -0.041454  -0.030079
    17  H   -0.000026   0.000001   0.363626  -0.041454   0.581891  -0.033388
    18  H    0.000621  -0.000003   0.359121  -0.030079  -0.033388   0.603252
    19  H   -0.000001  -0.000000  -0.026781   0.233299   0.006853  -0.007270
    20  H   -0.000000   0.000000   0.000018  -0.000000  -0.000006  -0.000000
    21  C    0.002285  -0.002246   0.000177  -0.000004   0.000010   0.000010
    22  H   -0.000185   0.000406   0.000013  -0.000000   0.000000  -0.000000
    23  C   -0.028523  -0.010616   0.001134  -0.000047  -0.000331   0.000212
    24  H    0.004600  -0.000094  -0.000090   0.000000  -0.000000  -0.000004
    25  O   -0.014007   0.040455   0.000004  -0.000000  -0.000000  -0.000000
    26  H    0.000898  -0.001493  -0.000001   0.000000  -0.000000   0.000000
    27  O    0.001811   0.000056  -0.000637   0.000001   0.000075  -0.000020
    28  H   -0.000096   0.000029  -0.000618  -0.000004   0.000269  -0.000020
    29  O    0.000000   0.000005  -0.000173   0.000001  -0.000014   0.000001
    30  H    0.000227   0.000517  -0.000089  -0.000014   0.000000   0.000007
              19         20         21         22         23         24
     1  C   -0.000002  -0.017711   0.284055  -0.040503  -0.038105   0.004079
     2  O   -0.000135   0.004328  -0.030983   0.003087  -0.011886   0.000476
     3  H   -0.000012  -0.000139   0.000008  -0.000001  -0.000099   0.000003
     4  H    0.000000  -0.006478   0.000175   0.000150  -0.000059   0.000000
     5  O   -0.000000   0.144019   0.000294  -0.000185  -0.000123  -0.000001
     6  H    0.000001  -0.007584   0.000075  -0.000016  -0.000104   0.000001
     7  O   -0.000005   0.004908  -0.000175   0.000031   0.001115  -0.000043
     8  H    0.000023  -0.001888   0.001301  -0.000427   0.001772   0.000058
     9  C   -0.000239   0.000004  -0.022338   0.004883   0.314401  -0.047652
    10  C   -0.002666  -0.000124  -0.016344  -0.000091  -0.032178   0.005330
    11  H    0.000014  -0.000001   0.005275  -0.000131  -0.039117  -0.005128
    12  H    0.004719  -0.000008  -0.000102   0.000011   0.000865  -0.000157
    13  O   -0.000001  -0.000000   0.002285  -0.000185  -0.028523   0.004600
    14  H   -0.000000   0.000000  -0.002246   0.000406  -0.010616  -0.000094
    15  C   -0.026781   0.000018   0.000177   0.000013   0.001134  -0.000090
    16  O    0.233299  -0.000000  -0.000004  -0.000000  -0.000047   0.000000
    17  H    0.006853  -0.000006   0.000010   0.000000  -0.000331  -0.000000
    18  H   -0.007270  -0.000000   0.000010  -0.000000   0.000212  -0.000004
    19  H    0.401150   0.000000   0.000001  -0.000000  -0.000005  -0.000000
    20  H    0.000000   0.313344  -0.003267   0.001939   0.000210  -0.000009
    21  C    0.000001  -0.003267   5.224796   0.351210   0.294872  -0.043627
    22  H   -0.000000   0.001939   0.351210   0.605087  -0.042458  -0.005137
    23  C   -0.000005   0.000210   0.294872  -0.042458   4.940692   0.364295
    24  H   -0.000000  -0.000009  -0.043627  -0.005137   0.364295   0.615583
    25  O   -0.000000   0.000002   0.125893  -0.022913  -0.036353   0.002287
    26  H    0.000000  -0.000006  -0.012583  -0.010230   0.000946   0.001714
    27  O   -0.000000   0.000305  -0.038446   0.003581   0.219515  -0.037619
    28  H   -0.000000   0.000458  -0.013061   0.001160  -0.035407   0.005731
    29  O    0.000000   0.105180  -0.044734   0.002115   0.000522  -0.000098
    30  H   -0.000007   0.001805  -0.083436   0.003949   0.002522  -0.000246
              25         26         27         28         29         30
     1  C   -0.032924   0.005367   0.004326   0.003587   0.391963   0.364512
     2  O    0.000712  -0.000120  -0.020245   0.029469  -0.083416  -0.030835
     3  H    0.000000   0.000000   0.000994  -0.001115   0.000050   0.000004
     4  H    0.000000   0.000000   0.000278   0.000410   0.006379   0.000015
     5  O   -0.000000  -0.000000  -0.000878   0.009876  -0.131552  -0.000311
     6  H   -0.000000   0.000000   0.001225  -0.000911   0.006296   0.000061
     7  O   -0.000000  -0.000000  -0.018774   0.018407  -0.002506  -0.000086
     8  H   -0.000038   0.000003   0.003865  -0.009041   0.005899   0.000848
     9  C   -0.000089  -0.000396  -0.040374  -0.004639   0.000325   0.000305
    10  C    0.000456   0.000014   0.003457   0.001587   0.002520  -0.002545
    11  H   -0.000206   0.000009   0.002995  -0.000062   0.000003   0.000027
    12  H   -0.000113  -0.000004  -0.000175   0.000293   0.000258   0.008869
    13  O   -0.014007   0.000898   0.001811  -0.000096   0.000000   0.000227
    14  H    0.040455  -0.001493   0.000056   0.000029   0.000005   0.000517
    15  C    0.000004  -0.000001  -0.000637  -0.000618  -0.000173  -0.000089
    16  O   -0.000000   0.000000   0.000001  -0.000004   0.000001  -0.000014
    17  H   -0.000000  -0.000000   0.000075   0.000269  -0.000014   0.000000
    18  H   -0.000000   0.000000  -0.000020  -0.000020   0.000001   0.000007
    19  H   -0.000000   0.000000  -0.000000  -0.000000   0.000000  -0.000007
    20  H    0.000002  -0.000006   0.000305   0.000458   0.105180   0.001805
    21  C    0.125893  -0.012583  -0.038446  -0.013061  -0.044734  -0.083436
    22  H   -0.022913  -0.010230   0.003581   0.001160   0.002115   0.003949
    23  C   -0.036353   0.000946   0.219515  -0.035407   0.000522   0.002522
    24  H    0.002287   0.001714  -0.037619   0.005731  -0.000098  -0.000246
    25  O    8.340587   0.229991   0.001885   0.000186   0.001374   0.009561
    26  H    0.229991   0.378992  -0.000058  -0.000013  -0.000198  -0.000444
    27  O    0.001885  -0.000058   8.382386   0.192178  -0.000529  -0.000001
    28  H    0.000186  -0.000013   0.192178   0.405712   0.002061   0.000218
    29  O    0.001374  -0.000198  -0.000529   0.002061   8.366821  -0.033565
    30  H    0.009561  -0.000444  -0.000001   0.000218  -0.033565   0.604388
 Mulliken charges:
               1
     1  C    0.384097
     2  O   -0.663101
     3  H    0.417291
     4  H    0.391044
     5  O   -0.829241
     6  H    0.466914
     7  O   -0.828479
     8  H    0.464001
     9  C    0.091201
    10  C    0.144724
    11  H    0.145579
    12  H    0.139948
    13  O   -0.667970
    14  H    0.407491
    15  C   -0.071459
    16  O   -0.624849
    17  H    0.148692
    18  H    0.146912
    19  H    0.391064
    20  H    0.460703
    21  C    0.020908
    22  H    0.144656
    23  C    0.132336
    24  H    0.135746
    25  O   -0.646750
    26  H    0.407612
    27  O   -0.661180
    28  H    0.393356
    29  O   -0.594990
    30  H    0.153742
 Sum of Mulliken charges =  -0.00000
 Mulliken charges with hydrogens summed into heavy atoms:
               1
     1  C    0.537839
     2  O   -0.199099
     5  O    0.489421
     7  O   -0.411189
     9  C    0.236780
    10  C    0.284672
    13  O   -0.260479
    15  C    0.224145
    16  O   -0.233785
    21  C    0.165564
    23  C    0.268083
    25  O   -0.239138
    27  O   -0.267824
    29  O   -0.594990
 APT charges:
               1
     1  C   -0.282182
     2  O   -0.347960
     3  H    0.687618
     4  H    0.670381
     5  O   -1.175421
     6  H    0.408412
     7  O   -1.101527
     8  H    0.448783
     9  C   -0.361655
    10  C   -0.177242
    11  H    0.498610
    12  H    0.380559
    13  O   -0.707559
    14  H    0.525390
    15  C   -0.734142
    16  O   -0.900133
    17  H    0.326409
    18  H    0.558226
    19  H    0.774190
    20  H    0.499126
    21  C   -0.281158
    22  H    0.478041
    23  C   -0.411110
    24  H    0.559044
    25  O   -1.121143
    26  H    0.899290
    27  O   -0.527155
    28  H    0.317194
    29  O   -0.305850
    30  H    0.402966
 Sum of APT charges =  -0.00000
 APT charges with hydrogens summed into heavy atoms:
               1
     1  C    0.120784
     2  O    0.100824
     5  O    0.402498
     7  O   -0.413909
     9  C    0.136955
    10  C    0.203317
    13  O   -0.182169
    15  C    0.150493
    16  O   -0.125943
    21  C    0.196882
    23  C    0.147934
    25  O   -0.221853
    27  O   -0.209961
    29  O   -0.305850
 Electronic spatial extent (au):  <R**2>=           2813.6372
 Charge=              0.0000 electrons
 Dipole moment (field-independent basis, Debye):
    X=             -0.4695    Y=             -1.5013    Z=             -0.0152  Tot=              1.5731
 Quadrupole moment (field-independent basis, Debye-Ang):
   XX=            -85.4429   YY=            -69.7582   ZZ=            -90.9217
   XY=             -4.2897   XZ=              8.3811   YZ=              0.5770
 Traceless Quadrupole moment (field-independent basis, Debye-Ang):
   XX=             -3.4020   YY=             12.2827   ZZ=             -8.8807
   XY=             -4.2897   XZ=              8.3811   YZ=              0.5770
 Octapole moment (field-independent basis, Debye-Ang**2):
  XXX=             43.7925  YYY=            -49.7258  ZZZ=            -21.1095  XYY=             -4.7604
  XXY=              9.5046  XXZ=              7.7016  XZZ=            -14.7295  YZZ=              9.1399
  YYZ=              6.3643  XYZ=              4.2961
 Hexadecapole moment (field-independent basis, Debye-Ang**3):
 XXXX=          -1474.9068 YYYY=          -1184.9384 ZZZZ=           -566.8670 XXXY=            -76.8357
 XXXZ=            117.0308 YYYX=             60.9271 YYYZ=             14.9205 ZZZX=             14.9090
 ZZZY=            -19.0907 XXYY=           -370.6298 XXZZ=           -316.0561 YYZZ=           -310.0486
 XXYZ=            -19.2880 YYXZ=             30.8428 ZZXY=            -14.8993
 N-N= 1.146300249004D+03 E-N=-4.265496843904D+03  KE= 8.329421422341D+02
  Exact polarizability:   0.000   0.000   0.000   0.000   0.000   0.000
 Approx polarizability: 148.212   0.599 137.050   7.727   7.097 127.616
 Calling FoFJK, ICntrl=    100147 FMM=F ISym2X=0 I1Cent= 0 IOpClX= 0 NMat=1 NMatS=1 NMatT=0.
