 Entering Gaussian System, Link 0=g09
 Initial command:
 /global/software/gaussian/g09.e01/l1.exe "/scratch/10446901.yak.local/Gau-983.inp" -scrdir="/scratch/10446901.yak.local/"
 Entering Link 1 = /global/software/gaussian/g09.e01/l1.exe PID=       984.
  
 Copyright (c) 1988,1990,1992,1993,1995,1998,2003,2009,2015,
            Gaussian, Inc.  All Rights Reserved.
  
 This is part of the Gaussian(R) 09 program.  It is based on
 the Gaussian(R) 03 system (copyright 2003, Gaussian, Inc.),
 the Gaussian(R) 98 system (copyright 1998, Gaussian, Inc.),
 the Gaussian(R) 94 system (copyright 1995, Gaussian, Inc.),
 the Gaussian 92(TM) system (copyright 1992, Gaussian, Inc.),
 the Gaussian 90(TM) system (copyright 1990, Gaussian, Inc.),
 the Gaussian 88(TM) system (copyright 1988, Gaussian, Inc.),
 the Gaussian 86(TM) system (copyright 1986, Carnegie Mellon
 University), and the Gaussian 82(TM) system (copyright 1983,
 Carnegie Mellon University). Gaussian is a federally registered
 trademark of Gaussian, Inc.
  
 This software contains proprietary and confidential information,
 including trade secrets, belonging to Gaussian, Inc.
  
 This software is provided under written license and may be
 used, copied, transmitted, or stored only in accord with that
 written license.
  
 The following legend is applicable only to US Government
 contracts under FAR:
  
                    RESTRICTED RIGHTS LEGEND
  
 Use, reproduction and disclosure by the US Government is
 subject to restrictions as set forth in subparagraphs (a)
 and (c) of the Commercial Computer Software - Restricted
 Rights clause in FAR 52.227-19.
  
 Gaussian, Inc.
 340 Quinnipiac St., Bldg. 40, Wallingford CT 06492
  
  
 ---------------------------------------------------------------
 Warning -- This program may not be used in any manner that
 competes with the business of Gaussian, Inc. or will provide
 assistance to any competitor of Gaussian, Inc.  The licensee
 of this program is prohibited from giving any competitor of
 Gaussian, Inc. access to this program.  By using this program,
 the user acknowledges that Gaussian, Inc. is engaged in the
 business of creating and licensing software in the field of
 computational chemistry and represents and warrants to the
 licensee that it is not a competitor of Gaussian, Inc. and that
 it will not use this program in any manner prohibited above.
 ---------------------------------------------------------------
  

 Cite this work as:
 Gaussian 09, Revision E.01,
 M. J. Frisch, G. W. Trucks, H. B. Schlegel, G. E. Scuseria, 
 M. A. Robb, J. R. Cheeseman, G. Scalmani, V. Barone, B. Mennucci, 
 G. A. Petersson, H. Nakatsuji, M. Caricato, X. Li, H. P. Hratchian, 
 A. F. Izmaylov, J. Bloino, G. Zheng, J. L. Sonnenberg, M. Hada, 
 M. Ehara, K. Toyota, R. Fukuda, J. Hasegawa, M. Ishida, T. Nakajima, 
 Y. Honda, O. Kitao, H. Nakai, T. Vreven, J. A. Montgomery, Jr., 
 J. E. Peralta, F. Ogliaro, M. Bearpark, J. J. Heyd, E. Brothers, 
 K. N. Kudin, V. N. Staroverov, T. Keith, R. Kobayashi, J. Normand, 
 K. Raghavachari, A. Rendell, J. C. Burant, S. S. Iyengar, J. Tomasi, 
 M. Cossi, N. Rega, J. M. Millam, M. Klene, J. E. Knox, J. B. Cross, 
 V. Bakken, C. Adamo, J. Jaramillo, R. Gomperts, R. E. Stratmann, 
 O. Yazyev, A. J. Austin, R. Cammi, C. Pomelli, J. W. Ochterski, 
 R. L. Martin, K. Morokuma, V. G. Zakrzewski, G. A. Voth, 
 P. Salvador, J. J. Dannenberg, S. Dapprich, A. D. Daniels, 
 O. Farkas, J. B. Foresman, J. V. Ortiz, J. Cioslowski, 
 and D. J. Fox, Gaussian, Inc., Wallingford CT, 2013.
 
 ******************************************
 Gaussian 09:  ES64L-G09RevE.01 30-Nov-2015
                 7-Jan-2017 
 ******************************************
 ----------------------------------------------------------------------
 # opt=(TS,CalcFC,NoEigenTest,MaxCycle=500,cartesian) Freq B3LYP 6-31G(
 d)
 ----------------------------------------------------------------------
 1/5=1,6=500,10=4,11=1,14=-1,18=10,26=3,38=1/1,3;
 2/12=2,17=6,18=5,29=2,40=1/2;
 3/5=1,6=6,7=1,11=2,16=1,25=1,30=1,71=2,74=-5,140=1/1,2,3;
 4//1;
 5/5=2,38=5/2;
 8/6=4,10=90,11=11/1;
 11/6=1,8=1,9=11,15=111,16=1/1,2,10;
 10/6=1,13=1/2;
 6/7=2,8=2,9=2,10=2,28=1/1;
 7/7=1,10=1,18=20,25=1/1,2,3,16;
 1/5=1,6=500,10=4,11=1,14=-1,18=10,26=3/3(2);
 2/29=1/2;
 99/12=1/99;
 2/29=1/2;
 3/5=1,6=6,7=1,11=2,16=1,25=1,30=1,71=1,74=-5/1,2,3;
 4/5=5,16=3,69=1/1;
 5/5=2,38=5/2;
 7/7=1/1,2,3,16;
 1/5=1,6=500,11=1,14=-1,18=10,26=3/3(-5);
 2/29=1/2;
 6/7=2,8=2,9=2,10=2,19=2,28=1/1;
 99/9=1,12=1/99;
 -----------------------------
 glo_1w_beta_boat__B3LYP_631Gd
 -----------------------------
 Symbolic Z-matrix:
 Charge =  0 Multiplicity = 1
 C                     1.60421  -0.38219  -1.2169 
 O                     0.84201   1.06477  -0.88687 
 H                     3.19894   1.79445   0.52462 
 O                     2.74862  -0.1205   -0.70865 
 H                     2.60506   0.3158    0.76353 
 O                     2.42325   1.40797   0.99717 
 H                     1.56139   1.50261   0.11728 
 C                    -0.62949   0.22737   0.84324 
 C                    -0.53537   0.9449   -0.52237 
 C                    -1.1259    2.36238  -0.46772 
 O                    -2.52243   2.25028  -0.14336 
 O                    -1.99271  -0.18583   1.05441 
 H                     1.4809   -0.36145  -2.30977 
 H                    -2.58685   0.6233    1.0157 
 H                    -0.33372   0.90109   1.68002 
 H                    -1.02401   0.32904  -1.31946 
 H                    -0.98177   2.90075  -1.42009 
 H                    -0.71428   2.97263   0.35818 
 H                    -3.04518   2.0585   -0.9526 
 O                    -2.39952  -2.37042  -0.09181 
 H                    -2.41579  -1.46192  -0.43878 
 H                    -2.49482  -2.27027   0.86087 
 C                     0.20119  -1.07436   0.87888 
 H                    -0.41732  -1.90176   1.30348 
 C                     0.79412  -1.49179  -0.48728 
 H                     1.46652  -2.37251  -0.34384 
 O                     1.35772  -0.87413   1.70988 
 H                     1.09948  -0.70147   2.63954 
 O                    -0.26228  -1.82875  -1.3838 
 H                    -0.80849  -2.5938   -1.0216 
 

 GradGradGradGradGradGradGradGradGradGradGradGradGradGradGradGradGradGrad
 Berny optimization.
 Initialization pass.
 No Z-matrix variables, so optimization will use Cartesian coordinates.
 Trust Radius=3.00D-01 FncErr=1.00D-07 GrdErr=1.00D-06
 Number of steps in this run=    180 maximum allowed number of steps=    180.
 Search for a saddle point of order  1.
 GradGradGradGradGradGradGradGradGradGradGradGradGradGradGradGradGradGrad

 ---------------------------------------------------------------------------------------------------
                            Z-MATRIX (ANGSTROMS AND DEGREES)
   CD    Cent   Atom    N1       Length/X        N2       Alpha/Y        N3        Beta/Z          J
 ---------------------------------------------------------------------------------------------------
      1      1  C        0   1.604206         -0.382187         -1.216901
      2      2  O        0   0.842014          1.064768         -0.886868
      3      3  H        0   3.198943          1.794452          0.524623
      4      4  O        0   2.748623         -0.120497         -0.708645
      5      5  H        0   2.605063          0.315801          0.763534
      6      6  O        0   2.423254          1.407974          0.997173
      7      7  H        0   1.561392          1.502606          0.117281
      8      8  C        0  -0.629489          0.227368          0.843235
      9      9  C        0  -0.535374          0.944896         -0.522366
     10     10  C        0  -1.125898          2.362381         -0.467719
     11     11  O        0  -2.522430          2.250280         -0.143359
     12     12  O        0  -1.992709         -0.185830          1.054410
     13     13  H        0   1.480902         -0.361454         -2.309771
     14     14  H        0  -2.586847          0.623303          1.015697
     15     15  H        0  -0.333720          0.901086          1.680015
     16     16  H        0  -1.024005          0.329042         -1.319455
     17     17  H        0  -0.981770          2.900749         -1.420093
     18     18  H        0  -0.714280          2.972631          0.358181
     19     19  H        0  -3.045181          2.058502         -0.952602
     20     20  O        0  -2.399520         -2.370422         -0.091810
     21     21  H        0  -2.415791         -1.461915         -0.438780
     22     22  H        0  -2.494823         -2.270272          0.860873
     23     23  C        0   0.201193         -1.074362          0.878880
     24     24  H        0  -0.417316         -1.901756          1.303478
     25     25  C        0   0.794117         -1.491790         -0.487279
     26     26  H        0   1.466516         -2.372508         -0.343835
     27     27  O        0   1.357715         -0.874129          1.709878
     28     28  H        0   1.099481         -0.701470          2.639538
     29     29  O        0  -0.262275         -1.828746         -1.383802
     30     30  H        0  -0.808487         -2.593799         -1.021603
 ---------------------------------------------------------------------------------------------------
                         Z-Matrix orientation:                         
 ---------------------------------------------------------------------
 Center     Atomic      Atomic             Coordinates (Angstroms)
 Number     Number       Type             X           Y           Z
 ---------------------------------------------------------------------
      1          6           0        1.604206   -0.382187   -1.216901
      2          8           0        0.842014    1.064768   -0.886868
      3          1           0        3.198943    1.794452    0.524623
      4          8           0        2.748623   -0.120497   -0.708645
      5          1           0        2.605063    0.315801    0.763534
      6          8           0        2.423254    1.407974    0.997173
      7          1           0        1.561392    1.502606    0.117281
      8          6           0       -0.629489    0.227368    0.843235
      9          6           0       -0.535374    0.944896   -0.522366
     10          6           0       -1.125898    2.362381   -0.467719
     11          8           0       -2.522430    2.250280   -0.143359
     12          8           0       -1.992709   -0.185830    1.054410
     13          1           0        1.480902   -0.361454   -2.309771
     14          1           0       -2.586847    0.623303    1.015697
     15          1           0       -0.333720    0.901086    1.680015
     16          1           0       -1.024005    0.329042   -1.319455
     17          1           0       -0.981770    2.900749   -1.420093
     18          1           0       -0.714280    2.972631    0.358181
     19          1           0       -3.045181    2.058502   -0.952602
     20          8           0       -2.399520   -2.370422   -0.091810
     21          1           0       -2.415791   -1.461915   -0.438780
     22          1           0       -2.494823   -2.270272    0.860873
     23          6           0        0.201193   -1.074362    0.878880
     24          1           0       -0.417316   -1.901756    1.303478
     25          6           0        0.794117   -1.491790   -0.487279
     26          1           0        1.466516   -2.372508   -0.343835
     27          8           0        1.357715   -0.874129    1.709878
     28          1           0        1.099481   -0.701470    2.639538
     29          8           0       -0.262275   -1.828746   -1.383802
     30          1           0       -0.808487   -2.593799   -1.021603
 ---------------------------------------------------------------------
                    Distance matrix (angstroms):
                    1          2          3          4          5
     1  C    0.000000
     2  O    1.668394   0.000000
     3  H    3.211518   2.842509   0.000000
     4  O    1.279256   2.252060   2.321803   0.000000
     5  H    2.326161   2.528462   1.611267   1.542166   0.000000
     6  O    2.962708   2.483490   0.987098   2.313418   1.131585
     7  H    2.309615   1.310543   1.712505   2.173967   1.707454
     8  C    3.099211   2.420706   4.148995   3.733762   3.236742
     9  C    2.611768   1.429835   3.970271   3.457513   3.451325
    10  C    3.943019   2.394194   4.473425   4.608106   4.429960
    11  O    5.011138   3.643862   5.778243   5.807248   5.554804
    12  O    4.258545   3.656256   5.581706   5.058939   4.634194
    13  H    1.099999   2.113514   3.953908   2.056400   3.341798
    14  H    4.853909   3.946103   5.923522   5.656309   5.207118
    15  H    3.714091   2.828079   3.822662   4.031150   3.133519
    16  H    2.724676   2.051938   4.835426   3.848103   4.184394
    17  H    4.184044   2.642223   4.741748   4.852826   4.931080
    18  H    4.371620   2.759011   4.090125   4.764164   4.270959
    19  H    5.257720   4.012744   6.421916   6.194814   6.156897
    20  O    4.609634   4.789592   7.004923   5.652081   5.743976
    21  H    4.234579   4.147072   6.561807   5.342602   5.460294
    22  H    4.968304   5.031061   7.003857   5.880361   5.718923
    23  C    2.615311   2.846822   4.164384   3.149523   2.779289
    24  H    3.570427   3.896639   5.229331   4.152673   3.787331
    25  C    1.555574   2.588041   4.196012   2.397820   2.848060
    26  H    2.177747   3.535499   4.595550   2.616952   3.122429
    27  O    2.978053   3.281518   3.451996   2.889955   1.966565
    28  H    3.902411   3.952395   3.887188   3.777238   2.611706
    29  O    2.367307   3.136689   5.361873   3.526962   4.175136
    30  H    3.278789   4.015896   6.140607   4.343754   4.827506
                    6          7          8          9         10
     6  O    0.000000
     7  H    1.235302   0.000000
     8  C    3.276701   2.636892   0.000000
     9  C    3.358113   2.261994   1.545500   0.000000
    10  C    3.956423   2.881487   2.554076   1.536544   0.000000
    11  O    5.144908   4.159874   2.940878   2.407502   1.438081
    12  O    4.695127   4.044831   1.440033   2.426642   3.092186
    13  H    3.867141   3.061336   3.839519   2.994451   4.196170
    14  H    5.071209   4.334537   2.004435   2.584106   2.712801
    15  H    2.885154   2.528915   1.114260   2.212028   2.715822
    16  H    4.291207   3.182097   2.200729   1.119548   2.206876
    17  H    4.434607   3.284204   3.520472   2.197850   1.103462
    18  H    3.563788   2.719869   2.789074   2.217900   1.106321
    19  H    5.841968   4.761742   3.523301   2.779272   2.002773
    20  O    6.222645   5.543725   3.279608   3.827761   4.915572
    21  H    5.806426   4.991550   2.772745   3.055437   4.036075
    22  H    6.142927   5.589313   3.117369   4.011246   5.010049
    23  C    3.333698   3.011800   1.544605   2.565818   3.922461
    24  H    4.372296   4.112424   2.188609   3.383943   4.671412
    25  C    3.642295   3.149700   2.598543   2.776007   4.305981
    26  H    4.123796   3.903606   3.544253   3.878738   5.399549
    27  O    2.617502   2.868226   2.431737   3.446092   4.624420
    28  H    2.983202   3.381286   2.660598   3.921850   4.898422
    29  O    4.832956   4.083738   3.053219   2.917147   4.376140
    30  H    5.525739   4.867640   3.386539   3.584158   4.997125
                   11         12         13         14         15
    11  O    0.000000
    12  O    2.765843   0.000000
    13  H    5.247967   4.838856   0.000000
    14  H    1.998653   1.004587   5.345565   0.000000
    15  H    3.152058   2.079666   4.561278   2.365389   0.000000
    16  H    2.705482   2.615094   2.780660   2.825243   3.130583
    17  H    2.103995   4.083152   4.183091   3.700825   3.745569
    18  H    2.010657   3.477785   4.801345   3.075415   2.486638
    19  H    0.982304   3.189486   5.308816   2.478723   3.952506
    20  O    4.622624   2.500352   4.900304   3.197507   4.255544
    21  H    3.725458   2.009231   4.460475   2.548116   3.795798
    22  H    4.630835   2.152783   5.431663   2.899175   3.924140
    23  C    4.417730   2.373501   3.509044   3.267102   2.197804
    24  H    4.874858   2.342712   4.362491   3.341498   2.829256
    25  C    5.012071   3.442199   2.251846   4.261863   3.419800
    26  H    6.109177   4.324683   2.812374   5.220437   4.248910
    27  O    5.315256   3.482633   4.054083   4.275951   2.452189
    28  H    5.438344   3.512856   4.975616   4.240389   2.354344
    29  O    4.825500   3.411518   2.459478   4.144125   4.104152
    30  H    5.212870   3.392717   3.447324   4.202725   4.442788
                   16         17         18         19         20
    16  H    0.000000
    17  H    2.574022   0.000000
    18  H    3.146260   1.799716   0.000000
    19  H    2.685287   2.277190   2.826107   0.000000
    20  O    3.268984   5.617793   5.620564   4.557764   0.000000
    21  H    2.433143   4.695980   4.816169   3.612960   0.972645
    22  H    3.697779   5.850777   5.559772   4.725449   0.962662
    23  C    2.881550   4.741960   4.181790   4.869097   3.063612
    24  H    3.496328   5.549820   4.974075   5.261104   2.468929
    25  C    2.704351   4.828904   4.787601   5.249886   3.335822
    26  H    3.801697   5.912671   5.815428   6.352941   3.874243
    27  O    4.036963   5.433195   4.573599   5.922383   4.427391
    28  H    4.609205   5.812761   4.689705   6.139962   4.742222
    29  O    2.289197   4.784048   5.127576   4.800125   2.555479
    30  H    2.945872   5.511704   5.735662   5.162506   1.856286
                   21         22         23         24         25
    21  H    0.000000
    22  H    1.532575   0.000000
    23  C    2.955508   2.949411   0.000000
    24  H    2.687531   2.155861   1.116879   0.000000
    25  C    3.210413   3.638774   1.546672   2.200557   0.000000
    26  H    3.988797   4.141736   2.186609   2.546384   1.117301
    27  O    4.381960   4.184743   1.438122   2.090912   2.350882
    28  H    4.734074   4.306252   2.011439   2.350833   3.239574
    29  O    2.380181   3.196526   2.429738   2.692739   1.425923
    30  H    2.050432   2.547963   2.634384   2.457222   2.016994
                   26         27         28         29         30
    26  H    0.000000
    27  O    2.544546   0.000000
    28  H    3.439127   0.980186   0.000000
    29  O    2.089480   3.620292   4.394587   0.000000
    30  H    2.384109   3.887246   4.541498   1.007394   0.000000
 Stoichiometry    C6H16O8
 Framework group  C1[X(C6H16O8)]
 Deg. of freedom    84
 Full point group                 C1      NOp   1
 Largest Abelian subgroup         C1      NOp   1
 Largest concise Abelian subgroup C1      NOp   1
                         Standard orientation:                         
 ---------------------------------------------------------------------
 Center     Atomic      Atomic             Coordinates (Angstroms)
 Number     Number       Type             X           Y           Z
 ---------------------------------------------------------------------
      1          6           0        1.604206   -0.382188   -1.216901
      2          8           0        0.842014    1.064768   -0.886868
      3          1           0        3.198944    1.794451    0.524623
      4          8           0        2.748623   -0.120498   -0.708645
      5          1           0        2.605063    0.315800    0.763534
      6          8           0        2.423255    1.407973    0.997173
      7          1           0        1.561393    1.502605    0.117281
      8          6           0       -0.629489    0.227368    0.843235
      9          6           0       -0.535374    0.944896   -0.522366
     10          6           0       -1.125897    2.362381   -0.467719
     11          8           0       -2.522429    2.250281   -0.143359
     12          8           0       -1.992709   -0.185830    1.054410
     13          1           0        1.480902   -0.361455   -2.309771
     14          1           0       -2.586847    0.623304    1.015697
     15          1           0       -0.333720    0.901086    1.680015
     16          1           0       -1.024005    0.329042   -1.319455
     17          1           0       -0.981769    2.900749   -1.420093
     18          1           0       -0.714279    2.972631    0.358181
     19          1           0       -3.045180    2.058503   -0.952602
     20          8           0       -2.399521   -2.370421   -0.091810
     21          1           0       -2.415791   -1.461914   -0.438780
     22          1           0       -2.494824   -2.270271    0.860873
     23          6           0        0.201193   -1.074362    0.878880
     24          1           0       -0.417316   -1.901756    1.303478
     25          6           0        0.794117   -1.491790   -0.487279
     26          1           0        1.466515   -2.372509   -0.343835
     27          8           0        1.357715   -0.874130    1.709878
     28          1           0        1.099481   -0.701471    2.639538
     29          8           0       -0.262275   -1.828746   -1.383802
     30          1           0       -0.808488   -2.593799   -1.021603
 ---------------------------------------------------------------------
 Rotational constants (GHZ):      0.7626284      0.6048220      0.4620161
 Standard basis: 6-31G(d) (6D, 7F)
 There are   242 symmetry adapted cartesian basis functions of A   symmetry.
 There are   242 symmetry adapted basis functions of A   symmetry.
   242 basis functions,   456 primitive gaussians,   242 cartesian basis functions
    58 alpha electrons       58 beta electrons
       nuclear repulsion energy      1154.9797851052 Hartrees.
 NAtoms=   30 NActive=   30 NUniq=   30 SFac= 1.00D+00 NAtFMM=   60 NAOKFM=F Big=F
 Integral buffers will be    131072 words long.
 Raffenetti 2 integral format.
 Two-electron integral symmetry is turned on.
 One-electron integrals computed using PRISM.
 NBasis=   242 RedAO= T EigKep=  1.37D-03  NBF=   242
 NBsUse=   242 1.00D-06 EigRej= -1.00D+00 NBFU=   242
 ExpMin= 1.61D-01 ExpMax= 5.48D+03 ExpMxC= 8.25D+02 IAcc=1 IRadAn=         1 AccDes= 0.00D+00
 Harris functional with IExCor=  402 and IRadAn=       1 diagonalized for initial guess.
 HarFok:  IExCor=  402 AccDes= 0.00D+00 IRadAn=         1 IDoV= 1 UseB2=F ITyADJ=14
 ICtDFT=  3500011 ScaDFX=  1.000000  1.000000  1.000000  1.000000
 FoFCou: FMM=F IPFlag=           0 FMFlag=      100000 FMFlg1=           0
         NFxFlg=           0 DoJE=T BraDBF=F KetDBF=T FulRan=T
         wScrn=  0.000000 ICntrl=     500 IOpCl=  0 I1Cent=   200000004 NGrid=           0
         NMat0=    1 NMatS0=      1 NMatT0=    0 NMatD0=    1 NMtDS0=    0 NMtDT0=    0
 Petite list used in FoFCou.
 Requested convergence on RMS density matrix=1.00D-08 within 128 cycles.
 Requested convergence on MAX density matrix=1.00D-06.
 Requested convergence on             energy=1.00D-06.
 No special actions if energy rises.
 Integral accuracy reduced to 1.0D-05 until final iterations.
 Initial convergence to 1.0D-05 achieved.  Increase integral accuracy.
 SCF Done:  E(RB3LYP) =  -839.899841168     A.U. after   14 cycles
            NFock= 14  Conv=0.88D-08     -V/T= 2.0087
 DoSCS=F DFT=T ScalE2(SS,OS)=  1.000000  1.000000
 Range of M.O.s used for correlation:     1   242
 NBasis=   242 NAE=    58 NBE=    58 NFC=     0 NFV=     0
 NROrb=    242 NOA=    58 NOB=    58 NVA=   184 NVB=   184
 Symmetrizing basis deriv contribution to polar:
 IMax=3 JMax=2 DiffMx= 0.00D+00
 G2DrvN: will do    31 centers at a time, making    1 passes.
 Calling FoFCou, ICntrl=  3107 FMM=F I1Cent=   0 AccDes= 0.00D+00.
 End of G2Drv F.D. properties file   721 does not exist.
 End of G2Drv F.D. properties file   722 does not exist.
 End of G2Drv F.D. properties file   788 does not exist.
          IDoAtm=111111111111111111111111111111
          Differentiating once with respect to nuclear coordinates.
          There are    93 degrees of freedom in the 1st order CPHF.  IDoFFX=6 NUNeed=     0.
     87 vectors produced by pass  0 Test12= 1.15D-14 1.08D-09 XBig12= 1.64D-01 7.60D-02.
 AX will form    87 AO Fock derivatives at one time.
     87 vectors produced by pass  1 Test12= 1.15D-14 1.08D-09 XBig12= 5.66D-02 6.32D-02.
     87 vectors produced by pass  2 Test12= 1.15D-14 1.08D-09 XBig12= 5.65D-04 4.09D-03.
     87 vectors produced by pass  3 Test12= 1.15D-14 1.08D-09 XBig12= 1.59D-06 1.20D-04.
     87 vectors produced by pass  4 Test12= 1.15D-14 1.08D-09 XBig12= 2.05D-09 3.54D-06.
     73 vectors produced by pass  5 Test12= 1.15D-14 1.08D-09 XBig12= 1.58D-12 1.07D-07.
      2 vectors produced by pass  6 Test12= 1.15D-14 1.08D-09 XBig12= 1.22D-15 2.92D-09.
 InvSVY:  IOpt=1 It=  1 EMax= 9.99D-16
 Solved reduced A of dimension   510 with    93 vectors.
 End of Minotr F.D. properties file   721 does not exist.
 End of Minotr F.D. properties file   722 does not exist.
 End of Minotr F.D. properties file   788 does not exist.

 **********************************************************************

            Population analysis using the SCF density.

 **********************************************************************

 Orbital symmetries:
       Occupied  (A) (A) (A) (A) (A) (A) (A) (A) (A) (A) (A) (A)
                 (A) (A) (A) (A) (A) (A) (A) (A) (A) (A) (A) (A)
                 (A) (A) (A) (A) (A) (A) (A) (A) (A) (A) (A) (A)
                 (A) (A) (A) (A) (A) (A) (A) (A) (A) (A) (A) (A)
                 (A) (A) (A) (A) (A) (A) (A) (A) (A) (A)
       Virtual   (A) (A) (A) (A) (A) (A) (A) (A) (A) (A) (A) (A)
                 (A) (A) (A) (A) (A) (A) (A) (A) (A) (A) (A) (A)
                 (A) (A) (A) (A) (A) (A) (A) (A) (A) (A) (A) (A)
                 (A) (A) (A) (A) (A) (A) (A) (A) (A) (A) (A) (A)
                 (A) (A) (A) (A) (A) (A) (A) (A) (A) (A) (A) (A)
                 (A) (A) (A) (A) (A) (A) (A) (A) (A) (A) (A) (A)
                 (A) (A) (A) (A) (A) (A) (A) (A) (A) (A) (A) (A)
                 (A) (A) (A) (A) (A) (A) (A) (A) (A) (A) (A) (A)
                 (A) (A) (A) (A) (A) (A) (A) (A) (A) (A) (A) (A)
                 (A) (A) (A) (A) (A) (A) (A) (A) (A) (A) (A) (A)
                 (A) (A) (A) (A) (A) (A) (A) (A) (A) (A) (A) (A)
                 (A) (A) (A) (A) (A) (A) (A) (A) (A) (A) (A) (A)
                 (A) (A) (A) (A) (A) (A) (A) (A) (A) (A) (A) (A)
                 (A) (A) (A) (A) (A) (A) (A) (A) (A) (A) (A) (A)
                 (A) (A) (A) (A) (A) (A) (A) (A) (A) (A) (A) (A)
                 (A) (A) (A) (A)
 The electronic state is 1-A.
 Alpha  occ. eigenvalues --  -19.18070 -19.17899 -19.15856 -19.15781 -19.15743
 Alpha  occ. eigenvalues --  -19.13040 -19.12718 -19.06334 -10.25923 -10.25476
 Alpha  occ. eigenvalues --  -10.25072 -10.24754 -10.24502 -10.22984  -1.05604
 Alpha  occ. eigenvalues --   -1.04388  -1.03012  -1.01947  -1.01033  -1.00072
 Alpha  occ. eigenvalues --   -0.98443  -0.95345  -0.77044  -0.74305  -0.68635
 Alpha  occ. eigenvalues --   -0.64013  -0.61364  -0.57096  -0.54765  -0.52858
 Alpha  occ. eigenvalues --   -0.52753  -0.51778  -0.50685  -0.49686  -0.48471
 Alpha  occ. eigenvalues --   -0.47600  -0.46967  -0.45647  -0.43187  -0.41911
 Alpha  occ. eigenvalues --   -0.41748  -0.40620  -0.40221  -0.39098  -0.37277
 Alpha  occ. eigenvalues --   -0.36207  -0.35214  -0.34598  -0.33484  -0.32732
 Alpha  occ. eigenvalues --   -0.30326  -0.29903  -0.29348  -0.27947  -0.26269
 Alpha  occ. eigenvalues --   -0.25194  -0.22389  -0.21076
 Alpha virt. eigenvalues --    0.03124   0.05540   0.06709   0.07557   0.08198
 Alpha virt. eigenvalues --    0.09500   0.10645   0.11920   0.12662   0.13805
 Alpha virt. eigenvalues --    0.14830   0.16016   0.17029   0.17341   0.18439
 Alpha virt. eigenvalues --    0.19347   0.20000   0.21606   0.22760   0.23588
 Alpha virt. eigenvalues --    0.23961   0.24608   0.25197   0.26536   0.29705
 Alpha virt. eigenvalues --    0.32705   0.33735   0.35990   0.51740   0.52068
 Alpha virt. eigenvalues --    0.53910   0.54796   0.56874   0.58608   0.60447
 Alpha virt. eigenvalues --    0.60675   0.63169   0.64989   0.65181   0.66240
 Alpha virt. eigenvalues --    0.67444   0.69691   0.71753   0.72682   0.75120
 Alpha virt. eigenvalues --    0.76134   0.77282   0.77820   0.79927   0.80549
 Alpha virt. eigenvalues --    0.81346   0.81851   0.83977   0.84627   0.85446
 Alpha virt. eigenvalues --    0.86332   0.87305   0.88106   0.89369   0.90221
 Alpha virt. eigenvalues --    0.91373   0.91720   0.92287   0.94929   0.96198
 Alpha virt. eigenvalues --    0.96759   0.97585   0.98540   1.00446   1.00947
 Alpha virt. eigenvalues --    1.03149   1.05553   1.06534   1.07311   1.09527
 Alpha virt. eigenvalues --    1.11532   1.12552   1.14247   1.16580   1.17364
 Alpha virt. eigenvalues --    1.20307   1.21701   1.22445   1.23704   1.24331
 Alpha virt. eigenvalues --    1.28121   1.29628   1.33360   1.36012   1.38134
 Alpha virt. eigenvalues --    1.39116   1.43170   1.45535   1.47222   1.49945
 Alpha virt. eigenvalues --    1.52083   1.55481   1.56222   1.60623   1.62386
 Alpha virt. eigenvalues --    1.63806   1.66474   1.67616   1.68353   1.69192
 Alpha virt. eigenvalues --    1.69729   1.71824   1.72265   1.73663   1.75498
 Alpha virt. eigenvalues --    1.76619   1.77405   1.78886   1.80664   1.81027
 Alpha virt. eigenvalues --    1.81659   1.82669   1.84952   1.87287   1.88711
 Alpha virt. eigenvalues --    1.89278   1.90227   1.93072   1.94661   1.98209
 Alpha virt. eigenvalues --    2.00434   2.02750   2.03346   2.03860   2.05132
 Alpha virt. eigenvalues --    2.06637   2.09078   2.11214   2.15157   2.16118
 Alpha virt. eigenvalues --    2.16857   2.20248   2.21628   2.23236   2.25469
 Alpha virt. eigenvalues --    2.29154   2.30573   2.33368   2.34538   2.37256
 Alpha virt. eigenvalues --    2.42153   2.44818   2.46253   2.47296   2.48329
 Alpha virt. eigenvalues --    2.49928   2.52708   2.54141   2.54558   2.57304
 Alpha virt. eigenvalues --    2.60175   2.63793   2.63957   2.65479   2.67967
 Alpha virt. eigenvalues --    2.72368   2.77190   2.78635   2.83901   2.87277
 Alpha virt. eigenvalues --    2.90409   2.94411   3.04378   3.04474   3.11848
 Alpha virt. eigenvalues --    3.70254   3.72694   3.75111   3.77867   3.89099
 Alpha virt. eigenvalues --    4.00045   4.07526   4.16724   4.29404   4.38048
 Alpha virt. eigenvalues --    4.43075   4.55745   4.72782   4.82391
          Condensed to atoms (all electrons):
               1          2          3          4          5          6
     1  C    4.706455   0.048135  -0.000660   0.369607  -0.017034   0.018378
     2  O    0.048135   8.642781   0.003262  -0.084429   0.007430  -0.078424
     3  H   -0.000660   0.003262   0.359760   0.015597  -0.014475   0.225832
     4  O    0.369607  -0.084429   0.015597   8.414388   0.112388  -0.093711
     5  H   -0.017034   0.007430  -0.014475   0.112388   0.320425   0.126352
     6  O    0.018378  -0.078424   0.225832  -0.093711   0.126352   8.462558
     7  H   -0.011338   0.123695  -0.005342   0.012385  -0.015028   0.123665
     8  C   -0.017142  -0.037250  -0.000089   0.000159   0.000800   0.000050
     9  C   -0.005083   0.118323  -0.000072   0.002887  -0.000848   0.005793
    10  C    0.000921  -0.032403  -0.000000  -0.000104  -0.000009  -0.000057
    11  O   -0.000012   0.001605   0.000000   0.000000  -0.000000   0.000000
    12  O    0.000279   0.001810  -0.000000  -0.000001  -0.000004   0.000005
    13  H    0.363092  -0.038094  -0.000057  -0.036144   0.002929  -0.000682
    14  H   -0.000017   0.000017  -0.000000  -0.000000   0.000001  -0.000000
    15  H    0.000643   0.002214   0.000032   0.000034   0.000055   0.000876
    16  H   -0.005686  -0.029546   0.000006   0.000180   0.000095  -0.000199
    17  H   -0.000063   0.004807   0.000001   0.000002  -0.000002   0.000013
    18  H   -0.000102   0.001563  -0.000003   0.000007   0.000014  -0.000033
    19  H   -0.000001  -0.000040   0.000000  -0.000000   0.000000  -0.000000
    20  O    0.000020   0.000002  -0.000000   0.000000  -0.000000   0.000000
    21  H   -0.000029   0.000029   0.000000  -0.000000   0.000000  -0.000000
    22  H    0.000005  -0.000005   0.000000  -0.000000  -0.000000   0.000000
    23  C   -0.017260  -0.003013  -0.000055   0.000604  -0.003022   0.001972
    24  H    0.003443   0.000007   0.000005  -0.000107   0.000145  -0.000022
    25  C    0.269322  -0.029195   0.000290  -0.057858  -0.010014  -0.000293
    26  H   -0.039799   0.002323  -0.000011   0.002839   0.000604  -0.000002
    27  O    0.003000  -0.000733   0.001380  -0.006648   0.024041  -0.015705
    28  H   -0.000023   0.000031  -0.000085   0.000454  -0.000586   0.001162
    29  O   -0.032217   0.001889  -0.000001   0.001796   0.000139  -0.000001
    30  H    0.003984  -0.000128   0.000000  -0.000106  -0.000005  -0.000000
               7          8          9         10         11         12
     1  C   -0.011338  -0.017142  -0.005083   0.000921  -0.000012   0.000279
     2  O    0.123695  -0.037250   0.118323  -0.032403   0.001605   0.001810
     3  H   -0.005342  -0.000089  -0.000072  -0.000000   0.000000  -0.000000
     4  O    0.012385   0.000159   0.002887  -0.000104   0.000000  -0.000001
     5  H   -0.015028   0.000800  -0.000848  -0.000009  -0.000000  -0.000004
     6  O    0.123665   0.000050   0.005793  -0.000057   0.000000   0.000005
     7  H    0.338751  -0.001985  -0.014272  -0.003854   0.000052  -0.000029
     8  C   -0.001985   5.069909   0.307079  -0.039760   0.002202   0.151839
     9  C   -0.014272   0.307079   5.020962   0.325571  -0.046629  -0.027396
    10  C   -0.003854  -0.039760   0.325571   4.955489   0.206970   0.000891
    11  O    0.000052   0.002202  -0.046629   0.206970   8.266278  -0.016222
    12  O   -0.000029   0.151839  -0.027396   0.000891  -0.016222   8.410111
    13  H    0.002005   0.000254  -0.001313  -0.000237   0.000002   0.000003
    14  H    0.000003  -0.014810  -0.005960  -0.003962   0.045496   0.210869
    15  H    0.002767   0.363442  -0.044335  -0.008618   0.000216  -0.031026
    16  H    0.002611  -0.045953   0.356890  -0.038147   0.000954   0.000286
    17  H   -0.000018   0.005209  -0.040440   0.361294  -0.024385  -0.000219
    18  H    0.003105  -0.009284  -0.037150   0.369943  -0.038102   0.000096
    19  H    0.000008  -0.001175   0.000554  -0.024401   0.233176   0.001644
    20  O   -0.000000   0.002173  -0.000514   0.000016  -0.000007  -0.033852
    21  H    0.000004  -0.001864  -0.000833  -0.000118   0.000115   0.031909
    22  H    0.000000  -0.001318   0.000343  -0.000005   0.000010   0.016488
    23  C   -0.001526   0.287433  -0.033782   0.003520   0.000049  -0.031765
    24  H    0.000042  -0.062240   0.004456  -0.000146   0.000003   0.000442
    25  C    0.001151  -0.029496   0.007246   0.000215   0.000010   0.001359
    26  H   -0.000191   0.005695  -0.000015   0.000013  -0.000000  -0.000082
    27  O    0.001694  -0.038547   0.001876  -0.000059   0.000000   0.001201
    28  H   -0.000030  -0.002700  -0.000125  -0.000009   0.000000   0.000042
    29  O   -0.000059   0.005732  -0.012138   0.000469  -0.000002  -0.000998
    30  H    0.000007  -0.001189   0.000869  -0.000032   0.000000   0.000585
              13         14         15         16         17         18
     1  C    0.363092  -0.000017   0.000643  -0.005686  -0.000063  -0.000102
     2  O   -0.038094   0.000017   0.002214  -0.029546   0.004807   0.001563
     3  H   -0.000057  -0.000000   0.000032   0.000006   0.000001  -0.000003
     4  O   -0.036144  -0.000000   0.000034   0.000180   0.000002   0.000007
     5  H    0.002929   0.000001   0.000055   0.000095  -0.000002   0.000014
     6  O   -0.000682  -0.000000   0.000876  -0.000199   0.000013  -0.000033
     7  H    0.002005   0.000003   0.002767   0.002611  -0.000018   0.003105
     8  C    0.000254  -0.014810   0.363442  -0.045953   0.005209  -0.009284
     9  C   -0.001313  -0.005960  -0.044335   0.356890  -0.040440  -0.037150
    10  C   -0.000237  -0.003962  -0.008618  -0.038147   0.361294   0.369943
    11  O    0.000002   0.045496   0.000216   0.000954  -0.024385  -0.038102
    12  O    0.000003   0.210869  -0.031026   0.000286  -0.000219   0.000096
    13  H    0.644731  -0.000001   0.000015   0.003725  -0.000007   0.000010
    14  H   -0.000001   0.355808  -0.004111  -0.000015   0.000486  -0.000117
    15  H    0.000015  -0.004111   0.617567   0.004657   0.000021   0.005549
    16  H    0.003725  -0.000015   0.004657   0.572373  -0.004367   0.004198
    17  H   -0.000007   0.000486   0.000021  -0.004367   0.585766  -0.035259
    18  H    0.000010  -0.000117   0.005549   0.004198  -0.035259   0.569876
    19  H   -0.000001  -0.002435   0.000068   0.003078  -0.009083   0.006583
    20  O    0.000003   0.001352  -0.000082   0.000154  -0.000000  -0.000000
    21  H   -0.000008  -0.000259   0.000417   0.004824  -0.000004   0.000005
    22  H   -0.000001  -0.000225   0.000037  -0.000035   0.000000  -0.000000
    23  C    0.004143   0.004869  -0.053314  -0.006289  -0.000129   0.000013
    24  H   -0.000142   0.000297   0.001878  -0.000098   0.000003  -0.000003
    25  C   -0.086767  -0.000180   0.003006  -0.003900   0.000023   0.000010
    26  H    0.000946   0.000006  -0.000156   0.000354  -0.000000  -0.000000
    27  O   -0.000075  -0.000109  -0.000191  -0.000017   0.000001  -0.000020
    28  H    0.000018  -0.000032   0.005152   0.000019  -0.000000   0.000003
    29  O    0.009129   0.000019  -0.000037   0.017995   0.000002  -0.000008
    30  H   -0.000283  -0.000016   0.000019  -0.000943   0.000000   0.000001
              19         20         21         22         23         24
     1  C   -0.000001   0.000020  -0.000029   0.000005  -0.017260   0.003443
     2  O   -0.000040   0.000002   0.000029  -0.000005  -0.003013   0.000007
     3  H    0.000000  -0.000000   0.000000   0.000000  -0.000055   0.000005
     4  O   -0.000000   0.000000  -0.000000  -0.000000   0.000604  -0.000107
     5  H    0.000000  -0.000000   0.000000  -0.000000  -0.003022   0.000145
     6  O   -0.000000   0.000000  -0.000000   0.000000   0.001972  -0.000022
     7  H    0.000008  -0.000000   0.000004   0.000000  -0.001526   0.000042
     8  C   -0.001175   0.002173  -0.001864  -0.001318   0.287433  -0.062240
     9  C    0.000554  -0.000514  -0.000833   0.000343  -0.033782   0.004456
    10  C   -0.024401   0.000016  -0.000118  -0.000005   0.003520  -0.000146
    11  O    0.233176  -0.000007   0.000115   0.000010   0.000049   0.000003
    12  O    0.001644  -0.033852   0.031909   0.016488  -0.031765   0.000442
    13  H   -0.000001   0.000003  -0.000008  -0.000001   0.004143  -0.000142
    14  H   -0.002435   0.001352  -0.000259  -0.000225   0.004869   0.000297
    15  H    0.000068  -0.000082   0.000417   0.000037  -0.053314   0.001878
    16  H    0.003078   0.000154   0.004824  -0.000035  -0.006289  -0.000098
    17  H   -0.009083  -0.000000  -0.000004   0.000000  -0.000129   0.000003
    18  H    0.006583  -0.000000   0.000005  -0.000000   0.000013  -0.000003
    19  H    0.389129  -0.000003   0.000103  -0.000003   0.000002  -0.000001
    20  O   -0.000003   8.320046   0.234124   0.246999  -0.001335   0.013841
    21  H    0.000103   0.234124   0.345762  -0.024792  -0.000942  -0.002038
    22  H   -0.000003   0.246999  -0.024792   0.352619  -0.000588   0.004451
    23  C    0.000002  -0.001335  -0.000942  -0.000588   5.049024   0.362264
    24  H   -0.000001   0.013841  -0.002038   0.004451   0.362264   0.615242
    25  C    0.000001  -0.003174   0.000137   0.000068   0.301809  -0.035951
    26  H   -0.000000  -0.000083   0.000149   0.000014  -0.050359  -0.005904
    27  O   -0.000000   0.000071  -0.000000  -0.000028   0.162316  -0.028462
    28  H   -0.000000   0.000004  -0.000001  -0.000011  -0.017120  -0.005182
    29  O   -0.000008  -0.028847   0.013701   0.002184  -0.046304  -0.003887
    30  H    0.000001   0.046377  -0.009541  -0.002212  -0.000254   0.004490
              25         26         27         28         29         30
     1  C    0.269322  -0.039799   0.003000  -0.000023  -0.032217   0.003984
     2  O   -0.029195   0.002323  -0.000733   0.000031   0.001889  -0.000128
     3  H    0.000290  -0.000011   0.001380  -0.000085  -0.000001   0.000000
     4  O   -0.057858   0.002839  -0.006648   0.000454   0.001796  -0.000106
     5  H   -0.010014   0.000604   0.024041  -0.000586   0.000139  -0.000005
     6  O   -0.000293  -0.000002  -0.015705   0.001162  -0.000001  -0.000000
     7  H    0.001151  -0.000191   0.001694  -0.000030  -0.000059   0.000007
     8  C   -0.029496   0.005695  -0.038547  -0.002700   0.005732  -0.001189
     9  C    0.007246  -0.000015   0.001876  -0.000125  -0.012138   0.000869
    10  C    0.000215   0.000013  -0.000059  -0.000009   0.000469  -0.000032
    11  O    0.000010  -0.000000   0.000000   0.000000  -0.000002   0.000000
    12  O    0.001359  -0.000082   0.001201   0.000042  -0.000998   0.000585
    13  H   -0.086767   0.000946  -0.000075   0.000018   0.009129  -0.000283
    14  H   -0.000180   0.000006  -0.000109  -0.000032   0.000019  -0.000016
    15  H    0.003006  -0.000156  -0.000191   0.005152  -0.000037   0.000019
    16  H   -0.003900   0.000354  -0.000017   0.000019   0.017995  -0.000943
    17  H    0.000023  -0.000000   0.000001  -0.000000   0.000002   0.000000
    18  H    0.000010  -0.000000  -0.000020   0.000003  -0.000008   0.000001
    19  H    0.000001  -0.000000  -0.000000  -0.000000  -0.000008   0.000001
    20  O   -0.003174  -0.000083   0.000071   0.000004  -0.028847   0.046377
    21  H    0.000137   0.000149  -0.000000  -0.000001   0.013701  -0.009541
    22  H    0.000068   0.000014  -0.000028  -0.000011   0.002184  -0.002212
    23  C    0.301809  -0.050359   0.162316  -0.017120  -0.046304  -0.000254
    24  H   -0.035951  -0.005904  -0.028462  -0.005182  -0.003887   0.004490
    25  C    5.098885   0.364683  -0.043219   0.005465   0.169944  -0.011076
    26  H    0.364683   0.603667   0.004948  -0.000279  -0.031574  -0.007208
    27  O   -0.043219   0.004948   8.343534   0.223945   0.001568  -0.000057
    28  H    0.005465  -0.000279   0.223945   0.393306  -0.000104   0.000001
    29  O    0.169944  -0.031574   0.001568  -0.000104   8.396466   0.202923
    30  H   -0.011076  -0.007208  -0.000057   0.000001   0.202923   0.354357
 Mulliken charges:
               1
     1  C    0.359183
     2  O   -0.626663
     3  H    0.414687
     4  O   -0.654217
     5  H    0.465612
     6  O   -0.777526
     7  H    0.441729
     8  C    0.102830
     9  C    0.118058
    10  C   -0.073391
    11  O   -0.631779
    12  O   -0.688265
    13  H    0.132808
    14  H    0.413026
    15  H    0.133207
    16  H    0.162796
    17  H    0.156345
    18  H    0.159106
    19  H    0.402804
    20  O   -0.797284
    21  H    0.409150
    22  H    0.406005
    23  C    0.089041
    24  H    0.133175
    25  C    0.087498
    26  H    0.149424
    27  O   -0.635706
    28  H    0.396684
    29  O   -0.667774
    30  H    0.419437
 Sum of Mulliken charges =  -0.00000
 Mulliken charges with hydrogens summed into heavy atoms:
               1
     1  C    0.491991
     2  O   -0.626663
     4  O   -0.654217
     6  O    0.544502
     8  C    0.236037
     9  C    0.280855
    10  C    0.242060
    11  O   -0.228976
    12  O   -0.275239
    20  O    0.017871
    23  C    0.222216
    25  C    0.236923
    27  O   -0.239021
    29  O   -0.248337
 APT charges:
               1
     1  C   -0.418413
     2  O   -0.378293
     3  H    0.824850
     4  O   -0.448477
     5  H    0.410815
     6  O   -1.082000
     7  H    0.391934
     8  C   -0.211631
     9  C   -0.152448
    10  C   -0.749522
    11  O   -0.879993
    12  O   -0.851567
    13  H    0.469410
    14  H    0.656197
    15  H    0.389380
    16  H    0.321382
    17  H    0.529910
    18  H    0.441953
    19  H    0.728929
    20  O   -0.731535
    21  H    0.226598
    22  H    0.524674
    23  C   -0.294414
    24  H    0.435750
    25  C   -0.411377
    26  H    0.548446
    27  O   -0.866355
    28  H    0.719508
    29  O   -0.788086
    30  H    0.644374
 Sum of APT charges =  -0.00000
 APT charges with hydrogens summed into heavy atoms:
               1
     1  C    0.050997
     2  O   -0.378293
     4  O   -0.448477
     6  O    0.545600
     8  C    0.177749
     9  C    0.168934
    10  C    0.222340
    11  O   -0.151064
    12  O   -0.195370
    20  O    0.019737
    23  C    0.141336
    25  C    0.137069
    27  O   -0.146847
    29  O   -0.143713
 Electronic spatial extent (au):  <R**2>=           2737.7874
 Charge=             -0.0000 electrons
 Dipole moment (field-independent basis, Debye):
    X=             -2.6150    Y=              2.9022    Z=              1.9958  Tot=              4.3869
 Quadrupole moment (field-independent basis, Debye-Ang):
   XX=            -86.5406   YY=            -82.3975   ZZ=            -79.7734
   XY=             -0.7711   XZ=              5.2973   YZ=             -7.0497
 Traceless Quadrupole moment (field-independent basis, Debye-Ang):
   XX=             -3.6368   YY=              0.5063   ZZ=              3.1305
   XY=             -0.7711   XZ=              5.2973   YZ=             -7.0497
 Octapole moment (field-independent basis, Debye-Ang**2):
  XXX=            -25.4761  YYY=              6.7106  ZZZ=             22.9197  XYY=             20.3629
  XXY=             33.6026  XXZ=              1.6716  XZZ=            -11.6151  YZZ=             -0.4641
  YYZ=              2.1030  XYZ=             14.9811
 Hexadecapole moment (field-independent basis, Debye-Ang**3):
 XXXX=          -1411.8896 YYYY=          -1153.6233 ZZZZ=           -488.5616 XXXY=             43.2025
 XXXZ=             74.0772 YYYX=             18.0392 YYYZ=            -30.7734 ZZZX=             21.7750
 ZZZY=            -29.8412 XXYY=           -454.3383 XXZZ=           -325.8158 YYZZ=           -279.7875
 XXYZ=            -38.0537 YYXZ=             -1.4683 ZZXY=            -12.6556
 N-N= 1.154979785105D+03 E-N=-4.283206464141D+03  KE= 8.326804054293D+02
  Exact polarizability:   0.000   0.000   0.000   0.000   0.000   0.000
 Approx polarizability: 151.194   3.347 131.404   7.677   4.438 137.500
 Calling FoFJK, ICntrl=    100147 FMM=F ISym2X=0 I1Cent= 0 IOpClX= 0 NMat=1 NMatS=1 NMatT=0.
 ***** Axes restored to original set *****
 -------------------------------------------------------------------
 Center     Atomic                   Forces (Hartrees/Bohr)
 Number     Number              X              Y              Z
 -------------------------------------------------------------------
      1        6           0.019864864    0.005335663    0.030017414
      2        8          -0.019683579    0.019960791    0.010399614
      3        1          -0.008241577   -0.003665414    0.005461848
      4        8           0.026395115   -0.031491684   -0.013609395
      5        1          -0.008156176    0.035063519   -0.012636090
      6        8           0.004385520   -0.000311335   -0.002936726
      7        1           0.007844802   -0.018326530   -0.001377594
      8        6          -0.025899054   -0.006564982   -0.006076390
      9        6           0.010881846    0.011203570   -0.003512028
     10        6          -0.011313692   -0.005307072   -0.000222879
     11        8          -0.015488970    0.005655897   -0.005714306
     12        8          -0.017231970    0.027324142    0.010133318
     13        1          -0.001436168   -0.006378704   -0.000400641
     14        1           0.019839226   -0.014381932   -0.002222843
     15        1           0.002822731   -0.004951337   -0.009430320
     16        1           0.002796852    0.009430238    0.013939318
     17        1           0.001925815   -0.002859895    0.004177899
     18        1           0.003079102   -0.006165378   -0.006951136
     19        1           0.009613617    0.001519150    0.008125857
     20        8          -0.013087604   -0.024250682   -0.015363932
     21        1           0.000668717   -0.004800852    0.011931088
     22        1          -0.001814558    0.007203640    0.001054650
     23        6           0.020184840    0.000823483    0.014262532
     24        1           0.005921971    0.010874525   -0.008378578
     25        6          -0.015903834   -0.010950202   -0.017926200
     26        1          -0.003253401    0.013115612    0.001224909
     27        8           0.000562712   -0.008493858    0.012139328
     28        1          -0.001217746   -0.000874602   -0.010667628
     29        8          -0.006398369   -0.021981858   -0.002021138
     30        1           0.012338966    0.024246085   -0.003419950
 -------------------------------------------------------------------
 Cartesian Forces:  Max     0.035063519 RMS     0.012733789

 GradGradGradGradGradGradGradGradGradGradGradGradGradGradGradGradGradGrad
 Berny optimization.
 Search for a saddle point.
 Step number   1 out of a maximum of  180
 All quantities printed in internal units (Hartrees-Bohrs-Radians)
 Swapping is turned off.
 Second derivative matrix not updated -- analytic derivatives used.
 ITU=  0
     Eigenvalues ---   -0.13208  -0.00375  -0.00324   0.00096   0.00187
     Eigenvalues ---    0.00290   0.00387   0.00521   0.00734   0.00782
     Eigenvalues ---    0.00842   0.01039   0.01122   0.01225   0.01555
     Eigenvalues ---    0.01643   0.01814   0.02012   0.02336   0.02497
     Eigenvalues ---    0.02700   0.02792   0.03468   0.03614   0.04097
     Eigenvalues ---    0.04170   0.04641   0.04960   0.05332   0.05455
     Eigenvalues ---    0.05687   0.05918   0.06355   0.06733   0.06923
     Eigenvalues ---    0.07131   0.07450   0.08150   0.08573   0.09120
     Eigenvalues ---    0.10611   0.11421   0.11592   0.11733   0.13592
     Eigenvalues ---    0.14269   0.15589   0.16018   0.16853   0.17384
     Eigenvalues ---    0.17640   0.19339   0.21352   0.22210   0.23518
     Eigenvalues ---    0.24996   0.25463   0.26240   0.31652   0.35733
     Eigenvalues ---    0.37011   0.40980   0.48421   0.52717   0.55548
     Eigenvalues ---    0.58438   0.60055   0.61364   0.63611   0.70666
     Eigenvalues ---    0.75619   0.77806   0.79029   0.80528   0.81912
     Eigenvalues ---    0.82835   0.84989   0.87684   0.88842   0.91157
     Eigenvalues ---    0.97754   0.99114   1.13091   1.19230
 Eigenvectors required to have negative eigenvalues:
                          Z7        X7        Z5        Y5        Y2
   1                    0.48837   0.45411  -0.39799  -0.25363  -0.23696
                          Z4        Y1        Z2        X1        X6
   1                    0.21828   0.19670  -0.18014  -0.17606  -0.14968
 RFO step:  Lambda0=1.940375022D-03 Lambda=-4.82694897D-02.
 Linear search not attempted -- option 19 set.
 Maximum step size (   0.300) exceeded in Quadratic search.
    -- Step size scaled by   0.244
 B after Tr=    -0.000547   -0.002724    0.002302
         Rot=    1.000000   -0.000107    0.000622    0.000412 Ang=  -0.09 deg.
 Variable       Old X    -DE/DX   Delta X   Delta X   Delta X     New X
                                 (Linear)    (Quad)   (Total)
    X1        3.03151   0.01986   0.00000   0.02875   0.03040   3.06191
    Y1       -0.72223   0.00534   0.00000  -0.02567  -0.03043  -0.75266
    Z1       -2.29961   0.03002   0.00000   0.03678   0.04273  -2.25688
    X2        1.59118  -0.01968   0.00000   0.00389   0.00710   1.59827
    Y2        2.01212   0.01996   0.00000   0.02370   0.02002   2.03214
    Z2       -1.67594   0.01040   0.00000   0.00276   0.00749  -1.66845
    X3        6.04513  -0.00824   0.00000  -0.01978  -0.01873   6.02640
    Y3        3.39102  -0.00367   0.00000   0.09948   0.09158   3.48260
    Z3        0.99139   0.00546   0.00000   0.02637   0.03691   1.02831
    X4        5.19414   0.02640   0.00000   0.03414   0.03496   5.22911
    Y4       -0.22771  -0.03149   0.00000  -0.06155  -0.06831  -0.29601
    Z4       -1.33914  -0.01361   0.00000   0.04500   0.05374  -1.28540
    X5        4.92286  -0.00816   0.00000   0.03651   0.03490   4.95776
    Y5        0.59678   0.03506   0.00000   0.04230   0.03522   0.63200
    Z5        1.44287  -0.01264   0.00000  -0.17438  -0.16577   1.27710
    X6        4.57929   0.00439   0.00000  -0.01540  -0.01604   4.56325
    Y6        2.66069  -0.00031   0.00000   0.02999   0.02311   2.68379
    Z6        1.88438  -0.00294   0.00000  -0.03848  -0.02992   1.85446
    X7        2.95060   0.00784   0.00000  -0.02402  -0.02243   2.92818
    Y7        2.83951  -0.01833   0.00000   0.00138  -0.00379   2.83573
    Z7        0.22163  -0.00138   0.00000  -0.06296  -0.05641   0.16522
    X8       -1.18956  -0.02590   0.00000  -0.00814  -0.01031  -1.19987
    Y8        0.42966  -0.00656   0.00000  -0.00291  -0.00499   0.42467
    Z8        1.59348  -0.00608   0.00000  -0.00258  -0.00168   1.59181
    X9       -1.01171   0.01088   0.00000   0.00828   0.01043  -1.00128
    Y9        1.78559   0.01120   0.00000   0.01599   0.01430   1.79990
    Z9       -0.98713  -0.00351   0.00000   0.00862   0.01007  -0.97706
   X10       -2.12764  -0.01131   0.00000  -0.00895  -0.00473  -2.13237
   Y10        4.46425  -0.00531   0.00000   0.00583   0.00505   4.46931
   Z10       -0.88386  -0.00022   0.00000   0.01216   0.01276  -0.87110
   X11       -4.76670  -0.01549   0.00000  -0.00871  -0.00542  -4.77212
   Y11        4.25241   0.00566   0.00000   0.01757   0.01884   4.27125
   Z11       -0.27091  -0.00571   0.00000   0.01309   0.01037  -0.26054
   X12       -3.76567  -0.01723   0.00000  -0.00904  -0.01234  -3.77801
   Y12       -0.35117   0.02732   0.00000   0.01375   0.01371  -0.33746
   Z12        1.99255   0.01013   0.00000  -0.00357  -0.00604   1.98651
   X13        2.79850  -0.00144   0.00000   0.05011   0.05437   2.85287
   Y13       -0.68305  -0.00638   0.00000  -0.02227  -0.02642  -0.70947
   Z13       -4.36483  -0.00040   0.00000   0.03393   0.03963  -4.32521
   X14       -4.88843   0.01984   0.00000   0.01565   0.01372  -4.87471
   Y14        1.17787  -0.01438   0.00000   0.01412   0.01500   1.19288
   Z14        1.91939  -0.00222   0.00000  -0.01341  -0.01691   1.90248
   X15       -0.63064   0.00282   0.00000   0.00443   0.00133  -0.62931
   Y15        1.70281  -0.00495   0.00000  -0.00944  -0.01233   1.69048
   Z15        3.17477  -0.00943   0.00000  -0.00809  -0.00620   3.16857
   X16       -1.93509   0.00280   0.00000   0.00826   0.01133  -1.92376
   Y16        0.62180   0.00943   0.00000   0.02233   0.02173   0.64353
   Z16       -2.49341   0.01394   0.00000   0.01686   0.01691  -2.47650
   X17       -1.85528   0.00193   0.00000  -0.00124   0.00605  -1.84923
   Y17        5.48162  -0.00286   0.00000   0.00463   0.00400   5.48563
   Z17       -2.68359   0.00418   0.00000   0.01513   0.01630  -2.66728
   X18       -1.34979   0.00308   0.00000   0.00837   0.01160  -1.33819
   Y18        5.61746  -0.00617   0.00000  -0.00240  -0.00417   5.61329
   Z18        0.67686  -0.00695   0.00000   0.00349   0.00533   0.68219
   X19       -5.75456   0.00961   0.00000   0.00646   0.01135  -5.74321
   Y19        3.89001   0.00152   0.00000   0.00315   0.00554   3.89554
   Z19       -1.80016   0.00813   0.00000   0.01370   0.00969  -1.79047
   X20       -4.53444  -0.01309   0.00000  -0.02153  -0.02556  -4.55999
   Y20       -4.47945  -0.02425   0.00000  -0.03675  -0.03568  -4.51513
   Z20       -0.17350  -0.01536   0.00000  -0.01541  -0.01974  -0.19324
   X21       -4.56518   0.00067   0.00000  -0.00062  -0.00250  -4.56768
   Y21       -2.76262  -0.00480   0.00000  -0.00144  -0.00025  -2.76287
   Z21       -0.82917   0.01193   0.00000   0.07473   0.07076  -0.75841
   X22       -4.71453  -0.00181   0.00000  -0.01088  -0.01705  -4.73158
   Y22       -4.29019   0.00720   0.00000  -0.08795  -0.08712  -4.37732
   Z22        1.62681   0.00105   0.00000  -0.00515  -0.00967   1.61714
   X23        0.38020   0.02018   0.00000   0.00510   0.00081   0.38101
   Y23       -2.03025   0.00082   0.00000  -0.00035  -0.00375  -2.03400
   Z23        1.66084   0.01426   0.00000   0.00624   0.00858   1.66943
   X24       -0.78861   0.00592   0.00000  -0.00940  -0.01595  -0.80456
   Y24       -3.59380   0.01087   0.00000   0.00960   0.00701  -3.58679
   Z24        2.46322  -0.00838   0.00000  -0.01514  -0.01460   2.44861
   X25        1.50066  -0.01590   0.00000  -0.01511  -0.01684   1.48383
   Y25       -2.81907  -0.01095   0.00000  -0.00423  -0.00798  -2.82705
   Z25       -0.92082  -0.01793   0.00000  -0.00319   0.00035  -0.92047
   X26        2.77131  -0.00325   0.00000  -0.01754  -0.02098   2.75033
   Y26       -4.48339   0.01312   0.00000   0.00349  -0.00136  -4.48475
   Z26       -0.64975   0.00122   0.00000   0.00482   0.00958  -0.64017
   X27        2.56571   0.00056   0.00000  -0.00281  -0.00876   2.55695
   Y27       -1.65186  -0.00849   0.00000  -0.02843  -0.03396  -1.68582
   Z27        3.23120   0.01214   0.00000   0.00380   0.00893   3.24013
   X28        2.07772  -0.00122   0.00000  -0.01182  -0.01965   2.05807
   Y28       -1.32559  -0.00087   0.00000   0.00527  -0.00022  -1.32581
   Z28        4.98800  -0.01067   0.00000  -0.01044  -0.00585   4.98215
   X29       -0.49563  -0.00640   0.00000   0.00278   0.00267  -0.49296
   Y29       -3.45583  -0.02198   0.00000   0.00826   0.00650  -3.44933
   Z29       -2.61501  -0.00202   0.00000  -0.01878  -0.01783  -2.63284
   X30       -1.52782   0.01234   0.00000  -0.01162  -0.01375  -1.54157
   Y30       -4.90157   0.02425   0.00000   0.04018   0.03914  -4.86243
   Z30       -1.93055  -0.00342   0.00000  -0.00885  -0.00951  -1.94006
         Item               Value     Threshold  Converged?
 Maximum Force            0.035064     0.000450     NO 
 RMS     Force            0.012734     0.000300     NO 
 Maximum Displacement     0.165771     0.001800     NO 
 RMS     Displacement     0.031352     0.001200     NO 
 Predicted change in Energy=-1.246170D-02
 GradGradGradGradGradGradGradGradGradGradGradGradGradGradGradGradGradGrad

                          Input orientation:                          
 ---------------------------------------------------------------------
 Center     Atomic      Atomic             Coordinates (Angstroms)
 Number     Number       Type             X           Y           Z
 ---------------------------------------------------------------------
      1          6           0        1.620294   -0.398288   -1.194290
      2          8           0        0.845769    1.075363   -0.882905
      3          1           0        3.189032    1.842911    0.544156
      4          8           0        2.767124   -0.156643   -0.680206
      5          1           0        2.623533    0.334437    0.675812
      6          8           0        2.414767    1.420202    0.981338
      7          1           0        1.549524    1.500602    0.087432
      8          6           0       -0.634945    0.224727    0.842347
      9          6           0       -0.529854    0.952466   -0.517040
     10          6           0       -1.128401    2.365056   -0.460965
     11          8           0       -2.525298    2.260248   -0.137871
     12          8           0       -1.999237   -0.178576    1.051216
     13          1           0        1.509672   -0.375434   -2.288802
     14          1           0       -2.579586    0.631242    1.006750
     15          1           0       -0.333014    0.894561    1.676734
     16          1           0       -1.018011    0.340539   -1.310507
     17          1           0       -0.978571    2.902868   -1.411466
     18          1           0       -0.708142    2.970424    0.361001
     19          1           0       -3.039176    2.061432   -0.947474
     20          8           0       -2.413043   -2.389303   -0.102256
     21          1           0       -2.417112   -1.462046   -0.401336
     22          1           0       -2.503843   -2.316376    0.855755
     23          6           0        0.201622   -1.076348    0.883422
     24          1           0       -0.425754   -1.898047    1.295751
     25          6           0        0.785207   -1.496013   -0.487092
     26          1           0        1.455414   -2.373228   -0.338765
     27          8           0        1.353077   -0.892100    1.714603
     28          1           0        1.089082   -0.701586    2.636440
     29          8           0       -0.260863   -1.825304   -1.393239
     30          1           0       -0.815764   -2.573085   -1.026635
 ---------------------------------------------------------------------
                    Distance matrix (angstroms):
                    1          2          3          4          5
     1  C    0.000000
     2  O    1.693664   0.000000
     3  H    3.241313   2.848949   0.000000
     4  O    1.279802   2.291404   2.382286   0.000000
     5  H    2.245141   2.477703   1.616359   1.449332   0.000000
     6  O    2.944734   2.460909   0.984529   2.317612   1.147090
     7  H    2.292074   1.271869   1.736018   2.195058   1.691043
     8  C    3.101958   2.427466   4.162960   3.746690   3.264575
     9  C    2.627992   1.428741   3.968518   3.482357   3.427638
    10  C    3.966001   2.395556   4.463533   4.645659   4.415052
    11  O    5.036841   3.650085   5.769999   5.843391   5.557094
    12  O    4.265159   3.661591   5.591212   5.071144   4.666275
    13  H    1.100325   2.126529   3.970762   2.053445   3.245541
    14  H    4.852165   3.937143   5.912621   5.661616   5.222075
    15  H    3.705355   2.823822   3.819281   4.033739   3.171239
    16  H    2.742267   2.048533   4.836952   3.869331   4.148053
    17  H    4.207006   2.635786   4.724074   4.891378   4.891699
    18  H    4.380498   2.748308   4.061132   4.789586   4.259999
    19  H    5.274638   4.008653   6.408063   6.221287   6.138717
    20  O    4.628660   4.820082   7.050726   5.670355   5.778517
    21  H    4.249825   4.161340   6.576134   5.353331   5.458544
    22  H    4.989014   5.074125   7.057308   5.899722   5.774876
    23  C    2.605626   2.857393   4.190679   3.142068   2.810529
    24  H    3.554701   3.899293   5.256077   4.139006   3.829683
    25  C    1.550000   2.602366   4.241493   2.399833   2.842945
    26  H    2.158587   3.544085   4.643362   2.598156   3.118545
    27  O    2.962586   3.297775   3.495849   2.876723   2.048790
    28  H    3.879262   3.950005   3.906650   3.756718   2.696655
    29  O    2.369537   3.146259   5.395468   3.530092   4.155141
    30  H    3.269897   4.011549   6.164965   4.335469   4.814642
                    6          7          8          9         10
     6  O    0.000000
     7  H    1.246667   0.000000
     8  C    3.278601   2.640011   0.000000
     9  C    3.336871   2.233753   1.545503   0.000000
    10  C    3.940435   2.866932   2.554041   1.535192   0.000000
    11  O    5.134448   4.151144   2.945778   2.415752   1.437600
    12  O    4.695148   4.042552   1.437906   2.428532   3.084657
    13  H    3.838922   3.027802   3.842352   3.010336   4.220272
    14  H    5.056349   4.318620   1.993467   2.574203   2.695595
    15  H    2.882738   2.537147   1.111774   2.203348   2.713807
    16  H    4.266403   3.145189   2.189734   1.114604   2.198312
    17  H    4.408918   3.256426   3.517128   2.192125   1.102336
    18  H    3.541266   2.707817   2.788530   2.207917   1.103955
    19  H    5.820394   4.737270   3.515291   2.777009   1.994978
    20  O    6.244539   5.556014   3.299555   3.858221   4.937905
    21  H    5.793635   4.974975   2.751013   3.066757   4.038692
    22  H    6.178230   5.620448   3.154389   4.057897   5.053850
    23  C    3.337718   3.015147   1.547361   2.571465   3.926779
    24  H    4.379292   4.112491   2.180713   3.379715   4.664098
    25  C    3.649118   3.145466   2.597150   2.779447   4.309342
    26  H    4.129545   3.898341   3.537513   3.877281   5.398367
    27  O    2.647944   2.900225   2.441386   3.453706   4.636798
    28  H    2.999799   3.399866   2.655014   3.911685   4.890342
    29  O    4.830210   4.065900   3.056209   2.925079   4.379597
    30  H    5.514946   4.840523   3.369502   3.573645   4.980256
                   11         12         13         14         15
    11  O    0.000000
    12  O    2.763789   0.000000
    13  H    5.277718   4.848393   0.000000
    14  H    1.991674   0.997291   5.347531   0.000000
    15  H    3.156580   2.078268   4.553444   2.359089   0.000000
    16  H    2.707816   2.609602   2.803366   2.809396   3.114445
    17  H    2.104131   4.074538   4.208127   3.683924   3.739922
    18  H    2.013772   3.472682   4.809877   3.064484   2.486178
    19  H    0.979314   3.177085   5.331931   2.464885   3.946057
    20  O    4.651042   2.527657   4.921824   3.222007   4.274938
    21  H    3.733174   1.982882   4.490311   2.528034   3.770336
    22  H    4.683294   2.205226   5.455621   2.952455   3.961897
    23  C    4.428544   2.382840   3.502183   3.265913   2.190813
    24  H    4.873887   2.343550   4.348936   3.334639   2.820002
    25  C    5.019053   3.443132   2.242032   4.251895   3.412829
    26  H    6.111917   4.322402   2.792270   5.207541   4.235464
    27  O    5.330174   3.491019   4.039643   4.276385   2.456928
    28  H    5.434428   3.510583   4.953916   4.229829   2.343306
    29  O    4.836874   3.421844   2.457428   4.143796   4.102146
    30  H    5.203221   3.384043   3.439533   4.184905   4.423327
                   16         17         18         19         20
    16  H    0.000000
    17  H    2.564620   0.000000
    18  H    3.131493   1.794250   0.000000
    19  H    2.679248   2.273630   2.823489   0.000000
    20  O    3.295152   5.637270   5.643400   4.573344   0.000000
    21  H    2.456296   4.705554   4.811291   3.619409   0.974306
    22  H    3.736254   5.891287   5.605317   4.764811   0.965064
    23  C    2.882429   4.742734   4.180544   4.868327   3.087376
    24  H    3.486348   5.539262   4.965432   5.247810   2.478926
    25  C    2.702320   4.828616   4.785228   5.243402   3.342884
    26  H    3.798243   5.908651   5.807345   6.343349   3.875714
    27  O    4.036428   5.441569   4.582571   5.924685   4.441426
    28  H    4.593938   5.801106   4.678814   6.125457   4.755390
    29  O    2.295865   4.782368   5.126053   4.798380   2.572277
    30  H    2.934398   5.491872   5.715558   5.140873   1.854603
                   21         22         23         24         25
    21  H    0.000000
    22  H    1.522393   0.000000
    23  C    2.942301   2.976236   0.000000
    24  H    2.652491   2.164960   1.113017   0.000000
    25  C    3.203647   3.646106   1.547579   2.192393   0.000000
    26  H    3.978772   4.135920   2.178907   2.536973   1.113861
    27  O    4.360776   4.200241   1.432012   2.086051   2.352583
    28  H    4.701040   4.322904   2.000276   2.350254   3.237268
    29  O    2.401091   3.214045   2.440904   2.695023   1.422602
    30  H    2.046881   2.541437   2.631277   2.449747   2.003572
                   26         27         28         29         30
    26  H    0.000000
    27  O    2.533877   0.000000
    28  H    3.432263   0.977636   0.000000
    29  O    2.087521   3.624135   4.395840   0.000000
    30  H    2.381462   3.878656   4.533108   1.000744   0.000000
 Stoichiometry    C6H16O8
 Framework group  C1[X(C6H16O8)]
 Deg. of freedom    84
 Full point group                 C1      NOp   1
 Largest Abelian subgroup         C1      NOp   1
 Largest concise Abelian subgroup C1      NOp   1
                         Standard orientation:                         
 ---------------------------------------------------------------------
 Center     Atomic      Atomic             Coordinates (Angstroms)
 Number     Number       Type             X           Y           Z
 ---------------------------------------------------------------------
      1          6           0        1.622792   -0.391898   -1.194807
      2          8           0        0.842272    1.079293   -0.886777
      3          1           0        3.181964    1.859212    0.539435
      4          8           0        2.768473   -0.144585   -0.680856
      5          1           0        2.622462    0.348767    0.674079
      6          8           0        2.409250    1.434327    0.977252
      7          1           0        1.543993    1.509384    0.082894
      8          6           0       -0.635608    0.226368    0.839775
      9          6           0       -0.532971    0.951661   -0.521106
     10          6           0       -1.137185    2.361959   -0.468199
     11          8           0       -2.533760    2.252242   -0.145344
     12          8           0       -1.998345   -0.181952    1.049044
     13          1           0        1.512448   -0.371788   -2.289401
     14          1           0       -2.581915    0.625442    1.002683
     15          1           0       -0.336640    0.899157    1.672849
     16          1           0       -1.018409    0.336119   -1.313444
     17          1           0       -0.989188    2.898367   -1.419781
     18          1           0       -0.719628    2.970731    0.352629
     19          1           0       -3.046565    2.049669   -0.954696
     20          8           0       -2.402914   -2.396738   -0.099911
     21          1           0       -2.410593   -1.470135   -0.400941
     22          1           0       -2.494328   -2.322161    0.857915
     23          6           0        0.206144   -1.071260    0.883862
     24          1           0       -0.418078   -1.894595    1.297712
     25          6           0        0.791866   -1.491467   -0.485575
     26          1           0        1.465528   -2.365679   -0.335182
     27          8           0        1.356574   -0.880658    1.715031
     28          1           0        1.091508   -0.689265    2.636379
     29          8           0       -0.252573   -1.826846   -1.391370
     30          1           0       -0.804601   -2.576069   -1.023377
 ---------------------------------------------------------------------
 Rotational constants (GHZ):      0.7595642      0.6038359      0.4588464
 Standard basis: 6-31G(d) (6D, 7F)
 There are   242 symmetry adapted cartesian basis functions of A   symmetry.
 There are   242 symmetry adapted basis functions of A   symmetry.
   242 basis functions,   456 primitive gaussians,   242 cartesian basis functions
    58 alpha electrons       58 beta electrons
       nuclear repulsion energy      1153.6028330979 Hartrees.
 NAtoms=   30 NActive=   30 NUniq=   30 SFac= 1.00D+00 NAtFMM=   60 NAOKFM=F Big=F
 Integral buffers will be    131072 words long.
 Raffenetti 2 integral format.
 Two-electron integral symmetry is turned on.
 One-electron integrals computed using PRISM.
 NBasis=   242 RedAO= T EigKep=  1.40D-03  NBF=   242
 NBsUse=   242 1.00D-06 EigRej= -1.00D+00 NBFU=   242
 Initial guess from the checkpoint file:  "/scratch/10446901.yak.local/Gau-984.chk"
 B after Tr=     0.000000    0.000000   -0.000000
         Rot=    0.999998    0.000817    0.001268   -0.001265 Ang=   0.23 deg.
 ExpMin= 1.61D-01 ExpMax= 5.48D+03 ExpMxC= 8.25D+02 IAcc=1 IRadAn=         1 AccDes= 0.00D+00
 Harris functional with IExCor=  402 and IRadAn=       1 diagonalized for initial guess.
 HarFok:  IExCor=  402 AccDes= 0.00D+00 IRadAn=         1 IDoV= 1 UseB2=F ITyADJ=14
 ICtDFT=  3500011 ScaDFX=  1.000000  1.000000  1.000000  1.000000
 FoFCou: FMM=F IPFlag=           0 FMFlag=      100000 FMFlg1=           0
         NFxFlg=           0 DoJE=T BraDBF=F KetDBF=T FulRan=T
         wScrn=  0.000000 ICntrl=     500 IOpCl=  0 I1Cent=   200000004 NGrid=           0
         NMat0=    1 NMatS0=      1 NMatT0=    0 NMatD0=    1 NMtDS0=    0 NMtDT0=    0
 Petite list used in FoFCou.
 Requested convergence on RMS density matrix=1.00D-08 within 128 cycles.
 Requested convergence on MAX density matrix=1.00D-06.
 Requested convergence on             energy=1.00D-06.
 No special actions if energy rises.
 Integral accuracy reduced to 1.0D-05 until final iterations.
 Initial convergence to 1.0D-05 achieved.  Increase integral accuracy.
 SCF Done:  E(RB3LYP) =  -839.912244012     A.U. after   12 cycles
            NFock= 12  Conv=0.73D-08     -V/T= 2.0086
 Calling FoFJK, ICntrl=      2127 FMM=F ISym2X=0 I1Cent= 0 IOpClX= 0 NMat=1 NMatS=1 NMatT=0.
 ***** Axes restored to original set *****
 -------------------------------------------------------------------
 Center     Atomic                   Forces (Hartrees/Bohr)
 Number     Number              X              Y              Z
 -------------------------------------------------------------------
      1        6           0.015821061    0.003395873    0.023549574
      2        8          -0.015365676    0.015736229    0.008256534
      3        1          -0.007298589   -0.001987789    0.004860302
      4        8           0.021748062   -0.025817044   -0.010084598
      5        1          -0.005774065    0.028113688   -0.011716736
      6        8           0.004200546    0.000518011   -0.003416027
      7        1           0.006537578   -0.014302381   -0.000617340
      8        6          -0.020158701   -0.005111147   -0.004734727
      9        6           0.008389289    0.008887936   -0.002300731
     10        6          -0.009075631   -0.004028383   -0.000024402
     11        8          -0.012303953    0.005022832   -0.004353503
     12        8          -0.013493980    0.021216019    0.008233119
     13        1          -0.000537775   -0.005443152    0.000600421
     14        1           0.015569264   -0.010321423   -0.002094475
     15        1           0.002386387   -0.004024564   -0.007756959
     16        1           0.002265691    0.007823117    0.011209063
     17        1           0.001407631   -0.002415054    0.003397098
     18        1           0.002530368   -0.004989536   -0.005591844
     19        1           0.007450403    0.001072052    0.006212091
     20        8          -0.011749837   -0.018771917   -0.012147274
     21        1           0.000266757   -0.005669389    0.010287720
     22        1          -0.001487152    0.004836330    0.000053376
     23        6           0.015451024    0.000660766    0.010838355
     24        1           0.004638583    0.008706899   -0.006867731
     25        6          -0.012474516   -0.008343948   -0.013780981
     26        1          -0.002665794    0.010513116    0.001117158
     27        8           0.000400435   -0.007300259    0.009785769
     28        1          -0.001274834   -0.000549608   -0.008506930
     29        8          -0.004607825   -0.016929913   -0.002024431
     30        1           0.009205247    0.019502639   -0.002381889
 -------------------------------------------------------------------
 Cartesian Forces:  Max     0.028113688 RMS     0.010116113

 GradGradGradGradGradGradGradGradGradGradGradGradGradGradGradGradGradGrad
 Berny optimization.
 Search for a saddle point.
 Step number   2 out of a maximum of  180
 All quantities printed in internal units (Hartrees-Bohrs-Radians)
 Swapping is turned off.
 Update second derivatives using D2CorN and points    1    2
 ITU=  0  0
     Eigenvalues ---   -0.13221  -0.00353  -0.00161   0.00100   0.00190
     Eigenvalues ---    0.00291   0.00387   0.00523   0.00735   0.00783
     Eigenvalues ---    0.00842   0.01038   0.01122   0.01225   0.01555
     Eigenvalues ---    0.01643   0.01815   0.02015   0.02336   0.02498
     Eigenvalues ---    0.02696   0.02791   0.03466   0.03613   0.04096
     Eigenvalues ---    0.04170   0.04641   0.04959   0.05332   0.05455
     Eigenvalues ---    0.05687   0.05915   0.06356   0.06732   0.06922
     Eigenvalues ---    0.07137   0.07451   0.08150   0.08572   0.09117
     Eigenvalues ---    0.10618   0.11427   0.11590   0.11736   0.13590
     Eigenvalues ---    0.14272   0.15598   0.16012   0.16845   0.17384
     Eigenvalues ---    0.17642   0.19337   0.21360   0.22204   0.23514
     Eigenvalues ---    0.24992   0.25470   0.26241   0.31658   0.35735
     Eigenvalues ---    0.37012   0.40983   0.48425   0.52714   0.55545
     Eigenvalues ---    0.58435   0.60055   0.61368   0.63611   0.70662
     Eigenvalues ---    0.75612   0.77805   0.79033   0.80511   0.81913
     Eigenvalues ---    0.82833   0.84981   0.87682   0.88870   0.91182
     Eigenvalues ---    0.97731   0.99106   1.13015   1.19229
 Eigenvectors required to have negative eigenvalues:
                          Z7        X7        Z5        Y5        Y2
   1                    0.48697   0.45313  -0.40103  -0.25302  -0.23621
                          Z4        Y1        Z2        X1        X6
   1                    0.21844   0.19629  -0.17987  -0.17548  -0.14970
 RFO step:  Lambda0=9.893630364D-04 Lambda=-3.58754580D-02.
 Linear search not attempted -- option 19 set.
 Maximum step size (   0.300) exceeded in Quadratic search.
    -- Step size scaled by   0.293
 B after Tr=     0.000004   -0.000807   -0.000423
         Rot=    1.000000   -0.000101    0.000481    0.000285 Ang=  -0.07 deg.
 Variable       Old X    -DE/DX   Delta X   Delta X   Delta X     New X
                                 (Linear)    (Quad)   (Total)
    X1        3.06191   0.01582   0.00000   0.02527   0.02699   3.08890
    Y1       -0.75266   0.00340   0.00000  -0.01409  -0.01621  -0.76887
    Z1       -2.25688   0.02355   0.00000   0.02488   0.02727  -2.22961
    X2        1.59827  -0.01537   0.00000   0.00421   0.00698   1.60525
    Y2        2.03214   0.01574   0.00000   0.02421   0.02282   2.05496
    Z2       -1.66845   0.00826   0.00000   0.01113   0.01266  -1.65579
    X3        6.02640  -0.00730   0.00000  -0.00728  -0.00626   6.02013
    Y3        3.48260  -0.00199   0.00000   0.05272   0.04827   3.53086
    Z3        1.02831   0.00486   0.00000   0.01295   0.01903   1.04734
    X4        5.22911   0.02175   0.00000   0.03515   0.03617   5.26527
    Y4       -0.29601  -0.02582   0.00000  -0.05164  -0.05520  -0.35121
    Z4       -1.28540  -0.01008   0.00000   0.02087   0.02544  -1.25996
    X5        4.95776  -0.00577   0.00000   0.02153   0.02078   4.97854
    Y5        0.63200   0.02811   0.00000   0.03850   0.03461   0.66660
    Z5        1.27710  -0.01172   0.00000  -0.09908  -0.09458   1.18252
    X6        4.56325   0.00420   0.00000  -0.00220  -0.00242   4.56083
    Y6        2.68379   0.00052   0.00000   0.01696   0.01318   2.69698
    Z6        1.85446  -0.00342   0.00000  -0.02362  -0.01911   1.83535
    X7        2.92818   0.00654   0.00000   0.00654   0.00800   2.93618
    Y7        2.83573  -0.01430   0.00000  -0.00361  -0.00612   2.82961
    Z7        0.16522  -0.00062   0.00000  -0.00917  -0.00620   0.15902
    X8       -1.19987  -0.02016   0.00000  -0.01480  -0.01608  -1.21595
    Y8        0.42467  -0.00511   0.00000  -0.00054  -0.00097   0.42370
    Z8        1.59181  -0.00473   0.00000  -0.01093  -0.01243   1.57937
    X9       -1.00128   0.00839   0.00000   0.00739   0.00937  -0.99191
    Y9        1.79990   0.00889   0.00000   0.01864   0.01860   1.81850
    Z9       -0.97706  -0.00230   0.00000   0.00333   0.00232  -0.97475
   X10       -2.13237  -0.00908   0.00000  -0.00721  -0.00381  -2.13618
   Y10        4.46931  -0.00403   0.00000   0.00930   0.00989   4.47920
   Z10       -0.87110  -0.00002   0.00000   0.00583   0.00425  -0.86684
   X11       -4.77212  -0.01230   0.00000  -0.00842  -0.00572  -4.77784
   Y11        4.27125   0.00502   0.00000   0.02913   0.03111   4.30236
   Z11       -0.26054  -0.00435   0.00000   0.00589   0.00174  -0.25880
   X12       -3.77801  -0.01349   0.00000  -0.01811  -0.02018  -3.79819
   Y12       -0.33746   0.02122   0.00000   0.01871   0.01967  -0.31779
   Z12        1.98651   0.00823   0.00000  -0.01512  -0.01926   1.96725
[...]
 .00039375,-0.00054702,0.00007459,0.00000343,0.00014781,0.00001247,-0.0
 0007954,-0.00003372,0.00001875,-0.00216515,-0.00046634,-0.00156875,0.0
 0118149,-0.00052323,0.00058842,0.00015526,0.00037493,0.00006808,-0.102
 63214,-0.18468591,0.06002513,0.11597759,0.19774165,-0.00191668,-0.0051
 8192,-0.00542932,-0.00066471,0.00024190,0.00045686,-0.00002166,-0.0000
 9918,0.00002013,0.00159107,0.00085237,0.00195550,0.00017856,-0.0006403
 2,-0.00107871,0.00001658,0.00046207,0.00067458,-0.00041491,-0.00017075
 ,-0.00044613,0.00266113,-0.00014873,0.00294984,0.00105826,0.00018956,-
 0.00021322,0.00013477,-0.00013205,-0.00002237,-0.00022591,-0.00000001,
 0.00008651,-0.00080047,-0.00040667,0.00028951,0.00102029,0.00165198,-0
 .00078281,-0.00009328,-0.00015316,-0.00000879,-0.00014219,0.00057527,-
 0.00034519,0.00001451,0.00003616,-0.00003345,-0.00002342,-0.00000662,0
 .00001234,0.00000118,0.00000234,-0.00000105,0.00003103,0.00001965,0.00
 000199,0.00054829,-0.00064347,0.00053641,-0.00088657,0.00097673,0.0002
 4131,-0.00071533,-0.00027937,0.00020651,0.05050144,0.06039618,-0.07934
 807,-0.04511551,-0.05965075,0.08497190,-0.08667540,-0.03666012,0.04179
 157,0.00062953,0.01698596,-0.00048517,-0.00017545,0.00013969,0.0001912
 5,-0.03335304,-0.02109919,-0.00133500,-0.00134540,-0.00058220,0.000858
 79,0.00151031,0.00010343,0.00097870,-0.00253086,-0.00021705,-0.0020466
 9,-0.00473424,0.00762241,0.01587419,0.00579527,0.00172850,0.00191559,-
 0.00115847,-0.00096058,-0.00100209,-0.00086367,0.00030309,0.00012556,-
 0.00292892,0.00000283,-0.00134344,0.00350683,-0.00668884,-0.00198962,-
 0.00040924,0.00015428,0.00007788,-0.00144254,0.00192670,-0.00065627,-0
 .00206890,0.00220159,-0.00134358,0.00014291,-0.00009470,0.00001510,0.0
 0024735,-0.00066413,-0.00012927,-0.00000448,0.00027018,0.00006636,0.00
 395091,0.00005556,-0.00202462,-0.00107731,0.00168382,0.00189961,0.0003
 8967,-0.00018906,0.00017531,-0.10215186,0.01168954,0.04866389,-0.00925
 970,0.00581338,0.02145485,0.53245575,-0.03352303,-0.10791769,0.0383131
 0,0.00004785,-0.02566452,0.00349023,0.00007343,-0.00021488,-0.00017841
 ,-0.00540230,0.00305111,0.00066271,0.00066136,-0.00018796,-0.00104319,
 -0.00143184,0.00032318,-0.00043491,0.00149858,-0.00069488,0.00163914,0
 .01113600,-0.00923989,-0.02409098,-0.00034981,-0.00345613,0.00121551,0
 .00066552,0.00036795,-0.00064515,0.00010052,0.00003523,-0.00013124,0.0
 0018469,-0.00079100,-0.00023958,-0.00461562,0.00751010,-0.00119317,0.0
 0054191,0.00013932,-0.00016276,0.00155630,-0.00312133,0.00004590,0.000
 72849,0.00028971,0.00056608,-0.00017950,0.00039179,-0.00004025,-0.0000
 5902,0.00019295,0.00007497,0.00005244,-0.00001233,0.00002478,0.0002989
 8,-0.00003603,-0.00076059,0.00032234,0.00023850,0.00085869,0.00018564,
 0.00028913,0.00028737,0.01361292,-0.08778223,-0.02288336,-0.01072650,0
 .00685022,0.02249198,-0.04353341,0.52361119,0.01465242,0.02499035,-0.1
 1499549,-0.00168034,-0.00381254,-0.00069376,0.00001405,-0.00004553,-0.
 00010845,-0.00684579,-0.00780655,0.02044397,-0.00033113,-0.00041240,-0
 .00011882,-0.00086973,0.00063871,-0.00073124,0.00188749,-0.00000629,0.
 00208983,0.00586624,-0.00735477,0.00623513,0.00058736,0.00022419,0.002
 49674,-0.00026636,0.00009737,-0.00099882,0.00024211,0.00003594,-0.0002
 6865,-0.00368848,0.00064158,-0.00163812,0.01623929,0.02380394,-0.01599
 291,-0.00062163,-0.00033266,0.00052255,-0.00038794,0.00231865,0.000009
 59,-0.00114039,0.00199262,-0.00134217,-0.00023804,0.00027139,-0.000011
 51,0.00017021,-0.00050375,-0.00006470,-0.00002755,0.00017837,0.0000233
 3,0.00424599,0.00033473,-0.00429166,0.00016923,0.00192470,0.00162518,0
 .00104721,-0.00016052,-0.00020910,0.04587425,-0.01043655,-0.12827445,0
 .00769257,-0.00478269,-0.01319176,0.01745551,-0.02753152,0.48311447,0.
 00834797,-0.01320254,0.00266865,0.00063616,-0.00404438,0.00001052,0.00
 004729,0.00003386,0.00000246,0.00031670,-0.00052968,-0.00013138,0.0000
 8233,0.00041526,0.00074021,-0.00000291,-0.00053213,-0.00058580,0.00020
 152,0.00002003,0.00035460,0.00030101,-0.00079110,0.00241517,-0.0019221
 1,-0.00038886,0.00016748,0.00017329,0.00011807,0.00005293,0.00021554,0
 .00005527,-0.00009541,-0.00042155,0.00046653,-0.00003946,-0.00070100,0
 .00084093,0.00061692,-0.00006353,-0.00020595,0.00011017,-0.00025779,0.
 00067396,0.00024402,0.00042019,-0.00030180,0.00007888,-0.00004120,0.00
 008305,-0.00004022,-0.00002818,0.00005046,0.00006182,0.00002410,-0.000
 07207,0.00000046,-0.00048318,-0.00048385,0.00039432,0.00020679,0.00004
 429,-0.00016471,-0.00024060,0.00012599,0.00010519,-0.00830543,0.016567
 52,0.00053347,0.00028739,-0.00023447,-0.00077086,-0.11559527,0.1047107
 1,-0.01338100,0.13821188,0.01361254,-0.02182273,0.00365619,-0.00114289
 ,-0.00353906,0.00084077,0.00004955,0.00000333,-0.00000774,-0.00115604,
 0.00347167,-0.00068748,0.00033784,-0.00072234,-0.00023386,-0.00093528,
 0.00027130,-0.00049439,0.00133530,0.00022874,0.00114706,-0.00015293,0.
 00135112,-0.00129292,-0.00156452,0.00065621,0.00015718,-0.00005904,0.0
 0022177,-0.00001216,0.00028143,-0.00015682,-0.00002826,0.00056519,-0.0
 0019221,-0.00013985,-0.00106692,0.00033551,0.00088521,0.00001402,0.000
 08849,-0.00000155,0.00013732,-0.00032835,-0.00008328,0.00000469,0.0000
 1314,0.00002614,-0.00001752,-0.00000134,0.00000147,-0.00001243,-0.0000
 0164,-0.00000520,-0.00005794,0.00003011,-0.00002694,0.00001659,0.00008
 969,0.00006626,-0.00008252,-0.00019990,-0.00005894,0.00001405,-0.00004
 781,0.00000163,0.00663535,-0.00905615,0.00151297,-0.00018420,0.0010537
 5,-0.00026353,0.10639860,-0.22124600,0.02948402,-0.11704566,0.23168852
 ,-0.00553306,0.01384634,-0.00033004,0.00054312,0.00182950,0.00010159,-
 0.00003481,0.00001654,0.00001997,0.00024306,-0.00161509,0.00011516,-0.
 00022511,-0.00005535,0.00013869,0.00034125,-0.00002782,0.00026657,-0.0
 0050481,0.00003940,-0.00055056,-0.00030616,-0.00039907,-0.00584003,0.0
 0027317,0.00051504,-0.00081405,0.00003962,-0.00001737,0.00024900,-0.00
 015684,-0.00002693,0.00011190,0.00096037,-0.00039793,0.00041248,0.0004
 7212,-0.00114917,-0.00040729,0.00015877,0.00022444,-0.00020456,0.00082
 605,-0.00145400,0.00007630,0.00014040,-0.00042074,0.00030117,0.0000478
 1,-0.00010197,0.00003784,0.00000633,0.00012200,0.00000477,0.00001011,-
 0.00002176,-0.00000772,-0.00042512,-0.00002096,0.00048447,-0.00001106,
 -0.00037577,-0.00032883,-0.00009398,0.00003624,0.00004986,0.01775630,-
 0.02673509,0.00115690,-0.00055274,0.00051479,0.00144761,-0.01712678,0.
 03294764,-0.05384211,0.02675945,-0.03443722,0.06626355,-0.00497563,-0.
 00022516,-0.00163553,0.00452549,-0.00026124,0.00065422,0.00004691,-0.0
 0046893,0.00037559,0.00313161,0.00041379,0.00470920,0.00047203,-0.0005
 4543,-0.00278057,0.00048313,-0.00110249,0.00297009,-0.00304058,-0.0002
 1152,-0.00298319,-0.02395510,0.00183996,-0.02391948,-0.00578321,0.0013
 8269,0.00337108,0.00046934,0.00002920,-0.00161755,0.00022146,0.0007022
 8,-0.00038417,-0.00436346,0.00549205,-0.00128304,0.00036802,0.00038374
 ,0.00004363,-0.00071530,-0.00125505,0.00086858,0.00093314,-0.00217505,
 0.00007749,0.00018163,0.00018205,-0.00018200,-0.00017278,0.00075282,-0
 .00014066,0.00000562,0.00004485,0.00012876,0.00018472,-0.00020542,0.00
 012692,-0.00225417,-0.00075983,-0.00191635,0.00163213,0.00011817,0.000
 75503,0.00086873,0.00060196,0.00015477,-0.17864006,-0.00148173,-0.0381
 6056,-0.02913135,-0.00552083,-0.02705408,0.00767421,0.00027783,-0.0029
 7174,0.00108211,-0.00056696,0.00031440,0.33314548,-0.00096457,-0.00348
 650,-0.00028294,-0.00036682,0.00124985,0.00224168,-0.00007082,-0.00044
 601,0.00097319,0.00083003,0.00295773,0.00172083,0.00134955,-0.00334429
 ,-0.00284331,-0.00238555,-0.00174185,0.00261247,-0.00121189,0.00073579
 ,-0.00265794,0.02005901,0.00291277,0.01495173,0.00165188,-0.00027277,-
 0.00103005,-0.00067312,0.00014070,0.00039395,0.00038851,-0.00016487,0.
 00009396,0.00643545,-0.00215947,0.00175890,0.00025640,0.00027764,-0.00
 005747,0.00104604,0.00096438,-0.00050645,0.00071752,0.00454736,0.00259
 638,0.00035694,-0.00040929,0.00039470,0.00000958,-0.00028756,0.0000417
 7,-0.00000423,0.00012402,-0.00004546,-0.00013941,0.00007382,-0.0000765
 3,-0.00172074,0.00073959,-0.00062680,0.00065390,-0.00192966,-0.0002176
 3,0.00057303,0.00021462,0.00012391,-0.01355490,-0.06728256,-0.02086732
 ,-0.01943284,0.00461450,-0.01919111,-0.00944105,0.00061733,-0.00871024
 ,-0.00122276,0.00073709,0.00090225,-0.04789087,0.10682075,-0.00178392,
 -0.00045060,0.00270890,0.00122536,0.00127090,0.00027775,-0.00010600,0.
 00009577,-0.00001191,0.00344230,0.00216330,-0.00167973,-0.00029203,-0.
 00143706,-0.00270469,0.00133205,0.00124044,0.00205885,-0.00188585,-0.0
 0095594,-0.00175722,-0.01197423,0.00008918,-0.00814438,-0.00088133,0.0
 0105329,0.00195481,0.00054232,-0.00010212,-0.00063891,-0.00021459,0.00
 034424,-0.00000763,-0.00054049,0.00198113,-0.00005493,-0.00025897,-0.0
 0019021,0.00007995,-0.00017550,-0.00081090,-0.00013692,0.00141561,-0.0
 0012846,0.00275540,0.00025644,-0.00053307,0.00036376,-0.00010594,0.000
 34467,-0.00010013,-0.00001574,0.00012947,0.00005090,0.00014381,-0.0001
 5282,0.00005815,-0.00156115,-0.00027774,-0.00015073,0.00076934,-0.0002
 4279,-0.00000637,0.00032542,0.00032947,0.00003947,-0.08677145,-0.01450
 214,-0.14053988,-0.00783598,-0.00578039,0.00422575,-0.03583003,-0.0057
 2712,-0.03044613,-0.00071722,0.00032555,0.00163108,-0.03510064,0.15797
 125,0.56949673,-0.00053184,-0.00003774,-0.00070630,-0.00075735,-0.0002
 8404,-0.00022103,0.00004669,-0.00003745,-0.00004453,-0.00030787,-0.000
 90045,0.00069967,0.00026632,0.00151380,0.00088815,-0.00042020,-0.00029
 167,-0.00116136,0.00094904,0.00042872,0.00079202,-0.00020347,-0.000899
 95,-0.00163590,0.00079389,0.00042669,-0.00009537,0.00003554,0.00015488
 ,0.00011239,-0.00000984,-0.00024104,0.00011101,0.00061525,-0.00031560,
 0.00050431,-0.00000652,0.00001025,0.00006242,-0.00008373,0.00020966,-0
 .00017241,0.00025229,0.00129311,0.00039397,-0.00003163,-0.00019343,0.0
 0026928,0.00001005,-0.00007372,0.00003306,0.00000500,0.00002552,-0.000
 04700,-0.00005069,0.00004692,-0.00002790,0.00002145,0.00019901,0.00025
 570,-0.00009833,-0.00027027,-0.00023043,-0.00006823,-0.00008232,-0.000
 05443,0.00636047,-0.01144292,-0.03905380,0.00022808,-0.00051300,0.0000
 0510,-0.00498266,0.00047801,-0.00198627,0.00006461,-0.00029736,0.00006
 109,-0.10409292,0.06369722,0.17333736,0.10155308,-0.00019242,0.0008935
 7,-0.00032259,0.00019485,-0.00051089,-0.00051510,-0.00002413,-0.000088
 93,-0.00021854,-0.00013255,-0.00082002,0.00009031,-0.00001016,0.001459
 76,0.00086586,0.00037424,-0.00019892,-0.00092760,0.00042414,0.00018466
 ,0.00091223,0.00140133,0.00303763,0.00294600,-0.00049583,-0.00075699,-
 0.00014555,0.00026259,-0.00002500,0.00010439,-0.00017449,0.00002386,-0
 .00003889,-0.00172547,-0.00088887,-0.00021989,-0.00005148,-0.00011714,
 -0.00002148,0.00005828,-0.00012409,0.00018884,0.00078123,-0.00197139,-
 0.00041607,-0.00004977,0.00020716,-0.00034145,-0.00003950,0.00003673,-
 0.00005723,-0.00001634,-0.00010820,0.00000239,0.00006001,-0.00003102,0
 .00001246,0.00027485,-0.00037017,0.00021380,-0.00006921,0.00066155,0.0
 0002180,-0.00020747,-0.00004150,-0.00009278,0.00267392,-0.00273350,-0.
 00217777,0.00080005,0.00001313,-0.00060324,-0.00109733,-0.00049162,0.0
 0006933,-0.00027244,0.00017775,0.00027454,0.04898809,-0.04705094,-0.13
 353633,-0.05195899,0.04899340,0.00055638,-0.00064853,0.00044798,-0.000
 58011,0.00033226,0.00041615,-0.00000339,0.00001777,0.00020809,-0.00008
 044,0.00052147,-0.00016674,0.00030831,-0.00054895,-0.00054425,-0.00050
 085,-0.00010422,0.00021063,0.00011155,0.00020166,-0.00037251,0.0002530
 6,-0.00050711,0.00146713,0.00097801,0.00028134,-0.00045866,-0.00021772
 ,0.00007855,0.00023873,0.00012145,-0.00019520,0.00008150,0.00155194,-0
 .00008778,0.00038220,-0.00009302,-0.00000236,0.00000187,0.00003003,0.0
 0027375,-0.00013279,-0.00060037,0.00188727,0.00051428,0.00007770,-0.00
 024418,0.00028236,0.00004944,-0.00014615,0.00004933,-0.00000473,0.0000
 6588,-0.00002310,-0.00007598,0.00006188,-0.00003665,0.00015630,0.00031
 437,0.00031713,-0.00023689,-0.00040617,-0.00020311,-0.00009361,-0.0000
 7560,0.00000402,0.01302169,-0.00903594,-0.02714839,0.00081675,-0.00010
 790,0.00195018,-0.00690599,-0.00006267,-0.00050737,0.00011707,0.000025
 35,0.00048759,0.12017970,-0.12596319,-0.38739255,-0.12974088,0.1343634
 7,0.41188999,-0.03818629,-0.00380036,-0.02840925,0.00681633,-0.0048101
 0,-0.00044444,0.00009009,0.00029681,0.00015149,-0.00531744,-0.00959080
 ,0.00345456,-0.00051303,0.00399466,0.00286503,0.00113017,-0.00253815,-
 0.00115968,-0.00065131,0.00035797,-0.00035545,-0.00251379,0.00008872,-
 0.00248576,-0.00542567,0.00003433,-0.00067622,0.00066363,0.00061073,0.
 00091592,0.00101523,0.00013030,-0.00024296,0.00331875,0.00198394,0.001
 59570,0.00171098,0.00141842,-0.00093215,0.00033651,-0.00043962,-0.0001
 9722,0.00049374,-0.00038960,0.00042414,0.00067590,-0.00000177,0.001991
 16,0.00001181,0.00004295,-0.00006883,-0.00022731,0.00061423,0.00007775
 ,-0.00000462,-0.00041383,0.00000686,-0.01216277,-0.00558349,0.01124729
 ,0.00029297,-0.00374440,-0.00272723,-0.00352212,0.00178123,0.00034989,
 0.00001007,-0.00483838,-0.00370650,0.00119008,0.00127680,-0.00050132,-
 0.15874583,-0.02302032,-0.08691409,-0.02359607,-0.00482782,-0.02532231
 ,0.00250000,0.00010022,0.00090880,0.00004606,0.00000299,0.00031967,0.4
 8170615,-0.02501881,-0.00503880,-0.02166059,0.00032135,0.00148251,-0.0
 0009742,0.00010618,0.00013944,0.00009590,-0.00537685,-0.00358728,0.002
 50503,0.00001208,0.00108361,0.00112154,-0.00049512,-0.00084886,-0.0010
 5039,0.00091926,0.00076544,0.00095131,-0.00158887,0.00122194,0.0032897
 6,0.00470557,-0.00505943,0.00206487,-0.00260647,-0.00018590,-0.0018577
 9,0.00095642,-0.00011361,-0.00010168,0.00172456,0.00091691,-0.00071303
 ,0.00119792,0.00096343,-0.00129289,-0.00025706,-0.00005621,0.00035059,
 0.00003686,0.00046200,-0.00038728,-0.00113637,-0.00407404,-0.00333507,
 0.00005203,-0.00005882,0.00006873,0.00047605,-0.00096238,-0.00018848,-
 0.00034349,0.00023080,-0.00005246,-0.00632010,0.00324552,0.00431711,-0
 .00188258,-0.00303346,-0.00013633,-0.00006816,0.00060635,-0.00044791,-
 0.01128643,-0.00283068,-0.00732611,0.00093934,0.00092600,-0.00037114,-
 0.03137986,-0.07626184,-0.01621677,0.01333389,0.01622688,0.01488689,0.
 00120714,0.00056984,-0.00401009,-0.00086513,0.00046035,-0.00043774,0.2
 1317874,0.18533341,0.00344406,-0.00076879,0.00542269,-0.00005189,-0.00
 031245,0.00176826,-0.00000937,-0.00003198,0.00001105,0.00302028,0.0022
 2745,0.00083686,0.00057865,-0.00031850,-0.00085995,-0.00006124,0.00012
 861,0.00068924,-0.00042673,0.00012160,-0.00073395,-0.00079622,0.003129
 52,0.00175230,0.00059010,-0.00053565,-0.00047114,-0.00004545,-0.000124
 45,0.00010125,0.00002534,-0.00031200,0.00030653,0.00143129,-0.00126883
 ,0.00032744,0.00072594,-0.00048666,0.00286205,-0.00001257,0.00041413,-
 0.00055416,-0.00026521,0.00009747,0.00038362,0.00071676,-0.00191181,-0
 .00028037,0.00006376,-0.00023545,0.00008465,-0.00005266,0.00011078,0.0
 0005560,-0.00002822,-0.00002219,-0.00013381,0.00642795,0.00229084,0.00
 052702,-0.00113556,0.00052498,-0.00012381,0.00027321,-0.00066998,0.000
 56341,-0.03437235,-0.00793717,-0.02448894,-0.00107623,0.00121013,0.003
 03329,-0.05223771,0.00176654,-0.16098666,-0.01845716,-0.00078887,-0.01
 023215,0.00362729,-0.00440633,-0.01215178,-0.00230297,-0.00025367,-0.0
 0178348,-0.01674389,-0.07519220,0.32211986,-0.00160343,-0.00116645,-0.
 00242054,-0.00141055,0.00114919,0.00068510,-0.00005386,-0.00010054,-0.
 00007162,0.00147640,0.00104978,0.00110319,-0.00000374,-0.00122590,-0.0
 0077357,0.00005395,0.00085528,0.00064074,-0.00033082,-0.00023947,-0.00
 035341,0.00337780,0.00005900,-0.00039487,0.00060325,0.00056313,-0.0005
 5742,0.00102682,-0.00006876,0.00009784,-0.00091662,-0.00032543,0.00029
 228,-0.00323301,-0.00282417,-0.00088892,-0.00026245,0.00000718,0.00020
 586,-0.00016101,0.00044367,-0.00014931,-0.00062969,-0.00001556,0.00008
 521,0.00079135,-0.00071880,-0.00010864,-0.00007621,0.00001105,0.000030
 52,-0.00009727,0.00010742,0.00002179,0.00017332,0.00018204,-0.00006711
 ,-0.00409579,0.00269832,-0.00409238,-0.00004157,0.00648525,0.00307304,
 0.00405257,-0.00317465,-0.00127920,0.00458348,0.00000818,-0.00133367,0
 .00083439,-0.00042949,0.00012985,-0.02679952,-0.01429216,0.00520653,0.
 00103995,-0.00023246,0.00133938,-0.00080119,0.00095431,0.00235227,0.00
 039747,0.00022102,0.00048492,-0.25114223,-0.15054209,0.10715081,0.2732
 4820,-0.00264325,0.00062282,-0.00151087,0.00123719,0.00035415,0.000329
 00,-0.00004099,-0.00002160,-0.00003232,0.00033413,-0.00015940,0.000271
 52,-0.00016713,0.00002331,0.00006841,0.00045414,0.00006971,0.00026589,
 -0.00054709,-0.00021314,-0.00045794,-0.00005236,-0.00144963,-0.0010128
 2,-0.00097813,-0.00080245,-0.00042695,0.00051993,-0.00018591,0.0000749
 5,-0.00023692,0.00025861,-0.00001584,-0.00108902,-0.00023937,0.0006467
 7,0.00012159,-0.00010031,-0.00008497,0.00017290,-0.00022707,-0.0001096
 8,-0.00014363,0.00014308,0.00027550,0.00000904,-0.00098357,0.00066852,
 -0.00003426,0.00009281,-0.00004056,-0.00006768,0.00013970,0.00005596,0
 .00016173,-0.00017944,0.00003504,0.00250425,-0.00993730,-0.00168822,0.
 00594913,0.00335585,-0.00243575,-0.00239373,-0.00027724,0.00112560,0.0
 0053908,0.00070823,-0.00072288,-0.00004667,-0.00008484,0.00004585,-0.0
 0447203,-0.00678938,0.00110688,0.00178787,0.00066928,0.00110063,0.0002
 5388,0.00027799,0.00149911,0.00022130,0.00017963,0.00014866,-0.1619143
 9,-0.11252315,0.08355496,0.16056109,0.12727863,-0.00298120,0.00179273,
 -0.00592122,0.00100698,-0.00081205,-0.00034378,0.00001882,0.00006051,0
 .00002142,-0.00222409,-0.00204001,0.00098549,-0.00008569,0.00080933,0.
 00072570,0.00015706,-0.00046818,-0.00040860,-0.00001239,0.00009633,0.0
 0019819,-0.00096395,-0.00083156,-0.00030525,-0.00058440,-0.00019981,0.
 00087480,-0.00022743,0.00004750,-0.00019513,0.00028696,0.00028657,-0.0
 0025338,0.00085253,0.00153587,0.00007745,-0.00018187,-0.00014236,0.000
 43209,0.00026666,-0.00032720,0.00035522,0.00017911,0.00018801,-0.00001
 030,-0.00005580,0.00038212,-0.00009178,-0.00000552,0.00011345,-0.00004
 771,0.00002005,-0.00006998,-0.00000771,-0.00001241,-0.00003393,0.00008
 349,-0.00541846,-0.00003697,-0.00228436,0.00341364,-0.00353799,-0.0018
 1575,0.00055386,0.00110745,-0.00131330,-0.00421558,-0.00290583,0.00126
 232,0.00045334,0.00079553,-0.00215934,-0.02708789,-0.01925971,0.012153
 13,-0.00105060,0.00043242,-0.00079916,0.00177280,0.00070579,0.00022243
 ,-0.00004492,-0.00017719,-0.00017956,0.14657901,0.10522362,-0.12804493
 ,-0.11040865,-0.08273444,0.12678952\\0.00000403,0.00000224,0.00000077,
 0.00000037,0.00000773,0.00000654,0.00002561,0.00002823,-0.00001398,0.0
 0000021,0.00000816,0.00000625,0.00000169,0.00000207,-0.00000473,-0.000
 02241,-0.00003647,0.00001528,-0.00000589,0.00000488,-0.00000388,-0.000
 00218,-0.00000177,0.00000335,0.00000010,0.00000146,-0.00000030,-0.0000
 0306,0.00000221,0.00000374,0.00000378,-0.00000275,0.00000393,0.0000066
 5,-0.00001270,0.00000977,-0.00000053,0.00000383,-0.00000138,-0.0000060
 7,0.00000741,-0.00000638,-0.00000123,-0.00000064,-0.00000013,0.0000001
 3,-0.00000003,-0.00000146,-0.00000221,-0.00000032,0.00000158,-0.000002
 44,-0.00000194,-0.00000316,-0.00000125,0.00000132,0.00000093,0.0000038
 7,-0.00008698,-0.00002070,0.00000727,0.00006206,0.00003161,-0.00000498
 ,0.00002200,-0.00001789,0.00000116,-0.00000432,-0.00000138,0.00000328,
 0.00000260,-0.00000314,-0.00000092,0.00000103,-0.00000214,0.00000174,0
 .00000237,-0.00000110,-0.00001809,-0.00000707,0.00002732,0.00000695,-0
 .00000770,-0.00002410,0.00000500,-0.00000875,-0.00000375,-0.00000058,0
 .00001184,-0.00000149\\\@


 NO SCIENCE HAS EVER MADE MORE RAPID PROGRESS IN A
 SHORTER TIME THAN CHEMISTRY.
   -- MARTIN HEINRICH KLOPROTH, 1791
 (FIRST PROFESSOR OF CHEMISTRY AT THE UNIVERSITY OF BERLIN)
 Job cpu time:       0 days  0 hours 35 minutes 10.5 seconds.
 File lengths (MBytes):  RWF=    220 Int=      0 D2E=      0 Chk=      6 Scr=      1
 Normal termination of Gaussian 09 at Sat Jan  7 23:13:36 2017.
