 Entering Gaussian System, Link 0=g09
 Initial command:
 /home/ibrahim/.g09/g09/l1.exe "/home/ibrahim/Desktop/RayBasisSet/glo/TS/b3lyp/Gau-8410.inp" -scrdir="/home/ibrahim/Desktop/RayBasisSet/glo/TS/b3lyp/"
 Entering Link 1 = /home/ibrahim/.g09/g09/l1.exe PID=      8413.
  
 Copyright (c) 1988,1990,1992,1993,1995,1998,2003,2009,2015,
            Gaussian, Inc.  All Rights Reserved.
  
 This is part of the Gaussian(R) 09 program.  It is based on
 the Gaussian(R) 03 system (copyright 2003, Gaussian, Inc.),
 the Gaussian(R) 98 system (copyright 1998, Gaussian, Inc.),
 the Gaussian(R) 94 system (copyright 1995, Gaussian, Inc.),
 the Gaussian 92(TM) system (copyright 1992, Gaussian, Inc.),
 the Gaussian 90(TM) system (copyright 1990, Gaussian, Inc.),
 the Gaussian 88(TM) system (copyright 1988, Gaussian, Inc.),
 the Gaussian 86(TM) system (copyright 1986, Carnegie Mellon
 University), and the Gaussian 82(TM) system (copyright 1983,
 Carnegie Mellon University). Gaussian is a federally registered
 trademark of Gaussian, Inc.
  
 This software contains proprietary and confidential information,
 including trade secrets, belonging to Gaussian, Inc.
  
 This software is provided under written license and may be
 used, copied, transmitted, or stored only in accord with that
 written license.
  
 The following legend is applicable only to US Government
 contracts under FAR:
  
                    RESTRICTED RIGHTS LEGEND
  
 Use, reproduction and disclosure by the US Government is
 subject to restrictions as set forth in subparagraphs (a)
 and (c) of the Commercial Computer Software - Restricted
 Rights clause in FAR 52.227-19.
  
 Gaussian, Inc.
 340 Quinnipiac St., Bldg. 40, Wallingford CT 06492
  
  
 ---------------------------------------------------------------
 Warning -- This program may not be used in any manner that
 competes with the business of Gaussian, Inc. or will provide
 assistance to any competitor of Gaussian, Inc.  The licensee
 of this program is prohibited from giving any competitor of
 Gaussian, Inc. access to this program.  By using this program,
 the user acknowledges that Gaussian, Inc. is engaged in the
 business of creating and licensing software in the field of
 computational chemistry and represents and warrants to the
 licensee that it is not a competitor of Gaussian, Inc. and that
 it will not use this program in any manner prohibited above.
 ---------------------------------------------------------------
  

 Cite this work as:
 Gaussian 09, Revision E.01,
 M. J. Frisch, G. W. Trucks, H. B. Schlegel, G. E. Scuseria, 
 M. A. Robb, J. R. Cheeseman, G. Scalmani, V. Barone, B. Mennucci, 
 G. A. Petersson, H. Nakatsuji, M. Caricato, X. Li, H. P. Hratchian, 
 A. F. Izmaylov, J. Bloino, G. Zheng, J. L. Sonnenberg, M. Hada, 
 M. Ehara, K. Toyota, R. Fukuda, J. Hasegawa, M. Ishida, T. Nakajima, 
 Y. Honda, O. Kitao, H. Nakai, T. Vreven, J. A. Montgomery, Jr., 
 J. E. Peralta, F. Ogliaro, M. Bearpark, J. J. Heyd, E. Brothers, 
 K. N. Kudin, V. N. Staroverov, T. Keith, R. Kobayashi, J. Normand, 
 K. Raghavachari, A. Rendell, J. C. Burant, S. S. Iyengar, J. Tomasi, 
 M. Cossi, N. Rega, J. M. Millam, M. Klene, J. E. Knox, J. B. Cross, 
 V. Bakken, C. Adamo, J. Jaramillo, R. Gomperts, R. E. Stratmann, 
 O. Yazyev, A. J. Austin, R. Cammi, C. Pomelli, J. W. Ochterski, 
 R. L. Martin, K. Morokuma, V. G. Zakrzewski, G. A. Voth, 
 P. Salvador, J. J. Dannenberg, S. Dapprich, A. D. Daniels, 
 O. Farkas, J. B. Foresman, J. V. Ortiz, J. Cioslowski, 
 and D. J. Fox, Gaussian, Inc., Wallingford CT, 2013.
 
 ******************************************
 Gaussian 09:  ES64L-G09RevE.01 30-Nov-2015
                 7-Jan-2017 
 ******************************************
 %NPROCS=4
 Will use up to    4 processors via shared memory.
 %chk=ttt.chk
 ----------------------------------------------------------------------
 # opt=(calcfc,ts,noeigentest,maxcycle=1000,cartesian) freq b3lyp/6-31g
 (d)
 ----------------------------------------------------------------------
 1/5=1,6=1000,10=4,11=1,14=-1,18=10,26=3,38=1/1,3;
 2/12=2,17=6,18=5,29=2,40=1/2;
 3/5=1,6=6,7=1,11=2,16=1,25=1,30=1,71=2,74=-5,140=1/1,2,3;
 4//1;
 5/5=2,38=5/2;
 8/6=4,10=90,11=11/1;
 11/6=1,8=1,9=11,15=111,16=1/1,2,10;
 10/6=1,13=1/2;
 6/7=2,8=2,9=2,10=2,28=1/1;
 7/7=1,10=1,18=20,25=1/1,2,3,16;
 1/5=1,6=1000,10=4,11=1,14=-1,18=10,26=3/3(2);
 2/29=1/2;
 99/12=1/99;
 2/29=1/2;
 3/5=1,6=6,7=1,11=2,16=1,25=1,30=1,71=1,74=-5/1,2,3;
 4/5=5,16=3,69=1/1;
 5/5=2,38=5/2;
 7/7=1/1,2,3,16;
 1/5=1,6=1000,11=1,14=-1,18=10,26=3/3(-5);
 2/29=1/2;
 6/7=2,8=2,9=2,10=2,19=2,28=1/1;
 99/9=1,12=1/99;
 -------------------------
 glo_2w_Beta_B3LYP_6-31G_d
 -------------------------
 Symbolic Z-matrix:
 Charge =  0 Multiplicity = 1
 6                    0     0.45056  -1.41814   0.16585 
 8                    0     0.61881  -0.15423  -0.97393 
 8                    0     0.95329  -1.06016   1.30302 
 1                    0     2.25384  -1.06503   1.2609 
 1                    0     3.35558  -0.68117  -1.83004 
 1                    0     3.70757  -0.29734   1.6615 
 8                    0     3.37384  -0.97541   1.04568 
 1                    0     3.30871  -0.4673   -0.12625 
 8                    0     3.03371  -0.04542  -1.17548 
 1                    0     1.8092   -0.06442  -1.14817 
 6                    0    -1.28278   0.80113   0.23915 
 6                    0    -0.04281   1.07742  -0.63312 
 1                    0     1.00145  -2.14585  -0.4512 
 1                    0    -0.99147   0.72586   1.29566 
 1                    0    -0.40837   1.50552  -1.57741 
 8                    0    -2.25156   1.83772   0.07011 
 1                    0    -1.81851   2.6453    0.40507 
 6                    0     0.89489   2.08633   0.04734 
 8                    0     0.19534   3.31472   0.30209 
 1                    0     1.79931   2.26201  -0.55189 
 1                    0     1.19888   1.69867   1.0241 
 1                    0     0.13326   3.79692  -0.5383 
 6                    0    -1.93627  -0.50732  -0.18791 
 1                    0    -2.06766  -0.48842  -1.28236 
 6                    0    -1.05631  -1.71883   0.157 
 1                    0    -1.30327  -2.01622   1.18444 
 8                    0    -3.18802  -0.68913   0.46141 
 1                    0    -3.63162   0.177     0.42627 
 8                    0    -1.27126  -2.7936   -0.75128 
 1                    0    -2.22361  -2.9851   -0.73505 
 

 GradGradGradGradGradGradGradGradGradGradGradGradGradGradGradGradGradGrad
 Berny optimization.
 Initialization pass.
 No Z-matrix variables, so optimization will use Cartesian coordinates.
 Trust Radius=3.00D-01 FncErr=1.00D-07 GrdErr=1.00D-06
 Number of steps in this run=    180 maximum allowed number of steps=    180.
 Search for a saddle point of order  1.
 GradGradGradGradGradGradGradGradGradGradGradGradGradGradGradGradGradGrad

 ---------------------------------------------------------------------------------------------------
                            Z-MATRIX (ANGSTROMS AND DEGREES)
   CD    Cent   Atom    N1       Length/X        N2       Alpha/Y        N3        Beta/Z          J
 ---------------------------------------------------------------------------------------------------
      1      1  C        0   0.450562         -1.418136          0.165849
      2      2  O        0   0.618806         -0.154232         -0.973930
      3      3  O        0   0.953291         -1.060157          1.303017
      4      4  H        0   2.253842         -1.065028          1.260896
      5      5  H        0   3.355583         -0.681169         -1.830041
      6      6  H        0   3.707565         -0.297340          1.661495
      7      7  O        0   3.373835         -0.975411          1.045683
      8      8  H        0   3.308708         -0.467295         -0.126250
      9      9  O        0   3.033706         -0.045415         -1.175483
     10     10  H        0   1.809201         -0.064418         -1.148166
     11     11  C        0  -1.282777          0.801131          0.239151
     12     12  C        0  -0.042811          1.077416         -0.633123
     13     13  H        0   1.001446         -2.145848         -0.451201
     14     14  H        0  -0.991473          0.725855          1.295659
     15     15  H        0  -0.408366          1.505520         -1.577407
     16     16  O        0  -2.251562          1.837721          0.070108
     17     17  H        0  -1.818509          2.645298          0.405073
     18     18  C        0   0.894885          2.086331          0.047338
     19     19  O        0   0.195337          3.314724          0.302091
     20     20  H        0   1.799313          2.262005         -0.551886
     21     21  H        0   1.198878          1.698670          1.024103
     22     22  H        0   0.133259          3.796919         -0.538295
     23     23  C        0  -1.936267         -0.507317         -0.187906
     24     24  H        0  -2.067665         -0.488424         -1.282357
     25     25  C        0  -1.056307         -1.718829          0.156996
     26     26  H        0  -1.303273         -2.016225          1.184437
     27     27  O        0  -3.188022         -0.689131          0.461405
     28     28  H        0  -3.631621          0.177003          0.426269
     29     29  O        0  -1.271263         -2.793599         -0.751279
     30     30  H        0  -2.223611         -2.985103         -0.735050
 ---------------------------------------------------------------------------------------------------
                         Z-Matrix orientation:                         
 ---------------------------------------------------------------------
 Center     Atomic      Atomic             Coordinates (Angstroms)
 Number     Number       Type             X           Y           Z
 ---------------------------------------------------------------------
      1          6           0        0.450562   -1.418136    0.165849
      2          8           0        0.618806   -0.154232   -0.973930
      3          8           0        0.953291   -1.060157    1.303017
      4          1           0        2.253842   -1.065028    1.260896
      5          1           0        3.355583   -0.681169   -1.830041
      6          1           0        3.707565   -0.297340    1.661495
      7          8           0        3.373835   -0.975411    1.045683
      8          1           0        3.308708   -0.467295   -0.126250
      9          8           0        3.033706   -0.045415   -1.175483
     10          1           0        1.809201   -0.064418   -1.148166
     11          6           0       -1.282777    0.801131    0.239151
     12          6           0       -0.042811    1.077416   -0.633123
     13          1           0        1.001446   -2.145848   -0.451201
     14          1           0       -0.991473    0.725855    1.295659
     15          1           0       -0.408366    1.505520   -1.577407
     16          8           0       -2.251562    1.837721    0.070108
     17          1           0       -1.818509    2.645298    0.405073
     18          6           0        0.894885    2.086331    0.047338
     19          8           0        0.195337    3.314724    0.302091
     20          1           0        1.799313    2.262005   -0.551886
     21          1           0        1.198878    1.698670    1.024103
     22          1           0        0.133259    3.796919   -0.538295
     23          6           0       -1.936267   -0.507317   -0.187906
     24          1           0       -2.067665   -0.488424   -1.282357
     25          6           0       -1.056307   -1.718829    0.156996
     26          1           0       -1.303273   -2.016225    1.184437
     27          8           0       -3.188022   -0.689131    0.461405
     28          1           0       -3.631621    0.177003    0.426269
     29          8           0       -1.271263   -2.793599   -0.751279
     30          1           0       -2.223611   -2.985103   -0.735050
 ---------------------------------------------------------------------
                    Distance matrix (angstroms):
                    1          2          3          4          5
     1  C    0.000000
     2  O    1.710221   0.000000
     3  O    1.293846   2.473271   0.000000
     4  H    2.139073   2.915020   1.301242   0.000000
     5  H    3.600812   2.915568   3.966194   3.303797   0.000000
     6  H    3.755158   4.062804   2.880351   1.692080   3.530161
     7  O    3.084743   3.513311   2.435659   1.143998   2.890796
     8  H    3.026288   2.837630   2.818205   1.842336   1.717802
     9  O    3.218100   2.425738   3.391281   2.753859   0.967592
    10  H    2.324884   1.206427   2.780715   2.646225   1.799064
    11  C    2.816910   2.449551   3.097774   4.127249   5.290856
    12  C    2.666374   1.439042   3.051242   3.667695   4.009279
    13  H    1.101721   2.094324   2.063571   2.380744   3.096521
    14  H    2.820041   2.918662   2.640455   3.706823   5.535938
    15  H    3.510621   2.043048   4.090679   4.663800   4.360361
    16  O    4.232168   3.646492   4.493200   5.490227   6.433929
    17  H    4.660194   3.959738   4.713764   5.575213   6.544642
    18  C    3.534509   2.477767   3.388293   3.640131   4.151944
    19  O    4.741694   3.720378   4.551476   4.933455   5.522708
    20  H    3.984685   2.722117   3.897843   3.816009   3.566221
    21  H    3.318291   2.786012   2.783744   2.967667   4.296644
    22  H    5.271935   4.004638   5.258714   5.601115   5.666150
    23  C    2.579086   2.696461   3.298186   4.468454   5.543510
    24  H    3.050104   2.724690   4.017115   5.047379   5.454239
    25  C    1.536603   2.555966   2.405348   3.550090   4.948720
    26  H    2.114514   3.438016   2.453611   3.682891   5.707398
    27  O    3.722646   4.103443   4.242222   5.513109   6.933221
    28  H    4.390502   4.487360   4.829148   6.072719   7.392457
    29  O    2.386986   3.253950   3.489068   4.411708   5.199403
    30  H    3.227725   4.018735   4.236961   5.264796   6.134698
                    6          7          8          9         10
     6  H    0.000000
     7  O    0.974875   0.000000
     8  H    1.839566   1.279004   0.000000
     9  O    2.926772   2.431904   1.163829   0.000000
    10  H    3.398858   2.844462   1.858802   1.224957   0.000000
    11  C    5.304075   5.048825   4.777463   4.620590   3.497735
    12  C    4.606576   4.325039   3.725014   3.319618   2.235845
    13  H    3.899173   3.039542   2.871688   3.011060   2.338927
    14  H    4.823041   4.691770   4.683694   4.785757   3.800077
    15  H    5.539104   5.228830   4.451348   3.796683   2.750737
    16  O    6.527036   6.364790   6.022313   5.747326   4.646732
    17  H    6.385547   6.362417   6.021536   5.769063   4.787002
    18  C    4.024743   4.064007   3.518193   3.257942   2.625057
    19  O    5.218307   5.390829   4.917339   4.640054   4.015769
    20  H    3.884679   3.938554   3.147780   2.690128   2.401644
    21  H    3.268614   3.446972   3.235135   3.353596   2.863516
    22  H    5.863250   5.982094   5.332615   4.856144   4.253310
    23  C    5.942829   5.471566   5.245490   5.088152   3.891888
    24  H    6.485064   5.938590   5.499311   5.121686   3.902291
    25  C    5.194095   4.579148   4.549717   4.615628   3.556917
    26  H    5.318895   4.793525   5.038596   5.316268   4.351791
    27  O    7.010195   6.594036   6.527025   6.465576   5.287081
    28  H    7.457509   7.126580   6.992036   6.858693   5.669186
    29  O    6.069721   5.302058   5.174793   5.124961   4.134635
    30  H    6.938757   6.208162   6.108727   6.039464   4.996463
                   11         12         13         14         15
    11  C    0.000000
    12  C    1.541010   0.000000
    13  H    3.791958   3.393081   0.000000
    14  H    1.098514   2.178016   3.907675   0.000000
    15  H    2.135566   1.099352   4.072886   3.033546   0.000000
    16  O    1.428859   2.439504   5.169395   2.079915   2.494401
    17  H    1.927561   2.586350   5.624983   2.271870   2.686601
    18  C    2.535891   1.536298   4.262773   2.639611   2.162314
    19  O    2.916665   2.436573   5.570916   3.016279   2.677721
    20  H    3.501310   2.191637   4.480613   3.682617   2.549080
    21  H    2.753241   2.161977   4.122599   2.412001   3.064049
    22  H    3.403575   2.726846   6.006481   3.749646   2.573640
    23  C    1.523635   2.508939   3.374058   2.148095   2.883870
    24  H    2.143359   2.640718   3.585710   3.046117   2.610774
    25  C    2.531449   3.077409   2.187829   2.697635   3.718119
    26  H    2.971781   3.803012   2.829106   2.761991   4.564135
    27  O    2.429040   3.769752   4.528412   2.742807   4.086531
    28  H    2.437543   3.848716   5.256510   2.833277   4.021075
    29  O    3.728695   4.062981   2.382191   4.081029   4.462007
    30  H    4.021169   4.611978   3.344535   4.406036   4.916338
                   16         17         18         19         20
    16  O    0.000000
    17  H    0.975662   0.000000
    18  C    3.156336   2.793372   0.000000
    19  O    2.867520   2.124691   1.436390   0.000000
    20  H    4.120253   3.761824   1.099054   2.100055   0.000000
    21  H    3.582594   3.222410   1.093966   2.034705   1.778092
    22  H    3.145788   2.454704   1.961925   0.970883   2.265366
    23  C    2.380165   3.210058   3.846787   4.403616   4.664352
    24  H    2.697022   3.567872   4.144171   4.700594   4.801246
    25  C    3.753030   4.437127   4.277665   5.188865   4.950163
    26  H    4.122364   4.754227   4.791227   5.607440   5.562743
    27  O    2.723059   3.605157   4.954268   5.244364   5.882982
    28  H    2.188469   3.062728   4.927309   4.950386   5.899073
    29  O    4.804663   5.587328   5.398491   6.369624   5.918389
    30  H    4.889652   5.758941   6.004714   6.827503   6.614349
                   21         22         23         24         25
    21  H    0.000000
    22  H    2.824762   0.000000
    23  C    4.020507   4.788753   0.000000
    24  H    4.557789   4.874614   1.102472   0.000000
    25  C    4.185336   5.685242   1.536570   2.146737   0.000000
    26  H    4.481842   6.230897   2.135605   3.000591   1.097758
    27  O    5.026243   5.670534   1.421813   2.082352   2.386871
    28  H    5.099666   5.311167   1.928660   2.410011   3.209194
    29  O    5.425316   6.741882   2.446774   2.496023   1.423482
    30  H    6.061830   7.182574   2.553695   2.560717   1.939535
                   26         27         28         29         30
    26  H    0.000000
    27  O    2.415830   0.000000
    28  H    3.287289   0.973757   0.000000
    29  O    2.086224   3.094084   3.972705   0.000000
    30  H    2.338841   2.762803   3.651037   0.971547   0.000000
 Stoichiometry    C6H16O8
 Framework group  C1[X(C6H16O8)]
 Deg. of freedom    84
 Full point group                 C1      NOp   1
 Largest Abelian subgroup         C1      NOp   1
 Largest concise Abelian subgroup C1      NOp   1
                         Standard orientation:                         
 ---------------------------------------------------------------------
 Center     Atomic      Atomic             Coordinates (Angstroms)
 Number     Number       Type             X           Y           Z
 ---------------------------------------------------------------------
      1          6           0       -0.450562   -1.418136   -0.165849
      2          8           0       -0.618806   -0.154232    0.973930
      3          8           0       -0.953291   -1.060157   -1.303017
      4          1           0       -2.253842   -1.065028   -1.260896
      5          1           0       -3.355583   -0.681169    1.830041
      6          1           0       -3.707565   -0.297340   -1.661495
      7          8           0       -3.373835   -0.975411   -1.045683
      8          1           0       -3.308708   -0.467295    0.126250
      9          8           0       -3.033706   -0.045415    1.175483
     10          1           0       -1.809201   -0.064418    1.148166
     11          6           0        1.282777    0.801131   -0.239151
     12          6           0        0.042811    1.077416    0.633123
     13          1           0       -1.001446   -2.145848    0.451201
     14          1           0        0.991473    0.725855   -1.295659
     15          1           0        0.408366    1.505520    1.577407
     16          8           0        2.251562    1.837721   -0.070108
     17          1           0        1.818509    2.645298   -0.405073
     18          6           0       -0.894885    2.086331   -0.047338
     19          8           0       -0.195337    3.314724   -0.302091
     20          1           0       -1.799313    2.262005    0.551886
     21          1           0       -1.198878    1.698670   -1.024103
     22          1           0       -0.133259    3.796919    0.538295
     23          6           0        1.936267   -0.507317    0.187906
     24          1           0        2.067665   -0.488424    1.282357
     25          6           0        1.056307   -1.718829   -0.156996
     26          1           0        1.303273   -2.016225   -1.184437
     27          8           0        3.188022   -0.689131   -0.461405
     28          1           0        3.631621    0.177003   -0.426269
     29          8           0        1.271263   -2.793599    0.751279
     30          1           0        2.223611   -2.985103    0.735050
 ---------------------------------------------------------------------
 Rotational constants (GHZ):      0.7155658      0.5548522      0.3678357
 Standard basis: 6-31G(d) (6D, 7F)
 There are   242 symmetry adapted cartesian basis functions of A   symmetry.
 There are   242 symmetry adapted basis functions of A   symmetry.
   242 basis functions,   456 primitive gaussians,   242 cartesian basis functions
    58 alpha electrons       58 beta electrons
       nuclear repulsion energy      1114.8166258140 Hartrees.
 NAtoms=   30 NActive=   30 NUniq=   30 SFac= 1.00D+00 NAtFMM=   60 NAOKFM=F Big=F
 Integral buffers will be    131072 words long.
 Raffenetti 2 integral format.
 Two-electron integral symmetry is turned on.
 One-electron integrals computed using PRISM.
 NBasis=   242 RedAO= T EigKep=  1.35D-03  NBF=   242
 NBsUse=   242 1.00D-06 EigRej= -1.00D+00 NBFU=   242
 ExpMin= 1.61D-01 ExpMax= 5.48D+03 ExpMxC= 8.25D+02 IAcc=1 IRadAn=         1 AccDes= 0.00D+00
 Harris functional with IExCor=  402 and IRadAn=       1 diagonalized for initial guess.
 HarFok:  IExCor=  402 AccDes= 0.00D+00 IRadAn=         1 IDoV= 1 UseB2=F ITyADJ=14
 ICtDFT=  3500011 ScaDFX=  1.000000  1.000000  1.000000  1.000000
 FoFCou: FMM=F IPFlag=           0 FMFlag=      100000 FMFlg1=           0
         NFxFlg=           0 DoJE=T BraDBF=F KetDBF=T FulRan=T
         wScrn=  0.000000 ICntrl=     500 IOpCl=  0 I1Cent=   200000004 NGrid=           0
         NMat0=    1 NMatS0=      1 NMatT0=    0 NMatD0=    1 NMtDS0=    0 NMtDT0=    0
 Petite list used in FoFCou.
 Requested convergence on RMS density matrix=1.00D-08 within 128 cycles.
 Requested convergence on MAX density matrix=1.00D-06.
 Requested convergence on             energy=1.00D-06.
 No special actions if energy rises.
 Integral accuracy reduced to 1.0D-05 until final iterations.
 Initial convergence to 1.0D-05 achieved.  Increase integral accuracy.
 SCF Done:  E(RB3LYP) =  -839.961728050     A.U. after   14 cycles
            NFock= 14  Conv=0.51D-08     -V/T= 2.0086
 DoSCS=F DFT=T ScalE2(SS,OS)=  1.000000  1.000000
 Range of M.O.s used for correlation:     1   242
 NBasis=   242 NAE=    58 NBE=    58 NFC=     0 NFV=     0
 NROrb=    242 NOA=    58 NOB=    58 NVA=   184 NVB=   184
 Symmetrizing basis deriv contribution to polar:
 IMax=3 JMax=2 DiffMx= 0.00D+00
 G2DrvN: will do    31 centers at a time, making    1 passes.
 Calling FoFCou, ICntrl=  3107 FMM=F I1Cent=   0 AccDes= 0.00D+00.
 End of G2Drv F.D. properties file   721 does not exist.
 End of G2Drv F.D. properties file   722 does not exist.
 End of G2Drv F.D. properties file   788 does not exist.
          IDoAtm=111111111111111111111111111111
          Differentiating once with respect to nuclear coordinates.
          There are    93 degrees of freedom in the 1st order CPHF.  IDoFFX=6 NUNeed=     0.
     87 vectors produced by pass  0 Test12= 1.15D-14 1.08D-09 XBig12= 1.49D-01 6.03D-02.
 AX will form    87 AO Fock derivatives at one time.
     87 vectors produced by pass  1 Test12= 1.15D-14 1.08D-09 XBig12= 1.69D-02 2.32D-02.
     87 vectors produced by pass  2 Test12= 1.15D-14 1.08D-09 XBig12= 1.48D-04 1.35D-03.
     87 vectors produced by pass  3 Test12= 1.15D-14 1.08D-09 XBig12= 2.88D-07 6.45D-05.
     87 vectors produced by pass  4 Test12= 1.15D-14 1.08D-09 XBig12= 3.38D-10 2.54D-06.
     67 vectors produced by pass  5 Test12= 1.15D-14 1.08D-09 XBig12= 2.32D-13 3.53D-08.
      1 vectors produced by pass  6 Test12= 1.15D-14 1.08D-09 XBig12= 1.99D-16 1.27D-09.
 InvSVY:  IOpt=1 It=  1 EMax= 5.83D-16
 Solved reduced A of dimension   503 with    93 vectors.
 End of Minotr F.D. properties file   721 does not exist.
 End of Minotr F.D. properties file   722 does not exist.
 End of Minotr F.D. properties file   788 does not exist.

 **********************************************************************

            Population analysis using the SCF density.

 **********************************************************************

 Orbital symmetries:
       Occupied  (A) (A) (A) (A) (A) (A) (A) (A) (A) (A) (A) (A)
                 (A) (A) (A) (A) (A) (A) (A) (A) (A) (A) (A) (A)
                 (A) (A) (A) (A) (A) (A) (A) (A) (A) (A) (A) (A)
                 (A) (A) (A) (A) (A) (A) (A) (A) (A) (A) (A) (A)
                 (A) (A) (A) (A) (A) (A) (A) (A) (A) (A)
       Virtual   (A) (A) (A) (A) (A) (A) (A) (A) (A) (A) (A) (A)
                 (A) (A) (A) (A) (A) (A) (A) (A) (A) (A) (A) (A)
                 (A) (A) (A) (A) (A) (A) (A) (A) (A) (A) (A) (A)
                 (A) (A) (A) (A) (A) (A) (A) (A) (A) (A) (A) (A)
                 (A) (A) (A) (A) (A) (A) (A) (A) (A) (A) (A) (A)
                 (A) (A) (A) (A) (A) (A) (A) (A) (A) (A) (A) (A)
                 (A) (A) (A) (A) (A) (A) (A) (A) (A) (A) (A) (A)
                 (A) (A) (A) (A) (A) (A) (A) (A) (A) (A) (A) (A)
                 (A) (A) (A) (A) (A) (A) (A) (A) (A) (A) (A) (A)
                 (A) (A) (A) (A) (A) (A) (A) (A) (A) (A) (A) (A)
                 (A) (A) (A) (A) (A) (A) (A) (A) (A) (A) (A) (A)
                 (A) (A) (A) (A) (A) (A) (A) (A) (A) (A) (A) (A)
                 (A) (A) (A) (A) (A) (A) (A) (A) (A) (A) (A) (A)
                 (A) (A) (A) (A) (A) (A) (A) (A) (A) (A) (A) (A)
                 (A) (A) (A) (A) (A) (A) (A) (A) (A) (A) (A) (A)
                 (A) (A) (A) (A)
 The electronic state is 1-A.
 Alpha  occ. eigenvalues --  -19.17703 -19.17343 -19.16898 -19.15075 -19.14886
 Alpha  occ. eigenvalues --  -19.14239 -19.13875 -19.11240 -10.28431 -10.24961
 Alpha  occ. eigenvalues --  -10.24709 -10.23717 -10.23185 -10.23150  -1.05713
 Alpha  occ. eigenvalues --   -1.04391  -1.03283  -1.02058  -1.01509  -1.00555
 Alpha  occ. eigenvalues --   -1.00063  -0.97393  -0.77965  -0.75354  -0.69089
 Alpha  occ. eigenvalues --   -0.63582  -0.62340  -0.56336  -0.55869  -0.54581
 Alpha  occ. eigenvalues --   -0.53904  -0.53452  -0.51943  -0.50374  -0.48524
 Alpha  occ. eigenvalues --   -0.46627  -0.45898  -0.45144  -0.43405  -0.42728
 Alpha  occ. eigenvalues --   -0.41935  -0.41653  -0.40907  -0.38778  -0.36988
 Alpha  occ. eigenvalues --   -0.36426  -0.36014  -0.34908  -0.33604  -0.33000
 Alpha  occ. eigenvalues --   -0.31726  -0.31171  -0.29510  -0.27234  -0.27039
 Alpha  occ. eigenvalues --   -0.25867  -0.25822  -0.24933
 Alpha virt. eigenvalues --    0.03523   0.05228   0.05731   0.08399   0.08585
 Alpha virt. eigenvalues --    0.09798   0.11179   0.12855   0.13583   0.14091
 Alpha virt. eigenvalues --    0.15169   0.16580   0.16859   0.17422   0.19540
 Alpha virt. eigenvalues --    0.20566   0.20909   0.21937   0.23857   0.25381
 Alpha virt. eigenvalues --    0.26670   0.27948   0.28426   0.30456   0.30921
 Alpha virt. eigenvalues --    0.31808   0.32358   0.36811   0.50919   0.52573
 Alpha virt. eigenvalues --    0.54412   0.54760   0.57634   0.59308   0.59356
 Alpha virt. eigenvalues --    0.60611   0.62595   0.64326   0.65201   0.66295
 Alpha virt. eigenvalues --    0.68097   0.69279   0.71027   0.72443   0.73471
 Alpha virt. eigenvalues --    0.75844   0.76573   0.77611   0.78608   0.80953
 Alpha virt. eigenvalues --    0.81515   0.82083   0.82867   0.83739   0.85070
 Alpha virt. eigenvalues --    0.85432   0.86369   0.87367   0.89090   0.89365
 Alpha virt. eigenvalues --    0.90940   0.91401   0.93931   0.94816   0.96546
 Alpha virt. eigenvalues --    0.97997   0.98500   1.00870   1.02454   1.03334
 Alpha virt. eigenvalues --    1.03529   1.05687   1.06272   1.06886   1.08344
 Alpha virt. eigenvalues --    1.09042   1.11785   1.13551   1.14739   1.15810
 Alpha virt. eigenvalues --    1.17433   1.18704   1.20640   1.24140   1.27933
 Alpha virt. eigenvalues --    1.30034   1.30926   1.34001   1.38235   1.40575
 Alpha virt. eigenvalues --    1.41711   1.43054   1.46241   1.48637   1.53618
 Alpha virt. eigenvalues --    1.54465   1.55644   1.57853   1.59884   1.60410
 Alpha virt. eigenvalues --    1.62544   1.65287   1.67828   1.68294   1.68791
 Alpha virt. eigenvalues --    1.70469   1.71603   1.72362   1.73143   1.74205
 Alpha virt. eigenvalues --    1.76416   1.77163   1.78234   1.78348   1.80276
 Alpha virt. eigenvalues --    1.80550   1.83008   1.83819   1.85859   1.86331
 Alpha virt. eigenvalues --    1.88842   1.89763   1.90964   1.92195   1.95476
 Alpha virt. eigenvalues --    1.98795   2.00165   2.01461   2.03458   2.05373
 Alpha virt. eigenvalues --    2.07667   2.08477   2.10158   2.12838   2.15360
 Alpha virt. eigenvalues --    2.18669   2.22726   2.24420   2.26843   2.28572
 Alpha virt. eigenvalues --    2.31800   2.33457   2.37099   2.39171   2.39964
 Alpha virt. eigenvalues --    2.40461   2.46024   2.49510   2.51000   2.51740
 Alpha virt. eigenvalues --    2.54821   2.56258   2.56643   2.57314   2.60601
 Alpha virt. eigenvalues --    2.62025   2.66151   2.68457   2.71643   2.75194
 Alpha virt. eigenvalues --    2.76096   2.80418   2.82787   2.87464   2.90742
 Alpha virt. eigenvalues --    2.95653   2.95869   3.00337   3.05751   3.10252
 Alpha virt. eigenvalues --    3.72233   3.77039   3.77654   3.86974   3.89862
 Alpha virt. eigenvalues --    3.96103   4.05492   4.12730   4.25263   4.38662
 Alpha virt. eigenvalues --    4.45490   4.51219   4.65753   4.83680
          Condensed to atoms (all electrons):
               1          2          3          4          5          6
     1  C    4.804843   0.060640   0.304411  -0.017131  -0.000109  -0.000345
     2  O    0.060640   8.631564  -0.057201   0.003111   0.004119   0.000002
     3  O    0.304411  -0.057201   8.397867   0.128219  -0.000005   0.004736
     4  H   -0.017131   0.003111   0.128219   0.303390  -0.000285  -0.006274
     5  H   -0.000109   0.004119  -0.000005  -0.000285   0.360191  -0.000143
     6  H   -0.000345   0.000002   0.004736  -0.006274  -0.000143   0.377174
     7  O    0.009652  -0.001020  -0.095751   0.134255   0.004287   0.228199
     8  H    0.000020   0.005295   0.005800  -0.011181  -0.006298  -0.006775
     9  O    0.006098  -0.096810  -0.001978   0.006302   0.231537   0.004216
    10  H   -0.003453   0.111299   0.004468  -0.000960  -0.004767  -0.000075
    11  C   -0.002116  -0.027108  -0.001191  -0.000019   0.000004   0.000000
    12  C   -0.011815   0.121778   0.007763  -0.000341  -0.000056  -0.000021
    13  H    0.351861  -0.038529  -0.044821  -0.006134   0.000594  -0.000123
    14  H   -0.001164   0.001923   0.008751  -0.000036  -0.000000  -0.000005
    15  H    0.001809  -0.031938  -0.000156   0.000009   0.000010   0.000000
    16  O    0.000138   0.001360   0.000034  -0.000000  -0.000000  -0.000000
    17  H    0.000016   0.000019   0.000001   0.000000   0.000000   0.000000
    18  C   -0.000611  -0.022261  -0.002915   0.000285   0.000001   0.000085
    19  O    0.000024   0.001473   0.000018  -0.000001  -0.000000  -0.000000
    20  H   -0.000230   0.001548   0.000112  -0.000053   0.000001  -0.000026
    21  H    0.001086   0.000861   0.007816   0.000015   0.000017   0.000394
    22  H   -0.000001   0.000004  -0.000002   0.000000  -0.000000   0.000000
    23  C   -0.026404  -0.004556  -0.000420  -0.000071  -0.000001   0.000000
    24  H   -0.001892   0.002154   0.000056   0.000002  -0.000000   0.000000
    25  C    0.309440  -0.019108  -0.048295   0.002532   0.000011   0.000003
    26  H   -0.057349   0.002397   0.006508   0.000022  -0.000000  -0.000001
    27  O    0.002571   0.000054  -0.000030   0.000000  -0.000000   0.000000
    28  H   -0.000245  -0.000017   0.000003  -0.000000   0.000000  -0.000000
    29  O   -0.033888   0.000976   0.000967  -0.000045  -0.000000  -0.000000
    30  H    0.006901  -0.000155  -0.000128   0.000003   0.000000   0.000000
               7          8          9         10         11         12
     1  C    0.009652   0.000020   0.006098  -0.003453  -0.002116  -0.011815
     2  O   -0.001020   0.005295  -0.096810   0.111299  -0.027108   0.121778
     3  O   -0.095751   0.005800  -0.001978   0.004468  -0.001191   0.007763
     4  H    0.134255  -0.011181   0.006302  -0.000960  -0.000019  -0.000341
     5  H    0.004287  -0.006298   0.231537  -0.004767   0.000004  -0.000056
     6  H    0.228199  -0.006775   0.004216  -0.000075   0.000000  -0.000021
     7  O    8.517442   0.134826  -0.098894   0.005322  -0.000001  -0.000055
     8  H    0.134826   0.300079   0.127897  -0.008158   0.000022  -0.000444
     9  O   -0.098894   0.127897   8.521896   0.131899  -0.000139   0.004132
    10  H    0.005322  -0.008158   0.131899   0.288073   0.001819  -0.008817
    11  C   -0.000001   0.000022  -0.000139   0.001819   5.027910   0.299280
    12  C   -0.000055  -0.000444   0.004132  -0.008817   0.299280   5.007362
    13  H    0.003156  -0.001147   0.002442  -0.001070   0.000337   0.004072
    14  H    0.000007  -0.000007   0.000008  -0.000199   0.354028  -0.051318
    15  H   -0.000001   0.000010  -0.000020  -0.001280  -0.046089   0.357811
    16  O    0.000000  -0.000000   0.000000  -0.000016   0.208457  -0.041752
    17  H   -0.000000   0.000000  -0.000000   0.000003  -0.022655  -0.003975
    18  C   -0.000227   0.000184  -0.000686  -0.000766  -0.032901   0.333339
    19  O    0.000000   0.000001   0.000011  -0.000035   0.001617  -0.041368
    20  H    0.000008   0.000340   0.004370   0.002631   0.004991  -0.043268
    21  H    0.001102   0.000183  -0.000178  -0.000080  -0.010167  -0.038782
    22  H   -0.000000   0.000000   0.000002  -0.000024  -0.001661  -0.000762
    23  C   -0.000000  -0.000003   0.000006   0.000157   0.289372  -0.032094
    24  H   -0.000000  -0.000000   0.000003  -0.000080  -0.054345  -0.002084
    25  C   -0.000123   0.000094   0.000095   0.001262  -0.020547  -0.013016
    26  H    0.000003  -0.000003   0.000002  -0.000070  -0.002115   0.000717
    27  O   -0.000000   0.000000   0.000000   0.000001  -0.028249   0.003105
    28  H    0.000000  -0.000000  -0.000000   0.000000  -0.015278   0.000836
    29  O    0.000000  -0.000001  -0.000000  -0.000053   0.004260   0.000087
    30  H   -0.000000   0.000000  -0.000000   0.000005   0.000384  -0.000021
              13         14         15         16         17         18
     1  C    0.351861  -0.001164   0.001809   0.000138   0.000016  -0.000611
     2  O   -0.038529   0.001923  -0.031938   0.001360   0.000019  -0.022261
     3  O   -0.044821   0.008751  -0.000156   0.000034   0.000001  -0.002915
     4  H   -0.006134  -0.000036   0.000009  -0.000000   0.000000   0.000285
     5  H    0.000594  -0.000000   0.000010  -0.000000   0.000000   0.000001
     6  H   -0.000123  -0.000005   0.000000  -0.000000   0.000000   0.000085
     7  O    0.003156   0.000007  -0.000001   0.000000  -0.000000  -0.000227
     8  H   -0.001147  -0.000007   0.000010  -0.000000   0.000000   0.000184
     9  O    0.002442   0.000008  -0.000020   0.000000  -0.000000  -0.000686
    10  H   -0.001070  -0.000199  -0.001280  -0.000016   0.000003  -0.000766
    11  C    0.000337   0.354028  -0.046089   0.208457  -0.022655  -0.032901
    12  C    0.004072  -0.051318   0.357811  -0.041752  -0.003975   0.333339
    13  H    0.647157   0.000308  -0.000210   0.000003  -0.000000  -0.000120
    14  H    0.000308   0.611182   0.006861  -0.038225  -0.004009  -0.008373
    15  H   -0.000210   0.006861   0.624809   0.005211  -0.000149  -0.056717
    16  O    0.000003  -0.038225   0.005211   8.334742   0.224260  -0.000370
    17  H   -0.000000  -0.004009  -0.000149   0.224260   0.356668  -0.004323
    18  C   -0.000120  -0.008373  -0.056717  -0.000370  -0.004323   4.984990
    19  O    0.000001   0.000205   0.001702  -0.010711   0.040279   0.214350
    20  H    0.000005   0.000138  -0.004383  -0.000207   0.000395   0.359314
    21  H    0.000100   0.005547   0.005328   0.000142  -0.000018   0.364064
    22  H   -0.000000   0.000119   0.004937   0.001669  -0.002026  -0.028480
    23  C    0.003428  -0.045402  -0.007582  -0.033404   0.005280   0.003715
    24  H   -0.000196   0.007508   0.004619  -0.001224  -0.000255   0.000152
    25  C   -0.066051  -0.007018   0.000402   0.002044  -0.000185  -0.000163
    26  H    0.003737   0.004474   0.000016  -0.000131   0.000008   0.000018
    27  O   -0.000074   0.000558  -0.000069  -0.007352   0.000158  -0.000044
    28  H    0.000007   0.000332   0.000012   0.026688  -0.000648  -0.000015
    29  O    0.009654   0.000021   0.000011  -0.000011   0.000001  -0.000001
    30  H   -0.000529  -0.000014  -0.000004  -0.000001   0.000000   0.000000
              19         20         21         22         23         24
     1  C    0.000024  -0.000230   0.001086  -0.000001  -0.026404  -0.001892
     2  O    0.001473   0.001548   0.000861   0.000004  -0.004556   0.002154
     3  O    0.000018   0.000112   0.007816  -0.000002  -0.000420   0.000056
     4  H   -0.000001  -0.000053   0.000015   0.000000  -0.000071   0.000002
     5  H   -0.000000   0.000001   0.000017  -0.000000  -0.000001  -0.000000
     6  H   -0.000000  -0.000026   0.000394   0.000000   0.000000   0.000000
     7  O    0.000000   0.000008   0.001102  -0.000000  -0.000000  -0.000000
     8  H    0.000001   0.000340   0.000183   0.000000  -0.000003  -0.000000
     9  O    0.000011   0.004370  -0.000178   0.000002   0.000006   0.000003
    10  H   -0.000035   0.002631  -0.000080  -0.000024   0.000157  -0.000080
    11  C    0.001617   0.004991  -0.010167  -0.001661   0.289372  -0.054345
    12  C   -0.041368  -0.043268  -0.038782  -0.000762  -0.032094  -0.002084
    13  H    0.000001   0.000005   0.000100  -0.000000   0.003428  -0.000196
    14  H    0.000205   0.000138   0.005547   0.000119  -0.045402   0.007508
    15  H    0.001702  -0.004383   0.005328   0.004937  -0.007582   0.004619
    16  O   -0.010711  -0.000207   0.000142   0.001669  -0.033404  -0.001224
    17  H    0.040279   0.000395  -0.000018  -0.002026   0.005280  -0.000255
    18  C    0.214350   0.359314   0.364064  -0.028480   0.003715   0.000152
    19  O    8.235672  -0.025964  -0.030759   0.233838   0.000155  -0.000014
    20  H   -0.025964   0.588750  -0.035490  -0.008433  -0.000101   0.000007
    21  H   -0.030759  -0.035490   0.549107   0.006424  -0.000100   0.000007
    22  H    0.233838  -0.008433   0.006424   0.392528  -0.000009   0.000001
    23  C    0.000155  -0.000101  -0.000100  -0.000009   4.941404   0.345960
    24  H   -0.000014   0.000007   0.000007   0.000001   0.345960   0.658722
    25  C   -0.000005  -0.000023  -0.000019   0.000001   0.326001  -0.052141
    26  H   -0.000000  -0.000000   0.000000   0.000000  -0.041050   0.007500
    27  O   -0.000000   0.000000  -0.000002   0.000000   0.229717  -0.045739
    28  H    0.000006   0.000000  -0.000000  -0.000001  -0.029839  -0.000721
    29  O    0.000000  -0.000000   0.000000  -0.000000  -0.035207   0.003046
    30  H    0.000000  -0.000000   0.000000  -0.000000  -0.004852  -0.000361
              25         26         27         28         29         30
     1  C    0.309440  -0.057349   0.002571  -0.000245  -0.033888   0.006901
     2  O   -0.019108   0.002397   0.000054  -0.000017   0.000976  -0.000155
     3  O   -0.048295   0.006508  -0.000030   0.000003   0.000967  -0.000128
     4  H    0.002532   0.000022   0.000000  -0.000000  -0.000045   0.000003
     5  H    0.000011  -0.000000  -0.000000   0.000000  -0.000000   0.000000
     6  H    0.000003  -0.000001   0.000000  -0.000000  -0.000000   0.000000
     7  O   -0.000123   0.000003  -0.000000   0.000000   0.000000  -0.000000
     8  H    0.000094  -0.000003   0.000000  -0.000000  -0.000001   0.000000
     9  O    0.000095   0.000002   0.000000  -0.000000  -0.000000  -0.000000
    10  H    0.001262  -0.000070   0.000001   0.000000  -0.000053   0.000005
    11  C   -0.020547  -0.002115  -0.028249  -0.015278   0.004260   0.000384
    12  C   -0.013016   0.000717   0.003105   0.000836   0.000087  -0.000021
    13  H   -0.066051   0.003737  -0.000074   0.000007   0.009654  -0.000529
    14  H   -0.007018   0.004474   0.000558   0.000332   0.000021  -0.000014
    15  H    0.000402   0.000016  -0.000069   0.000012   0.000011  -0.000004
    16  O    0.002044  -0.000131  -0.007352   0.026688  -0.000011  -0.000001
    17  H   -0.000185   0.000008   0.000158  -0.000648   0.000001   0.000000
    18  C   -0.000163   0.000018  -0.000044  -0.000015  -0.000001   0.000000
    19  O   -0.000005  -0.000000  -0.000000   0.000006   0.000000   0.000000
    20  H   -0.000023  -0.000000   0.000000   0.000000  -0.000000  -0.000000
    21  H   -0.000019   0.000000  -0.000002  -0.000000   0.000000   0.000000
    22  H    0.000001   0.000000   0.000000  -0.000001  -0.000000  -0.000000
    23  C    0.326001  -0.041050   0.229717  -0.029839  -0.035207  -0.004852
    24  H   -0.052141   0.007500  -0.045739  -0.000721   0.003046  -0.000361
    25  C    4.938048   0.352060  -0.042501   0.006168   0.216637  -0.025120
    26  H    0.352060   0.601971   0.001263  -0.000110  -0.036049  -0.003757
    27  O   -0.042501   0.001263   8.307126   0.234735   0.000001   0.005154
    28  H    0.006168  -0.000110   0.234735   0.365807  -0.000141  -0.000216
    29  O    0.216637  -0.036049   0.000001  -0.000141   8.279366   0.235847
    30  H   -0.025120  -0.003757   0.005154  -0.000216   0.235847   0.382556
 Mulliken charges:
               1
     1  C    0.297242
     2  O   -0.651876
     3  O   -0.624637
     4  H    0.464383
     5  H    0.410893
     6  H    0.398978
     7  O   -0.842188
     8  H    0.459266
     9  O   -0.842209
    10  H    0.482967
    11  C    0.072100
    12  C    0.149705
    13  H    0.132142
    14  H    0.153799
    15  H    0.135042
    16  O   -0.671342
    17  H    0.411154
    18  C   -0.101522
    19  O   -0.620495
    20  H    0.155569
    21  H    0.173401
    22  H    0.401875
    23  C    0.115899
    24  H    0.129314
    25  C    0.139517
    26  H    0.159940
    27  O   -0.660384
    28  H    0.412638
    29  O   -0.645478
    30  H    0.404305
 Sum of Mulliken charges =  -0.00000
 Mulliken charges with hydrogens summed into heavy atoms:
               1
     1  C    0.429383
     2  O   -0.168909
     3  O   -0.624637
     7  O    0.021174
     9  O    0.027949
    11  C    0.225900
    12  C    0.284748
    16  O   -0.260189
    18  C    0.227448
    19  O   -0.218620
    23  C    0.245213
    25  C    0.299457
    27  O   -0.247746
    29  O   -0.241173
 APT charges:
               1
     1  C   -0.285424
     2  O   -0.393695
     3  O   -0.436262
     4  H    0.346628
     5  H    0.825382
     6  H    0.712501
     7  O   -1.063050
     8  H    0.372102
     9  O   -1.176562
    10  H    0.420192
    11  C   -0.126589
    12  C   -0.296244
    13  H    0.434634
    14  H    0.294394
    15  H    0.415820
    16  O   -0.800772
    17  H    0.599857
    18  C   -0.551306
    19  O   -0.890805
    20  H    0.464263
    21  H    0.281310
    22  H    0.758081
    23  C   -0.187880
    24  H    0.341401
    25  C   -0.241269
    26  H    0.426644
    27  O   -0.791088
    28  H    0.662975
    29  O   -0.922259
    30  H    0.807018
 Sum of APT charges =  -0.00000
 APT charges with hydrogens summed into heavy atoms:
               1
     1  C    0.149209
     2  O    0.026497
     3  O   -0.436262
     7  O   -0.003920
     9  O    0.020922
    11  C    0.167805
    12  C    0.119576
    16  O   -0.200915
    18  C    0.194267
    19  O   -0.132724
    23  C    0.153521
    25  C    0.185375
    27  O   -0.128113
    29  O   -0.115241
 Electronic spatial extent (au):  <R**2>=           3117.8228
 Charge=             -0.0000 electrons
 Dipole moment (field-independent basis, Debye):
    X=             -1.8291    Y=              2.9139    Z=              2.1437  Tot=              4.0536
 Quadrupole moment (field-independent basis, Debye-Ang):
   XX=            -80.0233   YY=            -81.7138   ZZ=            -82.6011
   XY=             -1.8027   XZ=             -1.2008   YZ=              0.3354
 Traceless Quadrupole moment (field-independent basis, Debye-Ang):
   XX=              1.4228   YY=             -0.2678   ZZ=             -1.1550
   XY=             -1.8027   XZ=             -1.2008   YZ=              0.3354
 Octapole moment (field-independent basis, Debye-Ang**2):
  XXX=            -26.7808  YYY=             30.6698  ZZZ=              3.9573  XYY=             10.5910
  XXY=             -0.7878  XXZ=              6.7925  XZZ=            -19.4578  YZZ=              5.8492
  YYZ=             21.3925  XYZ=              8.2047
 Hexadecapole moment (field-independent basis, Debye-Ang**3):
 XXXX=          -1763.7704 YYYY=          -1317.6011 ZZZZ=           -337.1082 XXXY=            -10.6189
 XXXZ=             11.4841 YYYX=            -13.3933 YYYZ=             80.8361 ZZZX=             -4.8816
 ZZZY=            -12.6498 XXYY=           -530.7388 XXZZ=           -301.5196 YYZZ=           -294.2352
 XXYZ=            -81.5425 YYXZ=            -23.4418 ZZXY=             11.6470
 N-N= 1.114816625814D+03 E-N=-4.202407365399D+03  KE= 8.327726922066D+02
  Exact polarizability:   0.000   0.000   0.000   0.000   0.000   0.000
 Approx polarizability: 138.334   3.390 131.676   0.749   0.916 133.414
 Calling FoFJK, ICntrl=    100147 FMM=F ISym2X=0 I1Cent= 0 IOpClX= 0 NMat=1 NMatS=1 NMatT=0.
 ***** Axes restored to original set *****
 -------------------------------------------------------------------
 Center     Atomic                   Forces (Hartrees/Bohr)
 Number     Number              X              Y              Z
 -------------------------------------------------------------------
      1        6          -0.000062691   -0.000360875    0.000353779
      2        8           0.000819855   -0.000253867    0.000349468
      3        8          -0.000784611    0.000217696   -0.000724969
      4        1           0.000079272   -0.000377377   -0.000667238
      5        1           0.000600954   -0.001551296   -0.002993058
      6        1          -0.000613637   -0.003367727   -0.002578541
      7        8           0.000091107    0.004286222    0.001842587
      8        1           0.000230860    0.000362900    0.000019492
      9        8          -0.001511705    0.001316830    0.004281308
     10        1          -0.000232690   -0.000346586   -0.000140353
     11        6          -0.000354478    0.000721279   -0.000220275
     12        6           0.000425677    0.000575862    0.000724891
     13        1           0.000171909    0.000125667    0.000286818
     14        1           0.000203441   -0.000236611   -0.000173400
     15        1          -0.000312358   -0.000112767   -0.000267628
     16        8           0.001820849   -0.000366344    0.000799256
     17        1          -0.000835289   -0.000815772   -0.000452182
     18        6           0.000111909   -0.000046975   -0.000117756
     19        8           0.000629752   -0.000149052   -0.000050854
     20        1          -0.000837501   -0.000291753    0.000164550
     21        1           0.000110872    0.000162633   -0.000579345
     22        1          -0.000031378   -0.000264446    0.000322997
     23        6          -0.000293744   -0.000050737    0.000370842
     24        1           0.000108240   -0.000120003    0.000131276
     25        6          -0.000031742    0.000765395   -0.000573132
     26        1          -0.000011432   -0.000105420    0.000516502
     27        8          -0.000186734    0.000433888   -0.001003644
     28        1           0.000463850   -0.000311444   -0.000252643
     29        8          -0.000684175    0.000144486    0.000251187
     30        1           0.000915618    0.000016192    0.000380066
 -------------------------------------------------------------------
 Cartesian Forces:  Max     0.004286222 RMS     0.001009624

 GradGradGradGradGradGradGradGradGradGradGradGradGradGradGradGradGradGrad
 Berny optimization.
 Search for a saddle point.
 Step number   1 out of a maximum of  180
 All quantities printed in internal units (Hartrees-Bohrs-Radians)
 Swapping is turned off.
 Second derivative matrix not updated -- analytic derivatives used.
 ITU=  0
     Eigenvalues ---   -0.10673   0.00032   0.00057   0.00140   0.00203
     Eigenvalues ---    0.00245   0.00386   0.00434   0.00497   0.00617
     Eigenvalues ---    0.00777   0.00933   0.01042   0.01197   0.01375
     Eigenvalues ---    0.01596   0.01697   0.01821   0.02080   0.02223
     Eigenvalues ---    0.02499   0.02778   0.02994   0.03261   0.03463
     Eigenvalues ---    0.03862   0.04122   0.04528   0.04947   0.05115
     Eigenvalues ---    0.05657   0.06340   0.06712   0.06898   0.07302
     Eigenvalues ---    0.07561   0.08078   0.08588   0.09011   0.09516
     Eigenvalues ---    0.09968   0.11125   0.11851   0.12250   0.13749
     Eigenvalues ---    0.14375   0.14983   0.15248   0.16096   0.17152
     Eigenvalues ---    0.18601   0.19851   0.20321   0.20850   0.22011
     Eigenvalues ---    0.22477   0.25255   0.27152   0.30249   0.31494
     Eigenvalues ---    0.33871   0.38845   0.45196   0.49652   0.54569
     Eigenvalues ---    0.58776   0.63288   0.63766   0.67030   0.69115
     Eigenvalues ---    0.71728   0.75936   0.80602   0.82824   0.86435
     Eigenvalues ---    0.88082   0.92758   0.94317   0.99175   1.02155
     Eigenvalues ---    1.03898   1.04351   1.06531   1.12444
 Eigenvectors required to have negative eigenvalues:
                          X10       Z8        X4        Y1        Z2
   1                    0.51832   0.50010  -0.46483   0.18713   0.17853
                          Z1        X9        X3        Z7        Y8
   1                   -0.17233  -0.16196   0.15920  -0.14808  -0.14246
 RFO step:  Lambda0=3.209157490D-07 Lambda=-6.85725443D-04.
 Linear search not attempted -- option 19 set.
 Maximum step size (   0.300) exceeded in Quadratic search.
    -- Step size scaled by   0.636
 B after Tr=    -0.001941   -0.000981    0.000512
         Rot=    1.000000    0.000036    0.000297    0.000077 Ang=   0.04 deg.
 Variable       Old X    -DE/DX   Delta X   Delta X   Delta X     New X
                                 (Linear)    (Quad)   (Total)
    X1        0.85144  -0.00006   0.00000  -0.00500  -0.00755   0.84389
    Y1       -2.67989  -0.00036   0.00000  -0.00485  -0.00593  -2.68582
    Z1        0.31341   0.00035   0.00000   0.01230   0.01350   0.32691
    X2        1.16937   0.00082   0.00000  -0.00530  -0.00619   1.16318
    Y2       -0.29146  -0.00025   0.00000  -0.00477  -0.00607  -0.29752
    Z2       -1.84046   0.00035   0.00000   0.00198   0.00320  -1.83726
    X3        1.80146  -0.00078   0.00000   0.00566   0.00195   1.80341
    Y3       -2.00341   0.00022   0.00000   0.00230   0.00122  -2.00219
    Z3        2.46235  -0.00072   0.00000   0.00390   0.00563   2.46797
    X4        4.25914   0.00008   0.00000  -0.00205  -0.00570   4.25344
    Y4       -2.01261  -0.00038   0.00000  -0.00155  -0.00301  -2.01562
    Z4        2.38275  -0.00067   0.00000  -0.01852  -0.01534   2.36741
    X5        6.34113   0.00060   0.00000   0.01181   0.01177   6.35290
    Y5       -1.28722  -0.00155   0.00000   0.11673   0.11452  -1.17270
    Z5       -3.45828  -0.00299   0.00000  -0.04957  -0.04520  -3.50348
    X6        7.00628  -0.00061   0.00000   0.04176   0.03787   7.04415
    Y6       -0.56189  -0.00337   0.00000  -0.05859  -0.06043  -0.62232
    Z6        3.13977  -0.00258   0.00000  -0.01870  -0.01396   3.12581
    X7        6.37562   0.00009   0.00000  -0.00119  -0.00457   6.37106
    Y7       -1.84326   0.00429   0.00000  -0.01317  -0.01499  -1.85825
    Z7        1.97605   0.00184   0.00000  -0.03612  -0.03169   1.94436
    X8        6.25255   0.00023   0.00000   0.00372   0.00179   6.25434
    Y8       -0.88306   0.00036   0.00000   0.01128   0.00932  -0.87374
    Z8       -0.23858   0.00002   0.00000  -0.01216  -0.00787  -0.24645
    X9        5.73287  -0.00151   0.00000  -0.01385  -0.01448   5.71839
    Y9       -0.08582   0.00132   0.00000   0.05076   0.04874  -0.03708
    Z9       -2.22134   0.00428   0.00000   0.00689   0.01080  -2.21054
   X10        3.41889  -0.00023   0.00000  -0.01640  -0.01708   3.40182
   Y10       -0.12173  -0.00035   0.00000   0.00874   0.00708  -0.11465
   Z10       -2.16972  -0.00014   0.00000   0.00343   0.00597  -2.16374
   X11       -2.42410  -0.00035   0.00000   0.00123  -0.00074  -2.42484
   Y11        1.51392   0.00072   0.00000  -0.00343  -0.00400   1.50991
   Z11        0.45193  -0.00022   0.00000  -0.00220  -0.00323   0.44870
   X12       -0.08090   0.00043   0.00000   0.00157   0.00065  -0.08025
   Y12        2.03602   0.00058   0.00000  -0.00015  -0.00120   2.03482
   Z12       -1.19643   0.00072   0.00000   0.00268   0.00300  -1.19343
   X13        1.89246   0.00017   0.00000  -0.01000  -0.01207   1.88039
   Y13       -4.05507   0.00013   0.00000  -0.00731  -0.00864  -4.06371
   Z13       -0.85265   0.00029   0.00000   0.01218   0.01410  -0.83855
   X14       -1.87361   0.00020   0.00000  -0.00018  -0.00336  -1.87697
   Y14        1.37167  -0.00024   0.00000  -0.01803  -0.01854   1.35313
   Z14        2.44844  -0.00017   0.00000  -0.00280  -0.00350   2.44494
   X15       -0.77170  -0.00031   0.00000  -0.00129  -0.00102  -0.77272
   Y15        2.84502  -0.00011   0.00000  -0.00059  -0.00167   2.84335
   Z15       -2.98087  -0.00027   0.00000   0.00271   0.00256  -2.97831
   X16       -4.25484   0.00182   0.00000   0.00363   0.00214  -4.25270
   Y16        3.47279  -0.00037   0.00000  -0.00496  -0.00527   3.46752
   Z16        0.13248   0.00080   0.00000   0.00745   0.00519   0.13767
   X17       -3.43648  -0.00084   0.00000  -0.00664  -0.00828  -3.44477
   Y17        4.99889  -0.00082   0.00000  -0.00817  -0.00856   4.99033
   Z17        0.76548  -0.00045   0.00000   0.02285   0.02095   0.78643
   X18        1.69109   0.00011   0.00000   0.01040   0.00902   1.70010
   Y18        3.94259  -0.00005   0.00000  -0.00889  -0.01013   3.93247
   Z18        0.08946  -0.00012   0.00000  -0.00097   0.00027   0.08973
   X19        0.36913   0.00063   0.00000   0.01647   0.01514   0.38427
   Y19        6.26392  -0.00015   0.00000  -0.01368  -0.01467   6.24925
   Z19        0.57087  -0.00005   0.00000   0.03312   0.03341   0.60428
   X20        3.40021  -0.00084   0.00000  -0.00507  -0.00572   3.39448
   Y20        4.27457  -0.00029   0.00000  -0.00128  -0.00286   4.27171
   Z20       -1.04291   0.00016   0.00000  -0.01853  -0.01631  -1.05922
   X21        2.26555   0.00011   0.00000   0.03378   0.03119   2.29674
   Y21        3.21002   0.00016   0.00000  -0.02387  -0.02506   3.18496
   Z21        1.93527  -0.00058   0.00000  -0.01534  -0.01369   1.92158
   X22        0.25182  -0.00003   0.00000   0.00102   0.00077   0.25259
   Y22        7.17514  -0.00026   0.00000  -0.00020  -0.00129   7.17385
   Z22       -1.01723   0.00032   0.00000   0.04254   0.04268  -0.97455
   X23       -3.65901  -0.00029   0.00000   0.00924   0.00738  -3.65163
   Y23       -0.95869  -0.00005   0.00000  -0.00012  -0.00056  -0.95925
   Z23       -0.35509   0.00037   0.00000  -0.02900  -0.03058  -0.38567
   X24       -3.90732   0.00011   0.00000   0.06640   0.06577  -3.84155
   Y24       -0.92299  -0.00012   0.00000  -0.01035  -0.01092  -0.93390
   Z24       -2.42330   0.00013   0.00000  -0.03552  -0.03722  -2.46053
   X25       -1.99613  -0.00003   0.00000  -0.00722  -0.00985  -2.00598
   Y25       -3.24812   0.00077   0.00000   0.00841   0.00776  -3.24035
   Z25        0.29668  -0.00057   0.00000   0.02826   0.02782   0.32450
   X26       -2.46283  -0.00001   0.00000  -0.00809  -0.01197  -2.47480
   Y26       -3.81011  -0.00011   0.00000   0.06050   0.06006  -3.75005
   Z26        2.23826   0.00052   0.00000   0.04442   0.04374   2.28200
   X27       -6.02449  -0.00019   0.00000  -0.02482  -0.02742  -6.05191
   Y27       -1.30227   0.00043   0.00000   0.00681   0.00682  -1.29545
   Z27        0.87193  -0.00100   0.00000  -0.09722  -0.10020   0.77173
   X28       -6.86277   0.00046   0.00000  -0.00550  -0.00781  -6.87058
   Y28        0.33449  -0.00031   0.00000   0.01596   0.01609   0.35058
   Z28        0.80553  -0.00025   0.00000  -0.09997  -0.10356   0.70197
   X29       -2.40234  -0.00068   0.00000  -0.01960  -0.02157  -2.42391
   Y29       -5.27914   0.00014   0.00000  -0.03304  -0.03375  -5.31289
   Z29       -1.41971   0.00025   0.00000   0.08229   0.08175  -1.33796
   X30       -4.20202   0.00092   0.00000  -0.01796  -0.02002  -4.22203
   Y30       -5.64103   0.00002   0.00000  -0.03362  -0.03404  -5.67507
   Z30       -1.38904   0.00038   0.00000   0.10938   0.10780  -1.28124
         Item               Value     Threshold  Converged?
 Maximum Force            0.004286     0.000450     NO 
 RMS     Force            0.001010     0.000300     NO 
 Maximum Displacement     0.114520     0.001800     NO 
 RMS     Displacement     0.031559     0.001200     NO 
 Predicted change in Energy=-3.280428D-04
 GradGradGradGradGradGradGradGradGradGradGradGradGradGradGradGradGradGrad

                          Input orientation:                          
 ---------------------------------------------------------------------
 Center     Atomic      Atomic             Coordinates (Angstroms)
 Number     Number       Type             X           Y           Z
 ---------------------------------------------------------------------
      1          6           0        0.446565   -1.421276    0.172996
      2          8           0        0.615528   -0.157443   -0.972236
      3          8           0        0.954322   -1.059511    1.305995
      4          1           0        2.250824   -1.066622    1.252781
      5          1           0        3.361811   -0.620568   -1.853960
      6          1           0        3.727605   -0.329318    1.654106
      7          8           0        3.371418   -0.983344    1.028913
      8          1           0        3.309654   -0.462365   -0.130414
      9          8           0        3.026041   -0.019623   -1.169770
     10          1           0        1.800164   -0.060670   -1.145004
     11          6           0       -1.283170    0.799012    0.237441
     12          6           0       -0.042468    1.076779   -0.631538
     13          1           0        0.995059   -2.150423   -0.443740
     14          1           0       -0.993251    0.716044    1.293808
     15          1           0       -0.408905    1.504637   -1.576052
     16          8           0       -2.250430    1.834932    0.072852
     17          1           0       -1.822892    2.640766    0.416161
     18          6           0        0.899656    2.080971    0.047481
     19          8           0        0.203347    3.306959    0.319769
     20          1           0        1.796284    2.260491   -0.560517
     21          1           0        1.215381    1.685407    1.016856
     22          1           0        0.133664    3.796237   -0.515709
     23          6           0       -1.932360   -0.507615   -0.204090
     24          1           0       -2.032861   -0.494201   -1.302055
     25          6           0       -1.061520   -1.714721    0.171718
     26          1           0       -1.309606   -1.984441    1.207582
     27          8           0       -3.202534   -0.685523    0.408380
     28          1           0       -3.635752    0.185516    0.371465
     29          8           0       -1.282677   -2.811458   -0.708019
     30          1           0       -2.234204   -3.003117   -0.678004
 ---------------------------------------------------------------------
                    Distance matrix (angstroms):
                    1          2          3          4          5
     1  C    0.000000
     2  O    1.713878   0.000000
     3  O    1.293205   2.473629   0.000000
     4  H    2.132385   2.907146   1.297613   0.000000
     5  H    3.639827   2.921300   3.996748   3.329429   0.000000
     6  H    3.761819   4.075811   2.888851   1.698694   3.539090
     7  O    3.078822   3.504517   2.434118   1.145768   2.905624
     8  H    3.034608   2.839006   2.822666   1.843766   1.731577
     9  O    3.228211   2.422517   3.391578   2.750622   0.970563
    10  H    2.328218   1.201073   2.778584   2.639016   1.804119
    11  C    2.815282   2.446054   3.098755   4.123181   5.288196
    12  C    2.669589   1.439562   3.051452   3.661150   3.995550
    13  H    1.101301   2.096502   2.062358   2.372710   3.151300
    14  H    2.810236   2.913092   2.635486   3.701838   5.537287
    15  H    3.514536   2.043665   4.091385   4.657019   4.337284
    16  O    4.229267   3.643554   4.490977   5.483843   6.421786
    17  H    4.659372   3.962766   4.711345   5.571340   6.532297
    18  C    3.533663   2.476095   3.383706   3.631218   4.120194
    19  O    4.736761   3.720383   4.539015   4.918423   5.488758
    20  H    3.989384   2.722150   3.900664   3.816325   3.524822
    21  H    3.309782   2.777122   2.772423   2.949825   4.262191
    22  H    5.272064   4.009014   5.250749   5.590825   5.632053
    23  C    2.576093   2.684102   3.304221   4.464749   5.546447
    24  H    3.030312   2.690009   4.005591   5.020439   5.424302
    25  C    1.536370   2.558562   2.404060   3.544059   4.986623
    26  H    2.114630   3.434482   2.447560   3.677104   5.749377
    27  O    3.729968   4.094211   4.269078   5.531488   6.943560
    28  H    4.391638   4.471749   4.846877   6.082462   7.387028
    29  O    2.387273   3.273651   3.482777   4.401683   5.261602
    30  H    3.226910   4.037995   4.228541   5.252944   6.194740
                    6          7          8          9         10
     6  H    0.000000
     7  O    0.972361   0.000000
     8  H    1.837633   1.272506   0.000000
     9  O    2.926154   2.425335   1.164783   0.000000
    10  H    3.409137   2.836561   1.862609   1.226814   0.000000
    11  C    5.328033   5.046624   4.777073   4.606486   3.486712
    12  C    4.627605   4.319239   3.722474   3.302656   2.225473
    13  H    3.896689   3.029499   2.881850   3.031884   2.346706
    14  H    4.848616   4.691314   4.683167   4.771282   3.788701
    15  H    5.559499   5.221756   4.448219   3.779853   2.741528
    16  O    6.551430   6.360968   6.019421   5.729278   4.635061
    17  H    6.415756   6.363215   6.022558   5.753695   4.781373
    18  C    4.048213   4.057443   3.508318   3.227338   2.611429
    19  O    5.236732   5.380173   4.905060   4.610041   4.004536
    20  H    3.916844   3.940787   3.144714   2.661280   2.393622
    21  H    3.282754   3.430871   3.211718   3.311639   2.839788
    22  H    5.885976   5.976061   5.326449   4.832642   4.248408
    23  C    5.959855   5.465956   5.242727   5.075078   3.875153
    24  H    6.476807   5.905836   5.469572   5.082835   3.860659
    25  C    5.201205   4.573909   4.557065   4.623971   3.557932
    26  H    5.320931   4.790210   5.044255   5.320728   4.348129
    27  O    7.050215   6.609887   6.538248   6.459809   5.275455
    28  H    7.491945   7.134347   6.993590   6.840831   5.648847
    29  O    6.069891   5.293348   5.190508   5.154863   4.154720
    30  H    6.937658   6.198068   6.122878   6.067393   5.015198
                   11         12         13         14         15
    11  C    0.000000
    12  C    1.540007   0.000000
    13  H    3.788601   3.395079   0.000000
    14  H    1.098566   2.177401   3.897317   0.000000
    15  H    2.133308   1.099748   4.075869   3.033057   0.000000
    16  O    1.426818   2.438454   5.165570   2.079216   2.493831
    17  H    1.927511   2.591069   5.624568   2.272251   2.694264
    18  C    2.538549   1.535273   4.260879   2.645648   2.163412
    19  O    2.916558   2.437029   5.567115   3.015532   2.686513
    20  H    3.500814   2.187973   4.484613   3.688542   2.542732
    21  H    2.763321   2.160975   4.110410   2.427843   3.064989
    22  H    3.399708   2.727616   6.009155   3.745915   2.582661
    23  C    1.524358   2.502940   3.365417   2.150108   2.872691
    24  H    2.145805   2.622829   3.556413   3.046963   2.589915
    25  C    2.524341   3.078338   2.190466   2.678127   3.720870
    26  H    2.947792   3.789336   2.840052   2.720319   4.553410
    27  O    2.432493   3.764725   4.526789   2.762120   4.066833
    28  H    2.434949   3.835629   5.250293   2.848682   3.993174
    29  O    3.732209   4.081955   2.386397   4.066245   4.488389
    30  H    4.024759   4.631568   3.348150   4.388641   4.945508
                   16         17         18         19         20
    16  O    0.000000
    17  H    0.974689   0.000000
    18  C    3.159782   2.803848   0.000000
    19  O    2.872082   2.135123   1.435978   0.000000
    20  H    4.118027   3.767883   1.098103   2.099392   0.000000
    21  H    3.595184   3.241088   1.093545   2.034594   1.776591
    22  H    3.142774   2.455933   1.961138   0.970707   2.263808
    23  C    2.380208   3.210763   3.845045   4.403026   4.657492
    24  H    2.713404   3.581113   4.129456   4.698910   4.774992
    25  C    3.744771   4.428285   4.274216   5.180644   4.950305
    26  H    4.093943   4.720418   4.770141   5.574598   5.549069
    27  O    2.715101   3.601066   4.961018   5.248599   5.882681
    28  H    2.174593   3.052328   4.926219   4.948207   5.889068
    29  O    4.809911   5.593063   5.410103   6.379627   5.935185
    30  H    4.895995   5.763661   6.016258   6.837709   6.630551
                   21         22         23         24         25
    21  H    0.000000
    22  H    2.823910   0.000000
    23  C    4.025956   4.784214   0.000000
    24  H    4.547429   4.870321   1.102637   0.000000
    25  C    4.178445   5.680817   1.535154   2.145968   0.000000
    26  H    4.458668   6.202338   2.135803   3.007023   1.098776
    27  O    5.050696   5.663067   1.421307   2.080944   2.387299
    28  H    5.118563   5.294608   1.926976   2.414942   3.205849
    29  O    5.425614   6.760520   2.446165   2.507057   1.423264
    30  H    6.062545   7.201691   2.557975   2.593191   1.938345
                   26         27         28         29         30
    26  H    0.000000
    27  O    2.430861   0.000000
    28  H    3.289188   0.973525   0.000000
    29  O    2.086674   3.074377   3.960316   0.000000
    30  H    2.334099   2.736628   3.637733   0.971101   0.000000
 Stoichiometry    C6H16O8
 Framework group  C1[X(C6H16O8)]
 Deg. of freedom    84
 Full point group                 C1      NOp   1
 Largest Abelian subgroup         C1      NOp   1
 Largest concise Abelian subgroup C1      NOp   1
                         Standard orientation:                         
 ---------------------------------------------------------------------
 Center     Atomic      Atomic             Coordinates (Angstroms)
 Number     Number       Type             X           Y           Z
 ---------------------------------------------------------------------
      1          6           0       -0.432525   -1.425843   -0.167759
      2          8           0       -0.613480   -0.160932    0.974445
      3          8           0       -0.946700   -1.072925   -1.300654
      4          1           0       -2.242925   -1.094626   -1.244705
      5          1           0       -3.352494   -0.652858    1.863155
      6          1           0       -3.728818   -0.375234   -1.644902
      7          8           0       -3.363929   -1.023484   -1.018712
      8          1           0       -3.305698   -0.498716    0.139087
      9          8           0       -3.024992   -0.049981    1.176661
     10          1           0       -1.798781   -0.077162    1.149436
     11          6           0        1.271720    0.813775   -0.241756
     12          6           0        0.029736    1.079766    0.629075
     13          1           0       -0.971418   -2.159512    0.452069
     14          1           0        0.980582    0.724673   -1.297288
     15          1           0        0.393235    1.514302    1.571674
     16          8           0        2.227477    1.861059   -0.081961
     17          1           0        1.790097    2.661056   -0.426523
     18          6           0       -0.925143    2.071354   -0.050647
     19          8           0       -0.243382    3.304437   -0.327666
     20          1           0       -1.822497    2.242310    0.558748
     21          1           0       -1.238352    1.669618   -1.018299
     22          1           0       -0.177541    3.796724    0.506356
     23          6           0        1.936632   -0.484196    0.201900
     24          1           0        2.039241   -0.466683    1.299612
     25          6           0        1.078799   -1.702128   -0.168859
     26          1           0        1.327796   -1.971800   -1.204516
     27          8           0        3.207480   -0.649308   -0.412753
     28          1           0        3.630842    0.226694   -0.379071
     29          8           0        1.314226   -2.793907    0.713339
     30          1           0        2.267807   -2.974822    0.681842
 ---------------------------------------------------------------------
 Rotational constants (GHZ):      0.7175602      0.5555328      0.3675059
 Standard basis: 6-31G(d) (6D, 7F)
 There are   242 symmetry adapted cartesian basis functions of A   symmetry.
 There are   242 symmetry adapted basis functions of A   symmetry.
   242 basis functions,   456 primitive gaussians,   242 cartesian basis functions
    58 alpha electrons       58 beta electrons
       nuclear repulsion energy      1115.3518033795 Hartrees.
 NAtoms=   30 NActive=   30 NUniq=   30 SFac= 1.00D+00 NAtFMM=   60 NAOKFM=F Big=F
 Integral buffers will be    131072 words long.
 Raffenetti 2 integral format.
 Two-electron integral symmetry is turned on.
 One-electron integrals computed using PRISM.
 NBasis=   242 RedAO= T EigKep=  1.35D-03  NBF=   242
 NBsUse=   242 1.00D-06 EigRej= -1.00D+00 NBFU=   242
 Initial guess from the checkpoint file:  "ttt.chk"
 B after Tr=    -0.000000   -0.000000   -0.000000
         Rot=    0.999982    0.001294   -0.000503   -0.005813 Ang=   0.68 deg.
 ExpMin= 1.61D-01 ExpMax= 5.48D+03 ExpMxC= 8.25D+02 IAcc=1 IRadAn=         1 AccDes= 0.00D+00
 Harris functional with IExCor=  402 and IRadAn=       1 diagonalized for initial guess.
 HarFok:  IExCor=  402 AccDes= 0.00D+00 IRadAn=         1 IDoV= 1 UseB2=F ITyADJ=14
 ICtDFT=  3500011 ScaDFX=  1.000000  1.000000  1.000000  1.000000
 FoFCou: FMM=F IPFlag=           0 FMFlag=      100000 FMFlg1=           0
         NFxFlg=           0 DoJE=T BraDBF=F KetDBF=T FulRan=T
         wScrn=  0.000000 ICntrl=     500 IOpCl=  0 I1Cent=   200000004 NGrid=           0
         NMat0=    1 NMatS0=      1 NMatT0=    0 NMatD0=    1 NMtDS0=    0 NMtDT0=    0
 Petite list used in FoFCou.
 Requested convergence on RMS density matrix=1.00D-08 within 128 cycles.
 Requested convergence on MAX density matrix=1.00D-06.
 Requested convergence on             energy=1.00D-06.
 No special actions if energy rises.
 Integral accuracy reduced to 1.0D-05 until final iterations.
 Initial convergence to 1.0D-05 achieved.  Increase integral accuracy.
 SCF Done:  E(RB3LYP) =  -839.962056652     A.U. after   11 cycles
            NFock= 11  Conv=0.39D-08     -V/T= 2.0086
 Calling FoFJK, ICntrl=      2127 FMM=F ISym2X=0 I1Cent= 0 IOpClX= 0 NMat=1 NMatS=1 NMatT=0.
 ***** Axes restored to original set *****
 -------------------------------------------------------------------
 Center     Atomic                   Forces (Hartrees/Bohr)
 Number     Number              X              Y              Z
 -------------------------------------------------------------------
      1        6          -0.000058815   -0.000139871    0.000177497
      2        8           0.000311402   -0.000094898    0.000133669
      3        8          -0.000284342    0.000073643   -0.000303741
      4        1           0.000032331   -0.000143615   -0.000242176
      5        1          -0.000204305    0.000117978   -0.000286793
      6        1          -0.000323285   -0.001676996   -0.001260602
      7        8           0.000113366    0.001967767    0.000902993
      8        1           0.000115251    0.000159565   -0.000044107
      9        8          -0.000175352   -0.000093896    0.000851317
     10        1          -0.000057393   -0.000144557   -0.000085444
     11        6          -0.000240461    0.000237820   -0.000076684
     12        6           0.000186922    0.000225116    0.000273556
     13        1           0.000053079    0.000042169    0.000119043
     14        1           0.000062709   -0.000093100   -0.000086907
     15        1          -0.000108713   -0.000045213   -0.000096922
     16        8           0.000698861   -0.000096278    0.000301718
     17        1          -0.000330534   -0.000326958   -0.000151246
     18        6           0.000058049    0.000004212   -0.000003189
     19        8           0.000277216   -0.000097251   -0.000064367
     20        1          -0.000358470   -0.000106769    0.000077116
     21        1           0.000051608    0.000069253   -0.000296713
     22        1          -0.000007352   -0.000137636    0.000202522
     23        6          -0.000291974   -0.000169927    0.000023108
     24        1           0.000088199   -0.000069543    0.000314493
     25        6          -0.000227036    0.000132381   -0.000164334
     26        1           0.000036245    0.000038253   -0.000024832
     27        8           0.000243600    0.000233533   -0.000604725
     28        1           0.000207114   -0.000145725   -0.000152012
     29        8          -0.000281991    0.000251470    0.000326385
     30        1           0.000414071    0.000029072    0.000241375
 -------------------------------------------------------------------
 Cartesian Forces:  Max     0.001967767 RMS     0.000388102

 GradGradGradGradGradGradGradGradGradGradGradGradGradGradGradGradGradGrad
 Berny optimization.
 Search for a saddle point.
 Step number   2 out of a maximum of  180
 All quantities printed in internal units (Hartrees-Bohrs-Radians)
 Swapping is turned off.
 Update second derivatives using D2CorN and points    1    2
 ITU=  0  0
     Eigenvalues ---   -0.10672   0.00033   0.00059   0.00148   0.00202
     Eigenvalues ---    0.00245   0.00388   0.00434   0.00496   0.00618
     Eigenvalues ---    0.00777   0.00933   0.01039   0.01198   0.01375
     Eigenvalues ---    0.01596   0.01698   0.01819   0.02081   0.02224
     Eigenvalues ---    0.02499   0.02779   0.02994   0.03262   0.03465
     Eigenvalues ---    0.03862   0.04124   0.04529   0.04949   0.05116
     Eigenvalues ---    0.05656   0.06345   0.06712   0.06897   0.07302
     Eigenvalues ---    0.07562   0.08079   0.08588   0.09014   0.09513
     Eigenvalues ---    0.09967   0.11125   0.11850   0.12249   0.13750
     Eigenvalues ---    0.14372   0.14982   0.15251   0.16099   0.17150
     Eigenvalues ---    0.18599   0.19852   0.20317   0.20843   0.22005
     Eigenvalues ---    0.22477   0.25251   0.27152   0.30248   0.31493
     Eigenvalues ---    0.33869   0.38851   0.45177   0.49635   0.54565
     Eigenvalues ---    0.58779   0.63287   0.63763   0.67031   0.69113
     Eigenvalues ---    0.71735   0.75947   0.80605   0.82827   0.86431
     Eigenvalues ---    0.88085   0.92757   0.94314   0.99181   1.02188
     Eigenvalues ---    1.03894   1.04340   1.06530   1.12445
 Eigenvectors required to have negative eigenvalues:
                          X10       Z8        X4        Y1        Z2
   1                    0.51840   0.50021  -0.46483   0.18709   0.17855
                          Z1        X9        X3        Z7        Y8
   1                   -0.17232  -0.16185   0.15908  -0.14789  -0.14251
 RFO step:  Lambda0=6.095471863D-08 Lambda=-2.44811638D-04.
 Linear search not attempted -- option 19 set.
 Maximum step size (   0.300) exceeded in Quadratic search.
    -- Step size scaled by   0.625
 B after Tr=    -0.001138   -0.001049   -0.000110
         Rot=    1.000000    0.000072    0.000163   -0.000040 Ang=   0.02 deg.
 Variable       Old X    -DE/DX   Delta X   Delta X   Delta X     New X
                                 (Linear)    (Quad)   (Total)
    X1        0.84389  -0.00006   0.00000   0.00071  -0.00032   0.84357
    Y1       -2.68582  -0.00014   0.00000   0.00072  -0.00022  -2.68604
    Z1        0.32691   0.00018   0.00000   0.00991   0.01046   0.33737
    X2        1.16318   0.00031   0.00000  -0.00221  -0.00272   1.16045
    Y2       -0.29752  -0.00009   0.00000   0.00463   0.00341  -0.29411
    Z2       -1.83726   0.00013   0.00000   0.00430   0.00461  -1.83265
    X3        1.80341  -0.00028   0.00000   0.01938   0.01760   1.82101
    Y3       -2.00219   0.00007   0.00000  -0.00097  -0.00151  -2.00370
    Z3        2.46797  -0.00030   0.00000   0.00118   0.00195   2.46992
    X4        4.25344   0.00003   0.00000   0.01445   0.01271   4.26615
    Y4       -2.01562  -0.00014   0.00000  -0.01088  -0.01125  -2.02688
    Z4        2.36741  -0.00024   0.00000  -0.02350  -0.02193   2.34549
    X5        6.35290  -0.00020   0.00000  -0.00703  -0.00692   6.34598
    Y5       -1.17270   0.00012   0.00000   0.05946   0.05841  -1.11430
    Z5       -3.50348  -0.00029   0.00000  -0.03748  -0.03537  -3.53884
    X6        7.04415  -0.00032   0.00000   0.04762   0.04552   7.08968
    Y6       -0.62232  -0.00168   0.00000  -0.05804  -0.05807  -0.68039
    Z6        3.12581  -0.00126   0.00000  -0.03033  -0.02803   3.09778
    X7        6.37106   0.00011   0.00000   0.01361   0.01200   6.38306
    Y7       -1.85825   0.00197   0.00000  -0.02380  -0.02407  -1.88232
    Z7        1.94436   0.00090   0.00000  -0.04427  -0.04203   1.90233
    X8        6.25434   0.00012   0.00000   0.00740   0.00642   6.26076
    Y8       -0.87374   0.00016   0.00000   0.00452   0.00393  -0.86982
    Z8       -0.24645  -0.00004   0.00000  -0.02528  -0.02323  -0.26967
    X9        5.71839  -0.00018   0.00000  -0.00683  -0.00724   5.71115
    Y9       -0.03708  -0.00009   0.00000   0.03158   0.03067  -0.00641
    Z9       -2.21054   0.00085   0.00000  -0.01183  -0.01008  -2.22063
   X10        3.40182  -0.00006   0.00000  -0.00687  -0.00729   3.39453
   Y10       -0.11465  -0.00014   0.00000   0.01261   0.01152  -0.10313
   Z10       -2.16374  -0.00009   0.00000  -0.00233  -0.00132  -2.16506
   X11       -2.42484  -0.00024   0.00000  -0.00854  -0.00994  -2.43478
   Y11        1.50991   0.00024   0.00000   0.00324   0.00206   1.51198
   Z11        0.44870  -0.00008   0.00000  -0.01270  -0.01382   0.43488
[...]
 56,-0.00189749,-0.00494812,-0.00149097,-0.00019913,-0.00035293,0.00057
 657,0.00050160,0.00244034,0.00158350,-0.00021664,0.00030945,0.00018981
 ,0.00027462,-0.00021114,-0.00010527,-0.00004828,-0.00002844,0.00012161
 ,-0.00000173,-0.00005263,0.00010167,0.00011462,0.00001205,0.00016105,-
 0.00007693,-0.00001649,-0.00000203,-0.00062013,-0.05364309,-0.00760069
 ,0.00472897,0.05606454,0.00067182,0.00159835,-0.00161531,0.00122536,0.
 00053837,0.00152533,-0.00044779,-0.00013608,0.00050429,0.00035798,-0.0
 0000533,-0.00004899,-0.00000441,0.00001249,-0.00001957,0.00001241,-0.0
 0000041,-0.00000703,-0.00021925,-0.00006795,0.00019761,-0.00004566,0.0
 0012162,-0.00028163,0.00031635,-0.00007585,0.00011186,-0.00048971,0.00
 003374,0.00025339,-0.00390270,0.00005183,-0.01211198,0.00102429,-0.000
 61365,-0.00054265,-0.00037256,-0.00006811,0.00019308,-0.00038887,-0.00
 179124,0.00034074,-0.00051810,-0.00060234,0.00049954,0.00053709,-0.000
 25338,0.00151378,0.00008656,0.00005698,0.00011165,0.00002052,-0.000355
 25,0.00028996,-0.00008965,0.00013633,0.00005386,-0.00006475,-0.0000952
 9,0.00001657,0.00019308,0.00017713,0.00007124,-0.00003173,-0.00001978,
 -0.00001182,-0.02124001,-0.00632893,-0.28983468,0.00973542,0.00601610,
 0.31987862,-0.17646561,0.00409919,0.02498048,-0.00120345,0.00036746,0.
 00253496,-0.01814864,-0.00986318,-0.01682948,0.00269517,-0.00165121,0.
 00054314,-0.00000280,0.00002175,0.00007820,0.00001767,-0.00000175,-0.0
 0004423,-0.00110945,0.00023810,0.00057288,-0.00008598,0.00024963,-0.00
 067017,0.00136942,-0.00013059,0.00027102,-0.00230397,0.00057727,-0.000
 02154,0.01286995,-0.00229084,0.00635163,0.00147647,-0.00177547,-0.0010
 0726,-0.01531670,-0.00433682,0.00170921,0.00048229,-0.00036236,-0.0006
 2173,-0.00007781,0.00086394,0.00020415,-0.00129642,-0.00581554,-0.0013
 9904,0.00124956,-0.00102853,0.00003735,-0.00049737,-0.00026638,-0.0002
 1541,-0.00038308,0.00060148,0.00025006,-0.00010327,-0.00010008,-0.0000
 3096,-0.00002993,-0.00014900,-0.00000706,0.00006450,-0.00002068,-0.000
 00516,-0.10209399,0.02170251,-0.02308387,-0.00032990,0.00588100,-0.002
 88819,0.51823295,-0.01328926,-0.07710081,-0.00662627,-0.01519808,-0.01
 168168,0.01093481,-0.01041297,0.00716422,0.00066214,-0.00129822,0.0027
 1523,-0.00109316,-0.00023108,-0.00012070,0.00021169,-0.00041831,0.0000
 9502,-0.00004036,0.00090917,-0.00070316,-0.00003760,-0.00058861,-0.000
 35678,0.00043269,-0.00036743,0.00079361,-0.00072600,0.00164878,-0.0019
 0088,0.00159304,0.01065362,-0.02627014,0.00570876,-0.00288675,0.000831
 88,0.00132680,0.02144336,0.00566686,-0.00582141,0.00070320,0.00062182,
 0.00052449,0.00021436,0.00002495,-0.00035569,-0.00259002,-0.00037621,-
 0.00098023,0.00042438,-0.00057790,0.00017170,0.00042647,-0.00058039,-0
 .00029457,0.00014715,0.00029396,-0.00008606,0.00024992,0.00035001,0.00
 007496,-0.00007940,-0.00005507,-0.00012895,-0.00008408,-0.00016427,-0.
 00001958,0.04973172,-0.12654542,0.03521973,0.00034928,-0.00235575,-0.0
 0107969,0.01181491,0.46893441,0.01794522,0.00298062,-0.07014040,0.0158
 0867,0.00965719,-0.00796736,-0.03965221,-0.00742260,-0.01033911,0.0055
 1851,-0.00234801,-0.00252494,0.00004836,-0.00002151,0.00016023,0.00010
 973,-0.00001946,0.00012031,-0.00402851,0.00015196,0.00207729,-0.000354
 16,0.00053735,-0.00147137,0.00177629,-0.00049495,0.00077888,-0.0035076
 7,0.00168339,-0.00068154,0.00842320,-0.00859025,0.00327543,0.00124291,
 -0.00097310,-0.00126732,0.01429694,-0.00164049,0.00247848,0.00005016,-
 0.00182314,-0.00040157,0.00021660,0.00005653,0.00002131,-0.00137065,-0
 .00326214,-0.00053896,0.00066258,-0.00085861,0.00063555,-0.00019146,-0
 .00023809,0.00031078,-0.00012721,0.00025714,0.00008614,-0.00012723,-0.
 00003531,-0.00008628,-0.00004017,0.00008488,0.00003600,0.00002760,-0.0
 0004010,-0.00001271,-0.02577867,0.03358853,-0.09393606,-0.01910512,0.0
 2716022,-0.01351445,-0.02574114,-0.00741097,0.58913021,-0.01091320,-0.
 00754724,0.03088317,-0.00364267,-0.00170053,0.00086805,0.00278639,0.00
 038386,-0.00102897,-0.00119094,0.00013833,0.00022748,0.00002820,0.0000
 2884,-0.00005812,0.00000053,-0.00000905,0.00001246,0.00078554,0.000122
 31,-0.00055518,0.00015225,-0.00017956,0.00055943,-0.00076900,0.0000931
 3,-0.00028744,0.00144709,-0.00040257,0.00016157,-0.00079957,-0.0009234
 0,-0.00038111,-0.00083077,0.00095522,0.00012972,-0.00231421,0.00029558
 ,-0.00046069,0.00010713,-0.00005957,0.00016427,0.00004312,-0.00011130,
 0.00004033,0.00007909,0.00051640,0.00015462,-0.00012741,0.00006573,0.0
 0010954,0.00013453,0.00001362,0.00008467,0.00006989,-0.00017349,-0.000
 09945,0.00003032,0.00003032,-0.00000209,-0.00001267,-0.00002348,-0.000
 00498,-0.00001320,0.00001415,-0.00000457,0.00301370,0.00807602,-0.0180
 0946,-0.00180938,0.00221657,-0.00096494,-0.06406975,-0.01257989,0.0565
 8375,0.06996140,0.00003215,0.00094337,0.00550854,-0.00165995,-0.000948
 23,0.00053900,0.00001345,0.00026363,-0.00032428,-0.00021787,-0.0000699
 2,-0.00000837,-0.00001073,-0.00001094,-0.00002316,0.00000732,0.0000018
 6,0.00001124,0.00007905,0.00005587,-0.00012017,0.00004090,-0.00007190,
 0.00016573,-0.00043900,0.00006346,-0.00005158,0.00076059,-0.00018843,-
 0.00002701,0.00039229,0.00183262,0.00150464,-0.00023263,0.00067796,0.0
 0035107,-0.00057064,-0.00043479,-0.00001662,-0.00025392,-0.00060951,-0
 .00053118,0.00001283,0.00004620,-0.00007893,0.00010514,-0.00021442,-0.
 00061996,0.00002061,-0.00005362,-0.00005890,0.00003516,0.00008622,-0.0
 0000977,-0.00001114,-0.00011271,-0.00005968,-0.00000316,-0.00000732,-0
 .00000844,-0.00004599,-0.00005476,-0.00002520,0.00001309,0.00003165,0.
 00000199,-0.00398970,-0.00574678,0.02722121,0.00290114,-0.00349569,0.0
 0106721,-0.01308286,-0.06058066,0.05019046,0.01246657,0.07129411,-0.00
 039806,0.00168527,-0.00414380,0.00100862,-0.00035032,0.00036983,-0.002
 94016,-0.00059341,0.00243944,0.00083298,-0.00015451,0.00017715,-0.0000
 0792,-0.00000850,-0.00000459,-0.00002715,0.00000717,0.00001141,-0.0006
 2495,-0.00009398,0.00020754,-0.00003050,0.00017769,-0.00043792,0.00037
 616,-0.00010131,0.00022955,-0.00061655,0.00006145,-0.00005782,-0.00106
 192,-0.00037586,-0.00076457,-0.00010394,-0.00045962,0.00019644,-0.0000
 0532,0.00007918,-0.00004027,0.00018710,0.00051651,0.00055650,-0.000102
 03,-0.00004302,0.00007145,0.00018520,0.00029439,0.00041707,-0.00008227
 ,0.00013731,-0.00006653,-0.00002715,-0.00000553,-0.00008066,0.00001811
 ,0.00004056,0.00004572,0.00000452,-0.00000855,0.00000511,0.00002930,0.
 00002968,0.00002578,-0.00000689,-0.00001789,0.00000033,0.00399943,0.00
 564961,-0.01272023,-0.00073356,0.00129544,-0.00000537,0.05647733,0.050
 37638,-0.27551571,-0.05775055,-0.04287701,0.30593727,0.00317531,0.0052
 0711,0.00268024,-0.00096403,0.00004061,-0.00079722,-0.00273180,-0.0007
 9137,-0.00255868,0.00258099,-0.00023527,-0.00008495,0.00015113,0.00006
 941,-0.00016128,0.00018311,-0.00008901,0.00011949,-0.00168030,0.000235
 69,0.00001813,0.00033885,-0.00010664,0.00025736,-0.00166597,-0.0000879
 9,0.00013049,0.00264097,0.00007587,-0.00055043,-0.03800576,-0.00945834
 ,0.01424822,0.00138216,-0.00479195,-0.00394569,-0.00174492,-0.00039290
 ,0.00025474,0.00144106,0.00116188,-0.00053825,-0.00053039,-0.00019762,
 0.00040265,0.00442983,0.00358627,0.00032844,0.00004106,0.00096647,-0.0
 0017483,-0.00154647,0.00132137,0.00194379,0.00066753,-0.00103567,-0.00
 023416,-0.00051943,-0.00080718,-0.00039427,0.00006174,0.00000208,0.000
 00158,-0.00007481,0.00033625,0.00004926,-0.19585804,-0.03845740,0.0620
 5862,-0.01529322,-0.00217996,0.01575287,-0.04053022,0.00141520,0.00886
 034,0.00157176,-0.00164235,0.00115147,0.39862699,-0.00057485,-0.008611
 29,0.00105946,-0.00010856,0.00326571,-0.00063845,0.00175198,0.00174387
 ,0.00107386,-0.00127786,-0.00002510,0.00019236,-0.00004197,-0.00006656
 ,0.00002379,0.00001749,-0.00006520,0.00000658,0.00072309,0.00029368,-0
 .00043255,0.00005678,-0.00039580,0.00052431,-0.00029814,0.00040311,-0.
 00022392,0.00040647,0.00001295,-0.00008340,-0.03124126,-0.00748925,0.0
 1585118,0.00045816,-0.00780810,-0.00485094,0.00173643,0.00069307,-0.00
 031447,0.00099583,0.00145795,0.00024839,-0.00035147,0.00020905,0.00021
 666,-0.00405134,-0.00264130,0.00058531,-0.00161204,0.00154792,0.001230
 31,-0.00135247,0.00016789,0.00187178,-0.00077880,-0.00008545,-0.000054
 68,-0.00059928,-0.00070334,-0.00036587,0.00002758,-0.00004531,-0.00011
 552,0.00012007,0.00026433,-0.00000871,0.01050087,-0.09526685,0.0063793
 5,-0.00215058,0.00461574,0.00184585,0.03469550,0.00353945,-0.01207003,
 -0.00080933,0.00200939,-0.00168875,-0.15014233,0.49610080,-0.00163210,
 0.00140073,-0.00101800,0.00103389,0.00064471,0.00087626,0.00039873,0.0
 0024066,0.00088190,-0.00013207,0.00002273,-0.00004916,-0.00004829,0.00
 000342,-0.00001430,-0.00000654,0.00001063,-0.00003467,0.00010210,-0.00
 009436,0.00019533,-0.00008937,0.00012876,-0.00033087,0.00048694,-0.000
 03914,0.00014843,-0.00072498,-0.00003662,0.00018479,-0.00130344,0.0010
 7923,0.00513922,-0.00006625,-0.00238937,0.00044778,-0.00029731,-0.0000
 2244,0.00011843,0.00106539,0.00244123,0.00203252,-0.00060857,-0.000497
 46,0.00043857,-0.00134913,-0.00100854,0.00230366,0.00028044,-0.0001481
 6,0.00012846,0.00005216,-0.00051474,0.00017924,-0.00024915,0.00024944,
 0.00008574,-0.00006315,-0.00002087,-0.00001202,0.00011514,0.00010685,0
 .00002506,0.00001201,-0.00002696,-0.00003670,0.05321930,0.02142232,-0.
 09658636,0.04133217,0.00545057,-0.00979553,-0.00420010,-0.00064130,0.0
 0369067,-0.00040988,-0.00150472,0.00206988,-0.08988517,-0.05994838,0.1
 0291990,0.00020159,0.00295482,-0.00043483,0.00084676,-0.00107916,0.000
 02555,-0.00010340,-0.00061177,-0.00022231,-0.00005382,0.00000595,-0.00
 004212,-0.00001811,0.00000223,0.00002457,-0.00004358,0.00003829,-0.000
 02207,0.00008562,-0.00012503,0.00013560,-0.00008047,0.00014718,-0.0002
 1375,0.00047094,-0.00010855,0.00005163,-0.00070854,-0.00003235,0.00009
 527,-0.00323885,0.00264365,-0.00121264,-0.00075046,0.00149066,0.001006
 19,-0.00052640,-0.00025314,0.00011043,-0.00003054,-0.00031205,-0.00002
 634,0.00008704,-0.00006748,-0.00006753,0.00088584,0.00174893,0.0004350
 4,0.00115603,-0.00068498,-0.00085552,0.00001916,0.00002418,-0.00039622
 ,0.00082267,0.00025729,0.00010076,0.00020696,0.00017952,0.00004888,-0.
 00002067,0.00000993,0.00003654,-0.00012550,-0.00022659,0.00000034,-0.0
 2717232,0.03828112,-0.00192895,0.00053910,-0.00003231,0.00007749,-0.00
 835555,-0.00219705,0.00321880,0.00020526,-0.00041154,0.00019700,-0.117
 41867,0.14472755,0.00336900,0.15256306,0.00031843,0.00123374,-0.000428
 59,0.00057035,-0.00105492,-0.00025546,-0.00032263,-0.00041112,-0.00005
 569,0.00019131,0.00001937,-0.00003584,0.00000935,0.00001232,0.00000339
 ,-0.00001308,0.00002303,-0.00000446,-0.00010489,-0.00007872,0.00008071
 ,-0.00001879,0.00008495,-0.00010462,0.00010073,-0.00007335,0.00003771,
 -0.00009543,-0.00006615,-0.00000758,-0.00587226,0.00284591,0.00022767,
 0.00023792,-0.00030194,0.00029259,-0.00016739,-0.00008263,0.00009584,0
 .00051105,-0.00042496,0.00012235,-0.00011283,-0.00007940,0.00012226,0.
 00075328,0.00053157,0.00100264,0.00093962,-0.00093254,-0.00098129,-0.0
 0049547,0.00043502,0.00005892,0.00104923,0.00000182,0.00007906,0.00008
 798,-0.00007902,-0.00006069,0.00001068,-0.00001018,0.00002617,-0.00019
 495,-0.00013307,0.00003499,-0.00178695,0.00567756,0.00068724,-0.001177
 05,-0.00042194,0.00106911,-0.00200184,-0.00017434,-0.00033401,0.000003
 70,-0.00000407,-0.00017524,0.19422821,-0.39640186,0.03331350,-0.186603
 34,0.38954056,0.00008686,0.00050726,0.00059723,0.00013188,-0.00030897,
 -0.00004767,0.00002326,-0.00020888,-0.00018831,0.00003094,0.00001281,0
 .00002514,0.00001631,0.00000122,0.00001100,-0.00000904,0.00000329,0.00
 001077,-0.00001248,-0.00000541,-0.00004118,0.00001235,-0.00000465,0.00
 005210,0.00001621,-0.00000446,-0.00005380,-0.00003728,0.00000190,0.000
 02881,-0.00029686,0.00091856,0.00216894,-0.00022452,0.00018523,0.00007
 990,-0.00011443,-0.00004848,0.00001751,-0.00053461,-0.00009377,-0.0003
 1392,0.00015446,0.00009638,-0.00016684,0.00128270,-0.00028724,-0.00242
 417,-0.00076548,0.00007620,-0.00035133,-0.00001612,0.00004128,-0.00006
 715,-0.00002761,-0.00003311,-0.00004425,0.00003965,0.00003922,-0.00000
 336,-0.00005088,-0.00001083,-0.00001530,0.00002786,-0.00000307,0.00001
 365,0.01246850,-0.01466081,-0.00031582,0.00114287,-0.00026408,-0.00061
 268,-0.00065918,0.00108276,-0.00139349,-0.00002560,-0.00007822,0.00045
 455,-0.00897467,0.04819988,-0.01477679,-0.00358552,-0.03515431,0.01735
 253,-0.00683820,-0.03304742,-0.02925836,-0.00186888,-0.00482299,0.0030
 1241,-0.01014293,-0.00035363,-0.00071422,0.00360176,0.00032750,-0.0009
 7525,0.00004712,0.00003355,-0.00008977,0.00003215,-0.00001015,0.000103
 12,-0.00240818,-0.00026705,0.00079076,-0.00003599,0.00026892,-0.000570
 78,-0.00074245,-0.00021020,0.00033268,0.00149129,-0.00024593,0.0000784
 0,-0.00294805,0.00152309,-0.00046030,-0.00144451,0.00163250,0.00073766
 ,0.00310694,-0.00059739,-0.00071404,0.00000376,0.00036510,0.00007651,0
 .00019360,-0.00048454,-0.00006482,0.00086810,0.00134278,0.00012627,-0.
 00036179,0.00015307,-0.00009442,0.00021058,0.00025194,-0.00005437,0.00
 029235,-0.00051642,-0.00014416,0.00009862,0.00009472,0.00002506,0.0000
 2058,0.00010404,0.00005930,-0.00002937,0.00003676,-0.00000353,0.006938
 10,0.01353498,0.01010540,0.00092345,-0.00128779,0.00156980,-0.09723398
 ,-0.03981168,-0.01851798,0.00543568,0.00420019,-0.00074422,0.00152143,
 -0.00001776,-0.00018097,0.00064125,0.00009175,-0.00012967,0.57590243,-
 0.00691587,-0.01483096,-0.01084168,-0.00278841,0.00011829,0.00117707,-
 0.00428550,0.00059635,0.00003357,0.00247215,-0.00032126,-0.00033182,0.
 00004798,-0.00005790,-0.00010239,0.00014397,-0.00009855,0.00009696,-0.
 00159998,0.00035705,0.00013528,0.00021588,-0.00022119,0.00020731,-0.00
 152008,0.00015541,0.00005259,0.00249691,-0.00012432,-0.00026736,0.0081
 2342,-0.00022626,0.00313289,0.00124070,0.00004465,-0.00094215,0.000614
 93,0.00134222,0.00075649,-0.00004692,0.00003096,-0.00012870,-0.0000883
 1,-0.00009694,0.00013949,-0.00056609,-0.00524171,-0.00112498,0.0009600
 5,-0.00032118,0.00035686,-0.00003177,0.00047027,0.00040338,-0.00051691
 ,-0.00051754,-0.00012487,-0.00025677,-0.00025869,-0.00002647,0.0000827
 8,0.00002141,-0.00001899,0.00015842,0.00028478,0.00000950,-0.01062887,
 -0.04728484,-0.02467093,-0.00212520,0.00355182,-0.00171702,0.00255747,
 -0.16921444,-0.07837692,-0.00148816,-0.00584726,-0.01302425,0.00187360
 ,0.00175948,-0.00000491,-0.00052454,0.00022067,-0.00025266,0.10600279,
 0.27758005,-0.00396847,-0.00321410,-0.00415954,-0.00079003,-0.00111200
 ,0.00169355,-0.00253841,-0.00031061,0.00239278,0.00193351,0.00004828,-
 0.00012449,-0.00006166,-0.00001584,-0.00011649,0.00005336,0.00000345,0
 .00001923,-0.00126819,-0.00019293,0.00056137,-0.00003233,0.00029404,-0
 .00070769,-0.00017453,-0.00013040,0.00050271,0.00053542,-0.00016755,-0
 .00017335,-0.00012025,0.00182251,0.00150793,-0.00010454,-0.00019175,0.
 00019156,-0.00011465,0.00093467,0.00054708,0.00026524,0.00092569,0.000
 48925,-0.00006309,-0.00025058,0.00006440,0.00021304,-0.00066652,0.0001
 9753,0.00008481,0.00008910,-0.00009726,-0.00004451,0.00014880,-0.00001
 258,-0.00002908,-0.00015434,0.00001864,-0.00003125,-0.00004573,0.00000
 280,0.00005866,0.00006724,0.00004259,0.00002027,0.00004887,-0.00000761
 ,-0.00086032,-0.00184532,0.00200460,0.00140812,-0.00080574,0.00347042,
 0.01068016,-0.07242979,-0.12180282,-0.00932822,-0.04047363,-0.01955950
 ,0.00012276,0.00105724,0.00190224,-0.00025897,0.00005542,0.00004340,-0
 .01805491,0.13272479,0.15162533,-0.00008082,-0.00094202,-0.00178434,0.
 00016130,-0.00017094,-0.00013926,0.00007834,-0.00020874,0.00019539,-0.
 00013186,-0.00004394,0.00000648,-0.00000636,-0.00000655,0.00000707,-0.
 00001150,-0.00000169,0.00000278,0.00008174,0.00001798,-0.00003315,-0.0
 0001015,-0.00001537,0.00003129,0.00004284,0.00001842,-0.00002914,-0.00
 006900,0.00000420,0.00002204,-0.00068743,-0.00017225,-0.00003747,-0.00
 011646,-0.00014258,0.00006661,0.00080695,-0.00018810,-0.00032315,-0.00
 001742,-0.00002073,-0.00000979,0.00001831,-0.00001239,-0.00002989,-0.0
 0010705,0.00045493,0.00005602,-0.00008039,0.00005947,-0.00000902,0.000
 00952,-0.00004525,0.00000600,-0.00000202,0.00003898,0.00000068,0.00000
 599,0.00001000,-0.00000190,-0.00000978,-0.00000471,-0.00000538,-0.0000
 0180,-0.00001343,-0.00000097,0.00269087,0.00181108,0.00076875,0.000057
 09,-0.00031294,0.00008729,-0.00882010,0.00190132,0.00375255,0.00064089
 ,0.00149099,0.00079592,-0.00024986,-0.00080976,-0.00022081,-0.00008439
 ,-0.00013671,0.00003008,-0.47727487,-0.09360770,0.02246807,0.48316743,
 0.00133265,-0.00447034,-0.00552552,0.00006424,-0.00069452,0.00085083,-
 0.00170085,0.00004594,0.00029219,0.00022105,0.00003410,-0.00023378,-0.
 00003618,-0.00000073,0.00001670,-0.00003749,0.00003365,-0.00000828,-0.
 00014254,-0.00013576,0.00022709,-0.00010257,0.00012786,-0.00026230,0.0
 0033318,-0.00005700,0.00008953,-0.00043399,-0.00007827,0.00013118,-0.0
 0060645,-0.00008520,-0.00020580,-0.00051342,0.00054659,0.00028221,-0.0
 0010405,0.00005823,0.00011439,0.00007443,0.00024353,0.00015030,0.00003
 821,-0.00006602,-0.00001524,0.00029196,0.00087115,0.00012188,-0.000093
 34,-0.00007982,-0.00006600,0.00004117,-0.00009619,-0.00014682,0.000206
 12,0.00009086,0.00002968,0.00008998,0.00009242,0.00001210,-0.00001053,
 0.00002535,0.00002420,-0.00005294,-0.00008559,-0.00000854,-0.00234751,
 -0.00127524,0.00042265,0.00028245,-0.00052244,0.00048521,-0.04079305,-
 0.01227278,-0.00038857,0.00058724,0.00114468,-0.00037289,-0.00010404,0
 .00152101,0.00038318,0.00075858,0.00010368,0.00025295,-0.04829072,-0.0
 4187037,-0.01621326,0.09104841,0.05685120,0.00122729,-0.00376149,-0.00
 169421,-0.00032781,0.00004456,-0.00005104,-0.00128191,0.00048557,-0.00
 032729,0.00007716,-0.00000885,-0.00009997,-0.00000452,-0.00001910,0.00
 003079,-0.00001706,-0.00001245,0.00001839,-0.00008657,0.00005220,-0.00
 003941,-0.00000431,-0.00007664,0.00012963,-0.00006970,0.00007686,-0.00
 010217,0.00011131,-0.00006798,0.00005144,0.00000330,0.00024094,-0.0003
 1529,0.00012889,0.00002925,0.00004498,-0.00022791,0.00016279,-0.000004
 86,-0.00007362,-0.00024737,-0.00012641,0.00000175,0.00002495,-0.000038
 75,0.00008640,0.00005084,-0.00010119,0.00001101,-0.00001453,0.00001136
 ,0.00001098,0.00001338,0.00002122,-0.00000352,0.00000323,-0.00001936,0
 .00000123,-0.00000051,-0.00000069,-0.00000946,-0.00001535,-0.00001262,
 0.00000451,0.00000514,0.00000730,-0.00031246,-0.00029187,0.00251121,0.
 00029442,0.00053077,-0.00063026,-0.02726605,-0.01054830,-0.00120717,-0
 .00060779,0.00033575,0.00018198,-0.00008086,0.00042935,-0.00111368,0.0
 0033368,0.00028820,-0.00003945,0.05375438,-0.00727006,-0.02051612,-0.0
 2567274,0.01956072,0.02343162\\0.00000024,-0.00000336,-0.00000088,0.,0
 .00000070,-0.00000103,-0.00001082,0.00000303,0.00000156,-0.00000531,0.
 00000524,-0.00000353,-0.00000340,0.00000458,-0.00000207,-0.00001666,-0
 .00002647,-0.00002849,0.00004190,0.00001467,0.00005086,-0.00000076,0.0
 0000887,-0.00000195,-0.00000133,0.00000916,-0.00001170,-0.00000047,-0.
 00000013,-0.00000329,-0.00000039,-0.00000112,0.00000230,-0.00000241,-0
 .00000070,0.00000068,-0.00000028,0.00000340,0.00000137,0.00000066,-0.0
 0000192,-0.00000129,-0.00000109,0.00000188,-0.00000099,-0.00000315,-0.
 00000399,0.00000066,0.00000036,-0.00000044,0.00000177,-0.00000181,-0.0
 0000033,-0.00000168,-0.00000432,-0.00001271,0.00003216,0.00000119,0.00
 000156,-0.00000039,0.00000073,-0.00000338,0.00000669,-0.00000131,0.000
 01809,-0.00002384,-0.00000122,0.00000154,0.00000258,0.00000153,-0.0000
 0108,-0.00000802,0.00000301,-0.00000328,0.00000041,0.00000224,-0.00000
 140,-0.00000322,-0.00000743,-0.00000014,-0.00000073,0.00000682,-0.0000
 0789,0.00000096,-0.00000157,-0.00000553,-0.00000559,0.00000508,0.00000
 116,-0.00000332\\\@


 SCIENCE AND PEACE WILL TRIUMPH OVER IGNORANCE AND WAR

                          -- PASTEUR
 Job cpu time:       0 days  0 hours 28 minutes 44.4 seconds.
 File lengths (MBytes):  RWF=    220 Int=      0 D2E=      0 Chk=      6 Scr=      1
 Normal termination of Gaussian 09 at Sat Jan  7 12:13:17 2017.
