 Entering Gaussian System, Link 0=g09
 Initial command:
 /global/software/gaussian/g09.e01/l1.exe "/scratch/10461047.yak.local/Gau-22971.inp" -scrdir="/scratch/10461047.yak.local/"
 Entering Link 1 = /global/software/gaussian/g09.e01/l1.exe PID=     22972.
  
 Copyright (c) 1988,1990,1992,1993,1995,1998,2003,2009,2015,
            Gaussian, Inc.  All Rights Reserved.
  
 This is part of the Gaussian(R) 09 program.  It is based on
 the Gaussian(R) 03 system (copyright 2003, Gaussian, Inc.),
 the Gaussian(R) 98 system (copyright 1998, Gaussian, Inc.),
 the Gaussian(R) 94 system (copyright 1995, Gaussian, Inc.),
 the Gaussian 92(TM) system (copyright 1992, Gaussian, Inc.),
 the Gaussian 90(TM) system (copyright 1990, Gaussian, Inc.),
 the Gaussian 88(TM) system (copyright 1988, Gaussian, Inc.),
 the Gaussian 86(TM) system (copyright 1986, Carnegie Mellon
 University), and the Gaussian 82(TM) system (copyright 1983,
 Carnegie Mellon University). Gaussian is a federally registered
 trademark of Gaussian, Inc.
  
 This software contains proprietary and confidential information,
 including trade secrets, belonging to Gaussian, Inc.
  
 This software is provided under written license and may be
 used, copied, transmitted, or stored only in accord with that
 written license.
  
 The following legend is applicable only to US Government
 contracts under FAR:
  
                    RESTRICTED RIGHTS LEGEND
  
 Use, reproduction and disclosure by the US Government is
 subject to restrictions as set forth in subparagraphs (a)
 and (c) of the Commercial Computer Software - Restricted
 Rights clause in FAR 52.227-19.
  
 Gaussian, Inc.
 340 Quinnipiac St., Bldg. 40, Wallingford CT 06492
  
  
 ---------------------------------------------------------------
 Warning -- This program may not be used in any manner that
 competes with the business of Gaussian, Inc. or will provide
 assistance to any competitor of Gaussian, Inc.  The licensee
 of this program is prohibited from giving any competitor of
 Gaussian, Inc. access to this program.  By using this program,
 the user acknowledges that Gaussian, Inc. is engaged in the
 business of creating and licensing software in the field of
 computational chemistry and represents and warrants to the
 licensee that it is not a competitor of Gaussian, Inc. and that
 it will not use this program in any manner prohibited above.
 ---------------------------------------------------------------
  

 Cite this work as:
 Gaussian 09, Revision E.01,
 M. J. Frisch, G. W. Trucks, H. B. Schlegel, G. E. Scuseria, 
 M. A. Robb, J. R. Cheeseman, G. Scalmani, V. Barone, B. Mennucci, 
 G. A. Petersson, H. Nakatsuji, M. Caricato, X. Li, H. P. Hratchian, 
 A. F. Izmaylov, J. Bloino, G. Zheng, J. L. Sonnenberg, M. Hada, 
 M. Ehara, K. Toyota, R. Fukuda, J. Hasegawa, M. Ishida, T. Nakajima, 
 Y. Honda, O. Kitao, H. Nakai, T. Vreven, J. A. Montgomery, Jr., 
 J. E. Peralta, F. Ogliaro, M. Bearpark, J. J. Heyd, E. Brothers, 
 K. N. Kudin, V. N. Staroverov, T. Keith, R. Kobayashi, J. Normand, 
 K. Raghavachari, A. Rendell, J. C. Burant, S. S. Iyengar, J. Tomasi, 
 M. Cossi, N. Rega, J. M. Millam, M. Klene, J. E. Knox, J. B. Cross, 
 V. Bakken, C. Adamo, J. Jaramillo, R. Gomperts, R. E. Stratmann, 
 O. Yazyev, A. J. Austin, R. Cammi, C. Pomelli, J. W. Ochterski, 
 R. L. Martin, K. Morokuma, V. G. Zakrzewski, G. A. Voth, 
 P. Salvador, J. J. Dannenberg, S. Dapprich, A. D. Daniels, 
 O. Farkas, J. B. Foresman, J. V. Ortiz, J. Cioslowski, 
 and D. J. Fox, Gaussian, Inc., Wallingford CT, 2013.
 
 ******************************************
 Gaussian 09:  ES64L-G09RevE.01 30-Nov-2015
                14-Jan-2017 
 ******************************************
 -------------------------------------
 # b3lyp/6-31g(d) irc=(calcfc,forward)
 -------------------------------------
 1/10=4,14=-1,18=10,22=1,26=3,38=1,44=3/1,23;
 2/12=2,17=6,18=5,29=1,40=1/2;
 3/5=1,6=6,7=1,11=2,16=1,25=1,30=1,71=2,74=-5,140=1/1,2,3;
 4//1;
 5/5=2,38=5/2;
 8/6=4,10=90,11=11/1;
 11/6=1,8=1,9=11,15=111,16=1/1,2,10;
 10/6=1,13=1/2;
 6/7=2,8=2,9=2,10=2,28=1/1;
 7/10=1,18=20,25=1/1,2,3,16;
 1/10=4,14=-1,18=10,22=1,26=3,44=3/23(2);
 2/29=1/2;
 99/5=20/99;
 2/29=1/2;
 3/5=1,6=6,7=1,11=2,16=1,25=1,30=1,71=2,74=-5,140=1/1,2,3;
 4/5=5,16=3,69=1/1;
 5/5=2,38=5/2;
 8/6=4,10=90,11=11/1;
 11/6=1,8=1,9=11,15=111,16=1/1,2,10;
 10/6=1,13=1/2;
 7/10=1,18=20,25=1/1,2,3,16;
 1/14=-1,18=10,22=1,26=3,44=3/23(-8);
 2/29=1/2;
 6/7=2,8=2,9=2,10=2,19=2,28=1/1;
 99/5=20,9=1/99;
 ---------------------------------
 glo_1w_alpha_ts_boat6_B3LYP_631Gd
 ---------------------------------
 Symbolic Z-matrix:
 Charge =  0 Multiplicity = 1
 6                    -0.45876   0.85041   0.14196 
 6                     1.48466  -0.77079   0.07986 
 6                     1.0511    0.72484  -0.0399 
 6                     0.35481  -1.78795   0.35029 
 1                     0.75208  -2.78309   0.08721 
 1                     2.15181  -0.84227   0.94179 
 1                    -0.75315   0.46735   1.12463 
 1                     1.25975   1.03445  -1.07987 
 6                    -0.95859  -1.60496  -0.45684 
 8                    -1.0024    0.00563  -0.89848 
 6                    -0.97952   2.26697   0.00254 
 1                    -0.40039   2.90991   0.67468 
 1                    -0.84637   2.61708  -1.03145 
 8                    -2.37146   2.2634    0.36597 
 1                    -2.70882   3.16708   0.27747 
 8                     0.0404   -1.71907   1.72448 
 1                    -0.92757  -1.90375   1.73576 
 8                     2.29496  -1.16438  -1.04704 
 1                     1.77985  -1.0045   -1.85484 
 8                     1.72208   1.56685   0.86811 
 1                     2.66865   1.53136   0.60255 
 8                    -3.38943  -0.1029   -0.72521 
 1                    -3.08082  -0.99687  -0.21789 
 1                    -2.26275   0.11325  -0.97171 
 1                    -3.5398    0.59847  -0.05817 
 8                     4.14574   0.85218  -0.3577 
 1                     4.81469   0.46159   0.22446 
 1                     3.69914   0.08278  -0.77422 
 8                    -2.024    -1.89306   0.2372 
 1                    -0.89561  -1.99319  -1.48648 
 
 IRC-IRC-IRC-IRC-IRC-IRC-IRC-IRC-IRC-IRC-IRC-IRC-IRC-IRC-IRC-IRC-IRC-IRC
 ------------------------------------------------------------------------
 INPUT DATA FOR L123
 ------------------------------------------------------------------------
 GENERAL PARAMETERS:
 Rxn path following direction = Forward
 Maximum points per path      =  10
 Step size                    =   0.100 bohr
 Integration scheme           = HPC                                 
    Redo corrector integration= Yes                                 
    DWI Weight Power          =  2
    DWI will use Hessian update vectors when possible.
    Max correction cycles     =  20
 Initial Hessian              = CalcFC
 Hessian evaluation           = All updating
 Hessian updating method      = Bofill                              
 ------------------------------------------------------------------------
 IRC-IRC-IRC-IRC-IRC-IRC-IRC-IRC-IRC-IRC-IRC-IRC-IRC-IRC-IRC-IRC-IRC-IRC
                          Input orientation:                          
 ---------------------------------------------------------------------
 Center     Atomic      Atomic             Coordinates (Angstroms)
 Number     Number       Type             X           Y           Z
 ---------------------------------------------------------------------
      1          6           0       -0.458760    0.850414    0.141956
      2          6           0        1.484663   -0.770786    0.079855
      3          6           0        1.051103    0.724842   -0.039900
      4          6           0        0.354813   -1.787945    0.350292
      5          1           0        0.752081   -2.783088    0.087210
      6          1           0        2.151806   -0.842265    0.941790
      7          1           0       -0.753150    0.467345    1.124631
      8          1           0        1.259751    1.034446   -1.079867
      9          6           0       -0.958587   -1.604960   -0.456840
     10          8           0       -1.002399    0.005625   -0.898483
     11          6           0       -0.979519    2.266975    0.002544
     12          1           0       -0.400392    2.909912    0.674678
     13          1           0       -0.846374    2.617083   -1.031446
     14          8           0       -2.371457    2.263404    0.365968
     15          1           0       -2.708823    3.167078    0.277472
     16          8           0        0.040396   -1.719071    1.724482
     17          1           0       -0.927572   -1.903745    1.735758
     18          8           0        2.294955   -1.164384   -1.047038
     19          1           0        1.779845   -1.004500   -1.854840
     20          8           0        1.722082    1.566848    0.868105
     21          1           0        2.668653    1.531361    0.602549
     22          8           0       -3.389433   -0.102901   -0.725213
     23          1           0       -3.080819   -0.996870   -0.217885
     24          1           0       -2.262750    0.113249   -0.971708
     25          1           0       -3.539802    0.598465   -0.058170
     26          8           0        4.145743    0.852175   -0.357696
     27          1           0        4.814687    0.461586    0.224457
     28          1           0        3.699140    0.082779   -0.774216
     29          8           0       -2.024005   -1.893057    0.237202
     30          1           0       -0.895612   -1.993192   -1.486479
 ---------------------------------------------------------------------
                    Distance matrix (angstroms):
                    1          2          3          4          5
     1  C    0.000000
     2  C    2.531608   0.000000
     3  C    1.525951   1.561800   0.000000
     4  C    2.768798   1.544121   2.636507   0.000000
     5  H    3.830335   2.141516   3.522945   1.103333   0.000000
     6  H    3.212468   1.092301   2.151996   2.115033   2.540931
     7  H    1.095015   2.762668   2.162814   2.629357   3.729246
     8  H    2.116601   2.157407   1.104952   3.290921   4.024098
     9  C    2.576285   2.636922   3.104943   1.552406   2.147175
    10  O    1.446280   2.783062   2.339083   2.572617   3.438999
    11  C    1.515675   3.912309   2.550177   4.282960   5.339358
    12  H    2.128082   4.177892   2.718822   4.769216   5.838113
    13  H    2.155977   4.259857   2.857299   4.770359   5.741803
    14  O    2.388542   4.915062   3.774363   4.883259   5.941488
    15  H    3.232349   5.755966   4.494695   5.826098   6.886111
    16  O    3.058725   2.385362   3.179195   1.411382   2.078290
    17  H    3.216424   3.137593   3.738661   1.891411   2.512407
    18  O    3.613318   1.442699   2.476019   2.470933   2.507425
    19  H    3.526932   1.970989   2.610689   2.739910   2.826877
    20  O    2.407622   2.478354   1.408425   3.659534   4.524670
    21  H    3.233658   2.641008   1.918250   4.054045   4.749031
    22  O    3.201505   4.985079   4.568717   4.244463   4.999557
    23  H    3.227559   4.580763   4.479816   3.571021   4.239667
    24  H    2.244558   3.991291   3.496274   3.494833   4.312688
    25  H    3.097797   5.209525   4.592680   4.585828   5.465921
    26  O    4.631534   3.147507   3.113520   4.673610   4.992997
    27  H    5.288406   3.553690   3.782030   4.996669   5.201107
    28  H    4.326288   2.522284   2.821979   3.993576   4.200048
    29  O    3.160015   3.687140   4.048020   2.383823   2.919128
    30  H    3.305864   3.100546   3.642801   2.231461   2.411498
                    6          7          8          9         10
     6  H    0.000000
     7  H    3.191752   0.000000
     8  H    2.899121   3.038616   0.000000
     9  C    3.494626   2.614900   3.503662   0.000000
    10  O    3.748937   2.090048   2.491725   1.670614   0.000000
    11  C    4.511624   2.132836   2.775801   3.899148   2.434354
    12  H    4.545756   2.508591   3.058084   4.687855   3.357399
    13  H    4.984961   3.046101   2.634928   4.262442   2.619492
    14  O    5.516943   2.533834   4.097127   4.199697   2.927580
    15  H    6.335761   3.439607   4.705323   5.135649   3.780151
    16  O    2.416495   2.402072   4.114979   2.401906   3.307861
    17  H    3.352565   2.454785   4.620075   2.213079   3.254308
    18  O    2.019824   4.082846   2.430551   3.335862   3.501933
    19  H    2.825918   4.178473   2.242405   3.132725   3.110603
    20  O    2.448248   2.720567   2.071665   4.359109   3.602922
    21  H    2.452818   3.621248   2.249990   4.910772   4.249422
    22  O    5.833600   3.270641   4.799401   2.870055   2.395774
    23  H    5.361820   3.060117   4.869272   2.220527   2.405834
    24  H    4.905383   2.607473   3.642570   2.217695   1.267055
    25  H    5.955672   3.030122   4.926424   3.417117   2.737882
    26  O    2.921571   5.132693   2.980554   5.665821   5.245232
    27  H    3.050497   5.640138   3.829752   6.169722   5.942002
    28  H    2.488900   4.855553   2.636231   4.964233   4.703814
    29  O    4.363256   2.823845   4.592167   1.303767   2.436894
    30  H    4.062989   3.590603   3.738651   1.102201   2.086244
                   11         12         13         14         15
    11  C    0.000000
    12  H    1.095683   0.000000
    13  H    1.099745   1.787598   0.000000
    14  O    1.438604   2.097230   2.098507   0.000000
    15  H    1.968823   2.356430   2.341896   0.968645   0.000000
    16  O    4.460253   4.766956   5.213802   4.850021   5.790207
    17  H    4.516817   4.957328   5.301122   4.618036   5.568905
    18  O    4.857780   5.179680   4.916064   5.960010   6.749347
    19  H    4.665460   5.145339   4.548722   5.731012   6.488217
    20  O    2.921989   2.519153   3.362775   4.182630   4.747895
    21  H    3.769654   3.365211   4.025437   5.098487   5.630141
    22  O    3.457402   4.468904   3.736207   2.797562   3.487316
    23  H    3.888025   4.821235   4.326116   3.387250   4.209777
    24  H    2.689681   3.741696   2.877303   2.534632   3.329460
    25  H    3.056577   3.966831   3.503804   2.077726   2.720470
    26  O    5.329141   5.095824   5.337609   6.707395   7.262733
    27  H    6.073014   5.778758   6.186362   7.409942   7.995355
    28  H    5.221486   5.186341   5.210620   6.550366   7.188946
    29  O    4.295565   5.088813   4.830905   4.172945   5.106424
    30  H    4.513674   5.381103   4.632938   4.871169   5.746968
                   16         17         18         19         20
    16  O    0.000000
    17  H    0.985492   0.000000
    18  O    3.615527   4.321491   0.000000
    19  H    4.043246   4.585972   0.971311   0.000000
    20  O    3.789289   4.451798   3.384610   3.745610   0.000000
    21  H    4.328022   5.100681   3.182425   3.641336   0.983756
    22  O    4.514060   3.919206   5.791596   5.367530   5.608414
    23  H    3.746511   3.045590   5.441921   5.128912   5.551566
    24  H    3.991406   3.630611   4.733994   4.286241   4.623500
    25  H    4.622406   4.037695   6.174940   5.839192   5.429841
    26  O    5.272632   6.141349   2.822609   3.359487   2.808465
    27  H    5.458864   6.391585   3.257227   3.960196   3.346654
    28  H    4.782945   5.626074   1.897784   2.456342   2.967901
    29  O    2.550299   1.856866   4.564390   4.431190   5.138302
    30  H    3.355819   3.223637   3.325620   2.875982   5.007022
                   21         22         23         24         25
    21  H    0.000000
    22  O    6.413593   0.000000
    23  H    6.334153   1.073222   0.000000
    24  H    5.367314   1.173412   1.571576   0.000000
    25  H    6.312825   0.979526   1.667713   1.643426   0.000000
    26  O    1.888163   7.604349   7.460678   6.480108   7.695563
    27  H    2.427516   8.278170   8.041255   7.186255   8.360389
    28  H    2.248505   7.091174   6.887887   5.965238   7.292526
    29  O    5.820752   2.448529   1.458462   2.354512   2.931308
    30  H    5.430515   3.220539   2.716085   2.563425   3.968437
                   26         27         28         29         30
    26  O    0.000000
    27  H    0.968993   0.000000
    28  H    0.982300   1.544438   0.000000
    29  O    6.779085   7.232718   6.138508   0.000000
    30  H    5.897925   6.446763   5.092025   2.062613   0.000000
 Symmetry turned off by external request.
 Stoichiometry    C6H16O8
 Framework group  C1[X(C6H16O8)]
 Deg. of freedom    84
 Full point group                 C1      NOp   1
 Rotational constants (GHZ):      0.8657046      0.4840450      0.3660321
 Standard basis: 6-31G(d) (6D, 7F)
   242 basis functions,   456 primitive gaussians,   242 cartesian basis functions
    58 alpha electrons       58 beta electrons
       nuclear repulsion energy      1120.0224617071 Hartrees.
 NAtoms=   30 NActive=   30 NUniq=   30 SFac= 1.00D+00 NAtFMM=   60 NAOKFM=F Big=F
 Integral buffers will be    131072 words long.
 Raffenetti 2 integral format.
 Two-electron integral symmetry is turned off.
 One-electron integrals computed using PRISM.
 NBasis=   242 RedAO= T EigKep=  1.33D-03  NBF=   242
 NBsUse=   242 1.00D-06 EigRej= -1.00D+00 NBFU=   242
 ExpMin= 1.61D-01 ExpMax= 5.48D+03 ExpMxC= 8.25D+02 IAcc=1 IRadAn=         1 AccDes= 0.00D+00
 Harris functional with IExCor=  402 and IRadAn=       1 diagonalized for initial guess.
 HarFok:  IExCor=  402 AccDes= 0.00D+00 IRadAn=         1 IDoV= 1 UseB2=F ITyADJ=14
 ICtDFT=  3500011 ScaDFX=  1.000000  1.000000  1.000000  1.000000
 FoFCou: FMM=F IPFlag=           0 FMFlag=      100000 FMFlg1=           0
         NFxFlg=           0 DoJE=T BraDBF=F KetDBF=T FulRan=T
         wScrn=  0.000000 ICntrl=     500 IOpCl=  0 I1Cent=   200000004 NGrid=           0
         NMat0=    1 NMatS0=      1 NMatT0=    0 NMatD0=    1 NMtDS0=    0 NMtDT0=    0
 Symmetry not used in FoFCou.
 Requested convergence on RMS density matrix=1.00D-08 within 128 cycles.
 Requested convergence on MAX density matrix=1.00D-06.
 Requested convergence on             energy=1.00D-06.
 No special actions if energy rises.
 Integral accuracy reduced to 1.0D-05 until final iterations.
 Initial convergence to 1.0D-05 achieved.  Increase integral accuracy.
 SCF Done:  E(RB3LYP) =  -839.961446244     A.U. after   14 cycles
            NFock= 14  Conv=0.78D-08     -V/T= 2.0086
 DoSCS=F DFT=T ScalE2(SS,OS)=  1.000000  1.000000
 Range of M.O.s used for correlation:     1   242
 NBasis=   242 NAE=    58 NBE=    58 NFC=     0 NFV=     0
 NROrb=    242 NOA=    58 NOB=    58 NVA=   184 NVB=   184
 Symmetrizing basis deriv contribution to polar:
 IMax=3 JMax=2 DiffMx= 0.00D+00
 G2DrvN: will do    31 centers at a time, making    1 passes.
 Calling FoFCou, ICntrl=  3107 FMM=F I1Cent=   0 AccDes= 0.00D+00.
 End of G2Drv F.D. properties file   721 does not exist.
 End of G2Drv F.D. properties file   722 does not exist.
 End of G2Drv F.D. properties file   788 does not exist.
          IDoAtm=111111111111111111111111111111
          Differentiating once with respect to nuclear coordinates.
          There are    93 degrees of freedom in the 1st order CPHF.  IDoFFX=6 NUNeed=     0.
     87 vectors produced by pass  0 Test12= 1.15D-14 1.08D-09 XBig12= 1.10D-01 7.61D-02.
 AX will form    87 AO Fock derivatives at one time.
     87 vectors produced by pass  1 Test12= 1.15D-14 1.08D-09 XBig12= 9.35D-03 1.25D-02.
     87 vectors produced by pass  2 Test12= 1.15D-14 1.08D-09 XBig12= 9.02D-05 1.39D-03.
     87 vectors produced by pass  3 Test12= 1.15D-14 1.08D-09 XBig12= 2.20D-07 6.37D-05.
     87 vectors produced by pass  4 Test12= 1.15D-14 1.08D-09 XBig12= 2.87D-10 1.91D-06.
     68 vectors produced by pass  5 Test12= 1.15D-14 1.08D-09 XBig12= 2.25D-13 6.21D-08.
      3 vectors produced by pass  6 Test12= 1.15D-14 1.08D-09 XBig12= 1.85D-16 1.23D-09.
 InvSVY:  IOpt=1 It=  1 EMax= 3.89D-16
 Solved reduced A of dimension   506 with    93 vectors.
 End of Minotr F.D. properties file   721 does not exist.
 End of Minotr F.D. properties file   722 does not exist.
 End of Minotr F.D. properties file   788 does not exist.

 **********************************************************************

            Population analysis using the SCF density.

 **********************************************************************

 Alpha  occ. eigenvalues --  -19.18917 -19.17779 -19.17718 -19.17540 -19.15347
 Alpha  occ. eigenvalues --  -19.13196 -19.12781 -19.10607 -10.28315 -10.24905
 Alpha  occ. eigenvalues --  -10.24541 -10.24265 -10.24174 -10.23324  -1.07606
 Alpha  occ. eigenvalues --   -1.04630  -1.04280  -1.02909  -1.01559  -1.00904
 Alpha  occ. eigenvalues --   -1.00407  -0.97211  -0.77844  -0.75439  -0.69000
 Alpha  occ. eigenvalues --   -0.64867  -0.60997  -0.57461  -0.56357  -0.54182
 Alpha  occ. eigenvalues --   -0.53639  -0.53546  -0.52331  -0.50442  -0.49434
 Alpha  occ. eigenvalues --   -0.47412  -0.47178  -0.45100  -0.44320  -0.42787
 Alpha  occ. eigenvalues --   -0.41947  -0.41264  -0.39851  -0.39507  -0.39199
 Alpha  occ. eigenvalues --   -0.37684  -0.36037  -0.34849  -0.34138  -0.33174
 Alpha  occ. eigenvalues --   -0.31283  -0.30283  -0.30066  -0.29094  -0.27942
 Alpha  occ. eigenvalues --   -0.26017  -0.24925  -0.24258
 Alpha virt. eigenvalues --    0.04175   0.04590   0.06556   0.07432   0.09475
 Alpha virt. eigenvalues --    0.09910   0.12325   0.13373   0.13807   0.14382
 Alpha virt. eigenvalues --    0.15554   0.16121   0.17040   0.18439   0.18965
 Alpha virt. eigenvalues --    0.20610   0.21072   0.22047   0.22856   0.23810
 Alpha virt. eigenvalues --    0.23922   0.25292   0.26140   0.27562   0.30574
 Alpha virt. eigenvalues --    0.31499   0.33172   0.36466   0.51059   0.53066
 Alpha virt. eigenvalues --    0.54407   0.55947   0.56421   0.58770   0.59427
 Alpha virt. eigenvalues --    0.60878   0.62491   0.63261   0.63833   0.66054
 Alpha virt. eigenvalues --    0.66709   0.67956   0.69812   0.73067   0.74041
 Alpha virt. eigenvalues --    0.75243   0.76975   0.78736   0.79666   0.79897
 Alpha virt. eigenvalues --    0.81721   0.82380   0.82979   0.84396   0.85233
 Alpha virt. eigenvalues --    0.85620   0.85981   0.87886   0.89254   0.90152
 Alpha virt. eigenvalues --    0.91084   0.91618   0.93529   0.94473   0.96215
 Alpha virt. eigenvalues --    0.97231   0.97503   0.99525   1.01426   1.02018
 Alpha virt. eigenvalues --    1.04476   1.05991   1.06359   1.08561   1.10157
 Alpha virt. eigenvalues --    1.11353   1.13234   1.14717   1.15160   1.15935
 Alpha virt. eigenvalues --    1.17132   1.18467   1.20376   1.21276   1.24296
 Alpha virt. eigenvalues --    1.26953   1.29888   1.32707   1.34686   1.37169
 Alpha virt. eigenvalues --    1.40601   1.41894   1.45612   1.47688   1.50117
 Alpha virt. eigenvalues --    1.53194   1.54097   1.56002   1.59673   1.60603
 Alpha virt. eigenvalues --    1.63162   1.64254   1.65110   1.66994   1.68704
 Alpha virt. eigenvalues --    1.70176   1.70765   1.71824   1.72672   1.73063
 Alpha virt. eigenvalues --    1.75032   1.75853   1.78444   1.79798   1.80516
 Alpha virt. eigenvalues --    1.80966   1.82856   1.85067   1.87032   1.87405
 Alpha virt. eigenvalues --    1.88136   1.91130   1.93099   1.93390   1.94341
 Alpha virt. eigenvalues --    1.96438   1.96870   2.00653   2.03415   2.04422
 Alpha virt. eigenvalues --    2.07183   2.08480   2.09332   2.11567   2.13368
 Alpha virt. eigenvalues --    2.18211   2.22062   2.23157   2.26159   2.27919
 Alpha virt. eigenvalues --    2.30435   2.33061   2.33434   2.38212   2.40583
 Alpha virt. eigenvalues --    2.42344   2.44858   2.46546   2.47818   2.49350
 Alpha virt. eigenvalues --    2.51943   2.53778   2.56069   2.57648   2.58785
 Alpha virt. eigenvalues --    2.60370   2.63544   2.66428   2.67555   2.67903
 Alpha virt. eigenvalues --    2.72398   2.76397   2.82699   2.87906   2.89415
 Alpha virt. eigenvalues --    2.92732   2.94513   2.97507   3.03118   3.05738
 Alpha virt. eigenvalues --    3.71304   3.76780   3.78694   3.81630   3.89535
 Alpha virt. eigenvalues --    3.93497   4.10123   4.16566   4.30249   4.34688
 Alpha virt. eigenvalues --    4.41836   4.51318   4.64589   4.81924
          Condensed to atoms (all electrons):
               1          2          3          4          5          6
     1  C    5.007260  -0.041446   0.317171   0.005728  -0.000008   0.000605
     2  C   -0.041446   5.109788   0.305330   0.284913  -0.056986   0.355068
     3  C    0.317171   0.305330   4.927988  -0.034559   0.005211  -0.049922
     4  C    0.005728   0.284913  -0.034559   5.054814   0.355365  -0.029776
     5  H   -0.000008  -0.056986   0.005211   0.355365   0.635908  -0.004423
     6  H    0.000605   0.355068  -0.049922  -0.029776  -0.004423   0.566071
     7  H    0.339104  -0.014258  -0.035367  -0.008419   0.000506   0.001016
     8  H   -0.047372  -0.070991   0.340875   0.003899  -0.000361   0.005721
     9  C   -0.009765  -0.026797  -0.014615   0.277390  -0.048298   0.004888
    10  O    0.143440   0.003481  -0.045184  -0.014519   0.002492   0.000258
    11  C    0.349887   0.005036  -0.029724   0.000254   0.000018  -0.000210
    12  H   -0.036812   0.000250  -0.001776  -0.000000  -0.000000  -0.000001
    13  H   -0.032761  -0.000165  -0.003262   0.000004  -0.000001   0.000006
    14  O   -0.044438  -0.000037   0.002039   0.000006   0.000000   0.000000
    15  H    0.005773   0.000003  -0.000210  -0.000000   0.000000  -0.000000
    16  O   -0.009614  -0.049604   0.003371   0.230937  -0.036137   0.003370
    17  H    0.000538   0.006777   0.000109  -0.051376   0.001870  -0.000545
    18  O    0.002817   0.174876  -0.032874  -0.030530   0.006726  -0.037665
    19  H   -0.000342  -0.025446  -0.006240  -0.004207  -0.000467   0.006622
    20  O   -0.043927  -0.041011   0.230212   0.002461  -0.000091   0.004878
    21  H    0.005744   0.000511  -0.024305   0.000141   0.000003   0.001548
    22  O    0.008842   0.000030   0.000000  -0.000652   0.000005   0.000000
    23  H   -0.000298  -0.000107  -0.000009   0.003042  -0.000085   0.000003
    24  H   -0.014863  -0.000013   0.001470   0.002069  -0.000094   0.000003
    25  H   -0.000746  -0.000009   0.000109   0.000005  -0.000000  -0.000000
    26  O    0.000073   0.006894   0.000832   0.000159   0.000002   0.003707
    27  H   -0.000004   0.000274  -0.000350   0.000010  -0.000001   0.000683
    28  H    0.000031  -0.007527   0.000765   0.000644  -0.000020  -0.003306
    29  O    0.000155   0.002012   0.000497  -0.060114   0.000239  -0.000091
    30  H    0.004134  -0.000528   0.001140  -0.072966   0.000854  -0.000250
               7          8          9         10         11         12
     1  C    0.339104  -0.047372  -0.009765   0.143440   0.349887  -0.036812
     2  C   -0.014258  -0.070991  -0.026797   0.003481   0.005036   0.000250
     3  C   -0.035367   0.340875  -0.014615  -0.045184  -0.029724  -0.001776
     4  C   -0.008419   0.003899   0.277390  -0.014519   0.000254  -0.000000
     5  H    0.000506  -0.000361  -0.048298   0.002492   0.000018  -0.000000
     6  H    0.001016   0.005721   0.004888   0.000258  -0.000210  -0.000001
     7  H    0.580052   0.007116   0.001946  -0.041347  -0.047670  -0.001811
     8  H    0.007116   0.688532   0.001235   0.004277  -0.014638   0.000338
     9  C    0.001946   0.001235   4.775352   0.070825   0.001631  -0.000065
    10  O   -0.041347   0.004277   0.070825   8.628073  -0.034122   0.003123
    11  C   -0.047670  -0.014638   0.001631  -0.034122   4.922749   0.363062
    12  H   -0.001811   0.000338  -0.000065   0.003123   0.363062   0.562484
    13  H    0.006461   0.005791  -0.000009  -0.001579   0.347246  -0.043327
    14  O    0.002485  -0.000031  -0.000180   0.000853   0.227140  -0.033325
    15  H   -0.000084   0.000002   0.000010  -0.000066  -0.020875  -0.002833
    16  O    0.022591  -0.000058  -0.026061  -0.000469   0.000332   0.000000
    17  H   -0.000143   0.000007  -0.017709   0.000596  -0.000049  -0.000001
    18  O    0.000070   0.000210   0.002068  -0.000875  -0.000049  -0.000002
    19  H    0.000110   0.008334   0.002271   0.001870  -0.000052   0.000001
    20  O    0.003232  -0.037180   0.000167   0.001230  -0.001940   0.012357
    21  H   -0.000226  -0.004450  -0.000024  -0.000106   0.000083  -0.000101
    22  O   -0.000069  -0.000001   0.013262  -0.096112   0.000728  -0.000041
    23  H    0.000047   0.000001  -0.018577   0.004603  -0.000019   0.000006
    24  H    0.001398   0.000056  -0.011902   0.116067  -0.004320   0.000310
    25  H    0.000540   0.000002  -0.000397   0.005615  -0.003057   0.000230
    26  O   -0.000000   0.000727  -0.000001   0.000000  -0.000001   0.000002
    27  H    0.000000  -0.000014  -0.000000  -0.000000  -0.000000  -0.000000
    28  H   -0.000004   0.000368  -0.000020  -0.000003   0.000001  -0.000001
    29  O    0.006159  -0.000012   0.339006  -0.056055  -0.000123   0.000006
    30  H    0.000777  -0.000038   0.356260  -0.050061  -0.000247   0.000005
              13         14         15         16         17         18
     1  C   -0.032761  -0.044438   0.005773  -0.009614   0.000538   0.002817
     2  C   -0.000165  -0.000037   0.000003  -0.049604   0.006777   0.174876
     3  C   -0.003262   0.002039  -0.000210   0.003371   0.000109  -0.032874
     4  C    0.000004   0.000006  -0.000000   0.230937  -0.051376  -0.030530
     5  H   -0.000001   0.000000   0.000000  -0.036137   0.001870   0.006726
     6  H    0.000006   0.000000  -0.000000   0.003370  -0.000545  -0.037665
     7  H    0.006461   0.002485  -0.000084   0.022591  -0.000143   0.000070
     8  H    0.005791  -0.000031   0.000002  -0.000058   0.000007   0.000210
     9  C   -0.000009  -0.000180   0.000010  -0.026061  -0.017709   0.002068
    10  O   -0.001579   0.000853  -0.000066  -0.000469   0.000596  -0.000875
    11  C    0.347246   0.227140  -0.020875   0.000332  -0.000049  -0.000049
    12  H   -0.043327  -0.033325  -0.002833   0.000000  -0.000001  -0.000002
    13  H    0.626582  -0.039285  -0.003171  -0.000005  -0.000001  -0.000004
    14  O   -0.039285   8.268512   0.236576  -0.000001  -0.000000   0.000000
    15  H   -0.003171   0.236576   0.376845   0.000000  -0.000000  -0.000000
    16  O   -0.000005  -0.000001   0.000000   8.321448   0.217713   0.001518
    17  H   -0.000001  -0.000000  -0.000000   0.217713   0.358471  -0.000111
    18  O   -0.000004   0.000000  -0.000000   0.001518  -0.000111   8.286539
    19  H    0.000007   0.000000  -0.000000  -0.000015   0.000010   0.231401
    20  O    0.000187   0.000034   0.000008  -0.000199   0.000008   0.001449
    21  H   -0.000048   0.000001  -0.000000  -0.000017   0.000000   0.000256
    22  O   -0.000077  -0.012975   0.000685  -0.000005   0.000213  -0.000000
    23  H    0.000006   0.000200  -0.000017   0.000121  -0.000864   0.000000
    24  H    0.000028   0.006054  -0.000268  -0.000136  -0.000117   0.000003
    25  H    0.000279   0.036120  -0.001814   0.000002  -0.000026   0.000000
    26  O    0.000000   0.000000   0.000000   0.000000  -0.000000  -0.019034
    27  H    0.000000  -0.000000  -0.000000  -0.000000  -0.000000   0.000507
    28  H   -0.000001  -0.000000  -0.000000  -0.000015   0.000001   0.057754
    29  O    0.000004  -0.000032   0.000000  -0.029400   0.066564   0.000002
    30  H   -0.000006   0.000000  -0.000000   0.002626   0.002923   0.000959
              19         20         21         22         23         24
     1  C   -0.000342  -0.043927   0.005744   0.008842  -0.000298  -0.014863
     2  C   -0.025446  -0.041011   0.000511   0.000030  -0.000107  -0.000013
     3  C   -0.006240   0.230212  -0.024305   0.000000  -0.000009   0.001470
     4  C   -0.004207   0.002461   0.000141  -0.000652   0.003042   0.002069
     5  H   -0.000467  -0.000091   0.000003   0.000005  -0.000085  -0.000094
     6  H    0.006622   0.004878   0.001548   0.000000   0.000003   0.000003
     7  H    0.000110   0.003232  -0.000226  -0.000069   0.000047   0.001398
     8  H    0.008334  -0.037180  -0.004450  -0.000001   0.000001   0.000056
     9  C    0.002271   0.000167  -0.000024   0.013262  -0.018577  -0.011902
    10  O    0.001870   0.001230  -0.000106  -0.096112   0.004603   0.116067
    11  C   -0.000052  -0.001940   0.000083   0.000728  -0.000019  -0.004320
    12  H    0.000001   0.012357  -0.000101  -0.000041   0.000006   0.000310
    13  H    0.000007   0.000187  -0.000048  -0.000077   0.000006   0.000028
    14  O    0.000000   0.000034   0.000001  -0.012975   0.000200   0.006054
    15  H   -0.000000   0.000008  -0.000000   0.000685  -0.000017  -0.000268
    16  O   -0.000015  -0.000199  -0.000017  -0.000005   0.000121  -0.000136
    17  H    0.000010   0.000008   0.000000   0.000213  -0.000864  -0.000117
    18  O    0.231401   0.001449   0.000256  -0.000000   0.000000   0.000003
    19  H    0.383390  -0.000039  -0.000035   0.000001   0.000001   0.000001
    20  O   -0.000039   8.340541   0.216201   0.000000  -0.000000  -0.000014
    21  H   -0.000035   0.216201   0.323458  -0.000000   0.000000   0.000002
    22  O    0.000001   0.000000  -0.000000   8.455391   0.148236   0.142171
    23  H    0.000001  -0.000000   0.000000   0.148236   0.300597  -0.016339
    24  H    0.000001  -0.000014   0.000002   0.142171  -0.016339   0.299918
    25  H   -0.000000  -0.000000   0.000000   0.221182  -0.000220  -0.011569
    26  O    0.000843  -0.020374   0.061217   0.000000   0.000000   0.000000
    27  H   -0.000000   0.001121  -0.002681  -0.000000   0.000000   0.000000
    28  H   -0.003198   0.002437  -0.006178   0.000000  -0.000000   0.000000
    29  O   -0.000001   0.000000   0.000000  -0.074807   0.120833   0.009166
    30  H    0.000855   0.000001  -0.000001   0.000123  -0.000849   0.000253
              25         26         27         28         29         30
     1  C   -0.000746   0.000073  -0.000004   0.000031   0.000155   0.004134
     2  C   -0.000009   0.006894   0.000274  -0.007527   0.002012  -0.000528
     3  C    0.000109   0.000832  -0.000350   0.000765   0.000497   0.001140
     4  C    0.000005   0.000159   0.000010   0.000644  -0.060114  -0.072966
     5  H   -0.000000   0.000002  -0.000001  -0.000020   0.000239   0.000854
     6  H   -0.000000   0.003707   0.000683  -0.003306  -0.000091  -0.000250
     7  H    0.000540  -0.000000   0.000000  -0.000004   0.006159   0.000777
     8  H    0.000002   0.000727  -0.000014   0.000368  -0.000012  -0.000038
     9  C   -0.000397  -0.000001  -0.000000  -0.000020   0.339006   0.356260
    10  O    0.005615   0.000000  -0.000000  -0.000003  -0.056055  -0.050061
    11  C   -0.003057  -0.000001  -0.000000   0.000001  -0.000123  -0.000247
    12  H    0.000230   0.000002  -0.000000  -0.000001   0.000006   0.000005
    13  H    0.000279   0.000000   0.000000  -0.000001   0.000004  -0.000006
    14  O    0.036120   0.000000  -0.000000  -0.000000  -0.000032   0.000000
    15  H   -0.001814   0.000000  -0.000000  -0.000000   0.000000  -0.000000
    16  O    0.000002   0.000000  -0.000000  -0.000015  -0.029400   0.002626
    17  H   -0.000026  -0.000000  -0.000000   0.000001   0.066564   0.002923
    18  O    0.000000  -0.019034   0.000507   0.057754   0.000002   0.000959
    19  H   -0.000000   0.000843  -0.000000  -0.003198  -0.000001   0.000855
    20  O   -0.000000  -0.020374   0.001121   0.002437   0.000000   0.000001
    21  H    0.000000   0.061217  -0.002681  -0.006178   0.000000  -0.000001
    22  O    0.221182   0.000000  -0.000000   0.000000  -0.074807   0.000123
    23  H   -0.000220   0.000000   0.000000  -0.000000   0.120833  -0.000849
    24  H   -0.011569   0.000000   0.000000   0.000000   0.009166   0.000253
    25  H    0.312758  -0.000000   0.000000   0.000000   0.003349   0.000043
    26  O   -0.000000   8.321899   0.242267   0.212557   0.000000   0.000000
    27  H    0.000000   0.242267   0.375615  -0.016019  -0.000000  -0.000000
    28  H    0.000000   0.212557  -0.016019   0.332351   0.000000  -0.000001
    29  O    0.003349   0.000000  -0.000000   0.000000   8.388629  -0.050247
    30  H    0.000043   0.000000  -0.000000  -0.000001  -0.050247   0.690731
 Mulliken charges:
               1
     1  C    0.091095
     2  C    0.079682
     3  C    0.141279
     4  C    0.085279
     5  H    0.137771
     6  H    0.171740
     7  H    0.175788
     8  H    0.107657
     9  C    0.328109
    10  O   -0.646306
    11  C   -0.061072
    12  H    0.177922
    13  H    0.137099
    14  O   -0.649717
    15  H    0.409438
    16  O   -0.652292
    17  H    0.415141
    18  O   -0.646012
    19  H    0.404325
    20  O   -0.671749
    21  H    0.429009
    22  O   -0.806130
    23  H    0.459689
    24  H    0.480667
    25  H    0.437606
    26  O   -0.811767
    27  H    0.398592
    28  H    0.429383
    29  O   -0.665739
    30  H    0.113512
 Sum of Mulliken charges =  -0.00000
 Mulliken charges with hydrogens summed into heavy atoms:
               1
     1  C    0.266883
     2  C    0.251422
     3  C    0.248936
     4  C    0.223050
     9  C    0.441621
    10  O   -0.646306
    11  C    0.253950
    14  O   -0.240279
    16  O   -0.237152
    18  O   -0.241686
    20  O   -0.242740
    22  O    0.571832
    26  O    0.016209
    29  O   -0.665739
 APT charges:
               1
     1  C   -0.223429
     2  C   -0.258261
     3  C   -0.191321
     4  C   -0.453409
     5  H    0.518854
     6  H    0.460351
     7  H    0.298307
     8  H    0.318684
     9  C   -0.288200
    10  O   -0.401547
    11  C   -0.535011
    12  H    0.457650
    13  H    0.391754
    14  O   -1.162416
    15  H    0.977227
    16  O   -0.653862
    17  H    0.539495
    18  O   -0.676320
    19  H    0.490293
    20  O   -0.837993
    21  H    0.661766
    22  O   -0.723370
    23  H    0.349303
    24  H    0.353142
    25  H    0.547484
    26  O   -1.016115
    27  H    0.892359
    28  H    0.206151
    29  O   -0.469694
    30  H    0.428127
 Sum of APT charges =  -0.00000
 APT charges with hydrogens summed into heavy atoms:
               1
     1  C    0.074878
     2  C    0.202090
     3  C    0.127363
     4  C    0.065444
     9  C    0.139928
    10  O   -0.401547
    11  C    0.314393
    14  O   -0.185189
    16  O   -0.114367
    18  O   -0.186027
    20  O   -0.176226
    22  O    0.526559
    26  O    0.082396
    29  O   -0.469694
 Electronic spatial extent (au):  <R**2>=           3142.9032
 Charge=             -0.0000 electrons
 Dipole moment (field-independent basis, Debye):
    X=             -0.1705    Y=              2.6435    Z=             -1.8654  Tot=              3.2399
 Quadrupole moment (field-independent basis, Debye-Ang):
   XX=            -77.2467   YY=            -81.1565   ZZ=            -86.4638
   XY=            -14.1439   XZ=             -1.3126   YZ=              2.6113
 Traceless Quadrupole moment (field-independent basis, Debye-Ang):
   XX=              4.3756   YY=              0.4658   ZZ=             -4.8414
   XY=            -14.1439   XZ=             -1.3126   YZ=              2.6113
 Octapole moment (field-independent basis, Debye-Ang**2):
  XXX=             35.0383  YYY=             47.7147  ZZZ=            -15.3324  XYY=            -32.3702
  XXY=             15.2133  XXZ=             35.9532  XZZ=              2.7023  YZZ=             -1.4782
  YYZ=             -7.5415  XYZ=              2.8352
 Hexadecapole moment (field-independent basis, Debye-Ang**3):
 XXXX=          -1812.2868 YYYY=          -1051.9547 ZZZZ=           -348.7278 XXXY=           -145.4651
 XXXZ=             59.7084 YYYX=           -126.8740 YYYZ=             12.4915 ZZZX=            -33.0571
 ZZZY=             15.0940 XXYY=           -537.0648 XXZZ=           -420.2878 YYZZ=           -261.2580
 XXYZ=             15.7928 YYXZ=              3.1825 ZZXY=              4.4144
 N-N= 1.120022461707D+03 E-N=-4.212488780567D+03  KE= 8.328004801561D+02
  Exact polarizability:   0.000   0.000   0.000   0.000   0.000   0.000
 Approx polarizability: 144.278   1.251 132.881  -2.210   1.307 128.418
 Calling FoFJK, ICntrl=    100147 FMM=F ISym2X=0 I1Cent= 0 IOpClX= 0 NMat=1 NMatS=1 NMatT=0.
 -------------------------------------------------------------------
 Center     Atomic                   Forces (Hartrees/Bohr)
 Number     Number              X              Y              Z
 -------------------------------------------------------------------
      1        6           0.000000728    0.000000638    0.000000763
      2        6          -0.000002067   -0.000000221   -0.000001666
      3        6          -0.000000872   -0.000000114   -0.000002576
      4        6          -0.000001496   -0.000000698    0.000001774
      5        1          -0.000001009    0.000000850    0.000001170
      6        1           0.000001649   -0.000000367    0.000000272
      7        1           0.000000683    0.000000437    0.000001307
      8        1          -0.000000793   -0.000000078   -0.000001126
      9        6          -0.000003973   -0.000001993    0.000005391
     10        8          -0.000003332   -0.000001838    0.000002427
     11        6           0.000001697   -0.000005009    0.000000275
     12        1           0.000005570    0.000003871    0.000004119
     13        1           0.000000567    0.000000883   -0.000005239
     14        8          -0.000005285    0.000001816    0.000006642
     15        1           0.000000557   -0.000000964    0.000001577
     16        8           0.000006331   -0.000000253   -0.000002342
     17        1          -0.000001040    0.000001419    0.000002210
     18        8           0.000004419   -0.000002897    0.000002504
     19        1          -0.000007476    0.000000783   -0.000009786
     20        8           0.000006862    0.000000299   -0.000005555
     21        1          -0.000002493   -0.000000077   -0.000001263
     22        8          -0.000004387    0.000009024    0.000013495
     23        1           0.000000685   -0.000000129    0.000001574
     24        1          -0.000001966   -0.000000902    0.000002879
     25        1           0.000001291   -0.000006730   -0.000003433
     26        8          -0.000013366    0.000024792   -0.000031283
     27        1           0.000018053   -0.000017033    0.000015397
     28        1          -0.000005391   -0.000006583   -0.000008131
     29        8           0.000007262    0.000000473    0.000003688
     30        1          -0.000001405    0.000000602    0.000004938
 -------------------------------------------------------------------
 Cartesian Forces:  Max     0.000031283 RMS     0.000006532
 IRC-IRC-IRC-IRC-IRC-IRC-IRC-IRC-IRC-IRC-IRC-IRC-IRC-IRC-IRC-IRC-IRC-IRC
          ******** Start new reaction path calculation ********
 Supplied step size of   0.1000 bohr.
    Integration on MW PES will use step size of   0.1145 sqrt(amu)*bohr.
 Point Number:   0          Path Number:   1
 Calculating another point on the path.
 IRC-IRC-IRC-IRC-IRC-IRC-IRC-IRC-IRC-IRC-IRC-IRC-IRC-IRC-IRC-IRC-IRC-IRC
                          Input orientation:                          
 ---------------------------------------------------------------------
 Center     Atomic      Atomic             Coordinates (Angstroms)
 Number     Number       Type             X           Y           Z
 ---------------------------------------------------------------------
      1          6           0       -0.450746    0.865159    0.133250
      2          6           0        1.492474   -0.754884    0.071621
      3          6           0        1.059043    0.740860   -0.047911
      4          6           0        0.362294   -1.772190    0.341830
      5          1           0        0.759368   -2.767399    0.079072
      6          1           0        2.159587   -0.826699    0.933580
      7          1           0       -0.744741    0.484058    1.116968
      8          1           0        1.267490    1.050371   -1.087943
      9          6           0       -0.949548   -1.583183   -0.467053
     10          8           0       -0.992560    0.018720   -0.905794
     11          6           0       -0.971604    2.282283   -0.006037
     12          1           0       -0.392735    2.925258    0.666254
     13          1           0       -0.838916    2.632758   -1.039949
     14          8           0       -2.363849    2.279131    0.357606
     15          1           0       -2.700896    3.182946    0.269397
     16          8           0        0.048124   -1.703254    1.716252
     17          1           0       -0.919510   -1.887651    1.728644
     18          8           0        2.302780   -1.148553   -1.055329
     19          1           0        1.787424   -0.988029   -1.862867
     20          8           0        1.730164    1.582806    0.859938
     21          1           0        2.676665    1.547534    0.594461
     22          8           0       -3.380400   -0.088040   -0.732761
     23          1           0       -3.049907   -0.996025   -0.219035
     24          1           0       -2.298334    0.130700   -0.985311
     25          1           0       -3.532159    0.614382   -0.065974
     26          8           0        4.153637    0.868049   -0.366019
     27          1           0        4.822418    0.477289    0.216191
     28          1           0        3.706653    0.098749   -0.782366
     29          8           0       -2.018834   -1.875490    0.228615
     30          1           0       -0.887196   -1.977984   -1.494004
 ---------------------------------------------------------------------
                    Distance matrix (angstroms):
                    1          2          3          4          5
     1  C    0.000000
     2  C    2.530700   0.000000
     3  C    1.525690   1.561859   0.000000
     4  C    2.767698   1.544419   2.636812   0.000000
     5  H    3.829202   2.141895   3.523325   1.103246   0.000000
     6  H    3.211970   1.092323   2.152153   2.115274   2.541086
     7  H    1.095159   2.762763   2.162528   2.630023   3.729819
     8  H    2.116117   2.157349   1.104949   3.290970   4.024361
     9  C    2.569737   2.634335   3.100209   1.552722   2.149654
    10  O    1.445557   2.780144   2.338060   2.568960   3.435357
    11  C    1.516224   3.911790   2.549758   4.282412   5.338802
    12  H    2.128724   4.177445   2.718324   4.768788   5.837677
    13  H    2.156728   4.259940   2.857563   4.770302   5.741813
    14  O    2.389480   4.915105   3.774508   4.883166   5.941341
    15  H    3.233241   5.755864   4.494620   5.825955   6.885946
    16  O    3.058024   2.385448   3.179296   1.411556   2.078132
    17  H    3.216051   3.137922   3.738970   1.891985   2.512703
    18  O    3.612431   1.442771   2.476218   2.471125   2.507917
    19  H    3.525365   1.970685   2.610300   2.739816   2.827399
    20  O    2.408207   2.478455   1.408356   3.659987   4.525095
    21  H    3.234045   2.641363   1.918350   4.054714   4.749769
    22  O    3.200225   4.983635   4.567795   4.242507   4.997571
    23  H    3.216170   4.558054   4.464250   3.544026   4.211557
    24  H    2.281269   4.033806   3.538784   3.530047   4.345277
    25  H    3.098014   5.209679   4.592979   4.585716   5.465774
    26  O    4.631373   3.147575   3.113500   4.673991   4.993561
    27  H    5.288060   3.553545   3.781827   4.996864   5.201460
    28  H    4.325471   2.522018   2.821626   3.993616   4.200402
    29  O    3.158980   3.689131   4.049084   2.386055   2.921689
    30  H    3.304831   3.099997   3.642958   2.230215   2.410169
                    6          7          8          9         10
     6  H    0.000000
     7  H    3.191683   0.000000
     8  H    2.899273   3.038325   0.000000
     9  C    3.492959   2.612385   3.498053   0.000000
    10  O    3.746207   2.090340   2.491046   1.661457   0.000000
    11  C    4.511431   2.132187   2.775189   3.892924   2.435922
    12  H    4.545656   2.507291   3.057574   4.681930   3.358435
    13  H    4.985346   3.045993   2.634995   4.256126   2.621983
    14  O    5.517191   2.533857   4.097083   4.194971   2.930199
    15  H    6.335826   3.439319   4.705139   5.130844   3.783095
    16  O    2.416444   2.402521   4.114950   2.403453   3.305048
    17  H    3.352401   2.455544   4.620401   2.216909   3.252668
    18  O    2.019864   4.083097   2.430670   3.333558   3.499165
    19  H    2.825712   4.178316   2.241855   3.129461   3.107708
    20  O    2.448580   2.720012   2.071665   4.354912   3.602416
    21  H    2.453437   3.620775   2.250206   4.906896   4.248676
    22  O    5.832133   3.270397   4.798439   2.866199   2.396480
    23  H    5.338167   3.047842   4.856198   2.194943   2.394582
    24  H    4.946899   2.637819   3.683942   2.241698   1.312976
    25  H    5.955820   3.030847   4.926575   3.414679   2.740378
    26  O    2.921876   5.132330   2.980648   5.662265   5.243669
    27  H    3.050525   5.639567   3.829713   6.166682   5.939959
    28  H    2.488842   4.854982   2.635997   4.960699   4.701516
    29  O    4.365334   2.824881   4.592811   1.308728   2.434780
    30  H    4.062205   3.591535   3.738782   1.101991   2.084208
                   11         12         13         14         15
    11  C    0.000000
    12  H    1.095665   0.000000
    13  H    1.099733   1.787670   0.000000
    14  O    1.438955   2.097149   2.098483   0.000000
    15  H    1.969139   2.356163   2.341808   0.968639   0.000000
    16  O    4.459891   4.766547   5.213874   4.850043   5.790116
    17  H    4.516657   4.956839   5.301481   4.618218   5.568994
    18  O    4.857288   5.179342   4.916178   5.960103   6.749337
    19  H    4.664226   5.144256   4.548072   5.730437   6.487573
    20  O    2.922111   2.519204   3.363353   4.183079   4.747997
    21  H    3.769658   3.365189   4.025956   5.098835   5.630133
    22  O    3.456712   4.468036   3.735806   2.797459   3.487893
    23  H    3.887418   4.818792   4.327868   3.395562   4.221868
    24  H    2.710811   3.764110   2.897098   2.534457   3.324538
    25  H    3.056457   3.966395   3.503716   2.077440   2.720477
    26  O    5.328954   5.095802   5.337974   6.707638   7.262722
    27  H    6.072733   5.778662   6.186650   7.410065   7.995228
    28  H    5.220786   5.185811   5.210542   6.550160   7.188544
    29  O    4.294046   5.087524   4.829675   4.170917   5.104375
    30  H    4.513430   5.380798   4.633296   4.871549   5.747546
                   16         17         18         19         20
    16  O    0.000000
    17  H    0.985126   0.000000
    18  O    3.615636   4.322027   0.000000
    19  H    4.043118   4.586476   0.971328   0.000000
    20  O    3.789554   4.451910   3.384740   3.745150   0.000000
    21  H    4.328425   5.100916   3.182842   3.641194   0.983660
    22  O    4.512356   3.918302   5.790274   5.365960   5.607699
    23  H    3.720659   3.021099   5.419770   5.109014   5.537476
    24  H    4.020907   3.652457   4.776153   4.326093   4.662869
    25  H    4.622358   4.038162   6.175214   5.839051   5.430212
    26  O    5.272825   6.141524   2.822677   3.359248   2.808393
    27  H    5.458831   6.391416   3.257101   3.959903   3.346433
    28  H    4.782796   5.626042   1.897665   2.456015   2.967507
    29  O    2.552458   1.859770   4.566541   4.432774   5.139394
    30  H    3.355002   3.224075   3.325107   2.875702   5.007079
                   21         22         23         24         25
    21  H    0.000000
    22  O    6.412851   0.000000
    23  H    6.318631   1.094339   0.000000
    24  H    5.408670   1.132473   1.556133   0.000000
    25  H    6.313196   0.980323   1.688018   1.612902   0.000000
    26  O    1.888298   7.603310   7.442273   6.523430   7.695832
    27  H    2.427503   8.276856   8.020822   7.229719   8.360465
    28  H    2.248445   7.089688   6.867822   6.008501   7.292427
    29  O    5.822254   2.443990   1.427222   2.361469   2.928549
    30  H    5.430660   3.219852   2.695758   2.587784   3.969315
                   26         27         28         29         30
    26  O    0.000000
    27  H    0.968984   0.000000
    28  H    0.982324   1.544455   0.000000
    29  O    6.780855   7.234532   6.140106   0.000000
    30  H    5.897648   6.446148   5.091434   2.063620   0.000000
 Symmetry turned off by external request.
 Stoichiometry    C6H16O8
 Framework group  C1[X(C6H16O8)]
 Deg. of freedom    84
 Full point group                 C1      NOp   1
 Rotational constants (GHZ):      0.8662383      0.4840338      0.3661141
 Standard basis: 6-31G(d) (6D, 7F)
   242 basis functions,   456 primitive gaussians,   242 cartesian basis functions
    58 alpha electrons       58 beta electrons
       nuclear repulsion energy      1120.0965216599 Hartrees.
 NAtoms=   30 NActive=   30 NUniq=   30 SFac= 1.00D+00 NAtFMM=   60 NAOKFM=F Big=F
 Integral buffers will be    131072 words long.
 Raffenetti 2 integral format.
 Two-electron integral symmetry is turned off.
 One-electron integrals computed using PRISM.
 NBasis=   242 RedAO= T EigKep=  1.33D-03  NBF=   242
 NBsUse=   242 1.00D-06 EigRej= -1.00D+00 NBFU=   242
 Initial guess from the checkpoint file:  "/scratch/10461047.yak.local/Gau-22972.chk"
 B after Tr=     0.014648    0.029901   -0.015616
         Rot=    1.000000    0.000011   -0.000022   -0.000024 Ang=   0.00 deg.
 ExpMin= 1.61D-01 ExpMax= 5.48D+03 ExpMxC= 8.25D+02 IAcc=1 IRadAn=         1 AccDes= 0.00D+00
 Harris functional with IExCor=  402 and IRadAn=       1 diagonalized for initial guess.
 HarFok:  IExCor=  402 AccDes= 0.00D+00 IRadAn=         1 IDoV= 1 UseB2=F ITyADJ=14
 ICtDFT=  3500011 ScaDFX=  1.000000  1.000000  1.000000  1.000000
 FoFCou: FMM=F IPFlag=           0 FMFlag=      100000 FMFlg1=           0
         NFxFlg=           0 DoJE=T BraDBF=F KetDBF=T FulRan=T
         wScrn=  0.000000 ICntrl=     500 IOpCl=  0 I1Cent=   200000004 NGrid=           0
         NMat0=    1 NMatS0=      1 NMatT0=    0 NMatD0=    1 NMtDS0=    0 NMtDT0=    0
 Symmetry not used in FoFCou.
 Requested convergence on RMS density matrix=1.00D-08 within 128 cycles.
 Requested convergence on MAX density matrix=1.00D-06.
 Requested convergence on             energy=1.00D-06.
 No special actions if energy rises.
 Integral accuracy reduced to 1.0D-05 until final iterations.
 Initial convergence to 1.0D-05 achieved.  Increase integral accuracy.
 SCF Done:  E(RB3LYP) =  -839.961677495     A.U. after   11 cycles
            NFock= 11  Conv=0.82D-08     -V/T= 2.0086
 DoSCS=F DFT=T ScalE2(SS,OS)=  1.000000  1.000000
 Range of M.O.s used for correlation:     1   242
 NBasis=   242 NAE=    58 NBE=    58 NFC=     0 NFV=     0
 NROrb=    242 NOA=    58 NOB=    58 NVA=   184 NVB=   184
 Symmetrizing basis deriv contribution to polar:
 IMax=3 JMax=2 DiffMx= 0.00D+00
 Calling FoFJK, ICntrl=      2147 FMM=F ISym2X=0 I1Cent= 0 IOpClX= 0 NMat=1 NMatS=1 NMatT=0.
 -------------------------------------------------------------------
 Center     Atomic                   Forces (Hartrees/Bohr)
 Number     Number              X              Y              Z
 -------------------------------------------------------------------
      1        6           0.000154098   -0.000909629   -0.000310386
      2        6          -0.000024350    0.000016920    0.000040009
      3        6           0.000080197    0.000111945    0.000221891
      4        6          -0.000301598   -0.000106705   -0.000142191
      5        1          -0.000038750   -0.000012364    0.000010909
      6        1          -0.000003711   -0.000022617    0.000006142
      7        1           0.000035965    0.000055169    0.000036086
      8        1          -0.000006858    0.000003068    0.000013295
      9        6           0.001076433    0.004753782   -0.001599141
     10        8           0.002559233   -0.003069633    0.001113787
     11        6           0.000035787   -0.000470002   -0.000239505
     12        1          -0.000002665   -0.000035369   -0.000005588
     13        1          -0.000023162   -0.000012854   -0.000020009
     14        8          -0.000240766   -0.000157499   -0.000069487
     15        1           0.000007339   -0.000000895    0.000014955
     16        8          -0.000132099   -0.000073781    0.000060802
     17        1           0.000030572    0.000019482    0.000101118
     18        8          -0.000016337   -0.000057174    0.000002597
     19        1          -0.000023472    0.000041438    0.000006528
     20        8           0.000262400    0.000079850    0.000127609
     21        1           0.000010803    0.000020012    0.000011566
     22        8          -0.000249957   -0.000614494    0.000813561
     23        1           0.001952566   -0.001810670    0.000906789
     24        1          -0.002140405    0.000404510   -0.000720979
     25        1          -0.000023348   -0.000040372   -0.000027083
     26        8           0.000042163    0.000016494   -0.000064892
     27        1           0.000011227   -0.000028861    0.000017110
     28        1          -0.000025628    0.000000774    0.000001380
     29        8          -0.003029015    0.001938599   -0.000384400
     30        1           0.000023338   -0.000039124    0.000077527
 -------------------------------------------------------------------
 Cartesian Forces:  Max     0.004753782 RMS     0.000897913
 IRC-IRC-IRC-IRC-IRC-IRC-IRC-IRC-IRC-IRC-IRC-IRC-IRC-IRC-IRC-IRC-IRC-IRC
 Pt  1 Step number   1 out of a maximum of  20
 Modified Bulirsch-Stoer Extrapolation Cycles:
    EPS =    0.000010000000000
 Maximum DWI energy   std dev =  0.000001730 at pt     4
 Maximum DWI gradient std dev =  0.171635338 at pt     2
 CORRECTOR INTEGRATION CONVERGENCE:
   Recorrection delta-x convergence threshold:    0.010000
   Delta-x Convergence Met
 Point Number:   1          Path Number:   1
   CHANGE IN THE REACTION COORDINATE =    0.11426
   NET REACTION COORDINATE UP TO THIS POINT =    0.11426
  # OF POINTS ALONG THE PATH =   1
  # OF STEPS =   1

 Calculating another point on the path.
 IRC-IRC-IRC-IRC-IRC-IRC-IRC-IRC-IRC-IRC-IRC-IRC-IRC-IRC-IRC-IRC-IRC-IRC
                          Input orientation:                          
 ---------------------------------------------------------------------
 Center     Atomic      Atomic             Coordinates (Angstroms)
 Number     Number       Type             X           Y           Z
 ---------------------------------------------------------------------
      1          6           0       -0.450509    0.864143    0.132973
      2          6           0        1.492454   -0.754871    0.071655
      3          6           0        1.059163    0.741007   -0.047631
      4          6           0        0.361880   -1.772335    0.341661
      5          1           0        0.758712   -2.767602    0.079198
      6          1           0        2.159471   -0.827078    0.933674
      7          1           0       -0.744309    0.484814    1.117525
      8          1           0        1.267394    1.050414   -1.087733
      9          6           0       -0.948206   -1.577270   -0.469068
     10          8           0       -0.990126    0.015829   -0.904843
     11          6           0       -0.971615    2.281730   -0.006334
     12          1           0       -0.392704    2.924601    0.666042
     13          1           0       -0.839204    2.632537   -1.040186
     14          8           0       -2.363991    2.279026    0.357555
     15          1           0       -2.700748    3.182967    0.269561
     16          8           0        0.048016   -1.703312    1.716308
     17          1           0       -0.919165   -1.887424    1.730413
     18          8           0        2.302748   -1.148610   -1.055325
     19          1           0        1.787245   -0.987410   -1.862675
     20          8           0        1.730401    1.582866    0.860052
     21          1           0        2.676844    1.547854    0.594610
     22          8           0       -3.380289   -0.089257   -0.731876
     23          1           0       -3.021838   -1.014144   -0.210234
     24          1           0       -2.335983    0.134461   -0.993114
     25          1           0       -3.532743    0.613835   -0.065365
     26          8           0        4.153687    0.868046   -0.366060
     27          1           0        4.822330    0.477050    0.216186
     28          1           0        3.706403    0.098865   -0.782348
     29          8           0       -2.021706   -1.873554    0.228206
     30          1           0       -0.886822   -1.978636   -1.493174
 ---------------------------------------------------------------------
                    Distance matrix (angstroms):
                    1          2          3          4          5
     1  C    0.000000
     2  C    2.529837   0.000000
     3  C    1.525415   1.561929   0.000000
     4  C    2.766684   1.544775   2.637165   0.000000
     5  H    3.828144   2.142316   3.523733   1.103141   0.000000
     6  H    3.211440   1.092339   2.152331   2.115496   2.541238
     7  H    1.095240   2.762928   2.162344   2.630654   3.730337
     8  H    2.115659   2.157287   1.104946   3.291054   4.024641
     9  C    2.563329   2.631642   3.095408   1.552951   2.151989
    10  O    1.444951   2.776820   2.336724   2.565000   3.431364
    11  C    1.516743   3.911351   2.549430   4.281910   5.338268
    12  H    2.129083   4.176797   2.717596   4.768210   5.837065
    13  H    2.157453   4.259971   2.857769   4.770220   5.741764
    14  O    2.390344   4.915124   3.774607   4.883048   5.941146
    15  H    3.234064   5.755751   4.494519   5.825796   6.885737
    16  O    3.057336   2.385545   3.179401   1.411712   2.077964
    17  H    3.215987   3.138480   3.739501   1.892870   2.513265
    18  O    3.611600   1.442807   2.476410   2.471349   2.508450
    19  H    3.523976   1.970434   2.609965   2.739867   2.828045
    20  O    2.408646   2.478549   1.408253   3.660457   4.525537
    21  H    3.234333   2.641743   1.918428   4.055452   4.750583
    22  O    3.200085   4.983205   4.567961   4.241352   4.996269
    23  H    3.202731   4.530509   4.445398   3.511266   4.177433
    24  H    2.314199   4.072047   3.576150   3.563139   4.375952
    25  H    3.098734   5.210060   4.593700   4.585582   5.465492
    26  O    4.631163   3.147637   3.113457   4.674428   4.994201
    27  H    5.287684   3.553393   3.781627   4.997108   5.201878
    28  H    4.324741   2.521856   2.821354   3.993823   4.200926
    29  O    3.157960   3.691243   4.050156   2.388430   2.924423
    30  H    3.303955   3.099555   3.643200   2.228999   2.408859
                    6          7          8          9         10
     6  H    0.000000
     7  H    3.191677   0.000000
     8  H    2.899460   3.038095   0.000000
     9  C    3.491151   2.609798   3.492328   0.000000
    10  O    3.743074   2.090537   2.490023   1.652157   0.000000
    11  C    4.511320   2.131580   2.774658   3.886715   2.437615
    12  H    4.545363   2.505998   3.056833   4.675886   3.359397
    13  H    4.985690   3.045888   2.634981   4.249769   2.624548
    14  O    5.517383   2.533796   4.096988   4.190320   2.933124
    15  H    6.335869   3.439000   4.704910   5.126093   3.786319
    16  O    2.416308   2.402960   4.114917   2.405040   3.302063
    17  H    3.352182   2.456363   4.621026   2.221432   3.251458
    18  O    2.019908   4.083370   2.430785   3.331088   3.495938
    19  H    2.825567   4.178254   2.241318   3.126143   3.104468
    20  O    2.448949   2.719595   2.071654   4.350627   3.601628
    21  H    2.454168   3.620467   2.250394   4.902938   4.247602
    22  O    5.831585   3.270815   4.798588   2.863264   2.398717
    23  H    5.309377   3.032649   4.840446   2.164268   2.381424
    24  H    4.984594   2.666640   3.719173   2.265076   1.353955
    25  H    5.956140   3.031705   4.927185   3.412294   2.743581
    26  O    2.922268   5.132081   2.980731   5.658577   5.241695
    27  H    3.050633   5.639144   3.829690   6.163514   5.937515
    28  H    2.488996   4.854618   2.635806   4.957113   4.698860
    29  O    4.367498   2.825691   4.593415   1.313917   2.432637
    30  H    4.061475   3.592304   3.739007   1.101660   2.081993
                   11         12         13         14         15
    11  C    0.000000
    12  H    1.095679   0.000000
    13  H    1.099749   1.787702   0.000000
    14  O    1.439143   2.097119   2.098482   0.000000
    15  H    1.969326   2.356060   2.341742   0.968636   0.000000
    16  O    4.459563   4.766012   5.213924   4.850052   5.790034
    17  H    4.516734   4.956373   5.302137   4.618611   5.569289
    18  O    4.856858   5.178766   4.916214   5.960149   6.749285
    19  H    4.663109   5.142997   4.547388   5.729903   6.486952
    20  O    2.922316   2.519021   3.363864   4.183442   4.748061
    21  H    3.769743   3.364916   4.026374   5.099101   5.630075
    22  O    3.456834   4.468018   3.736353   2.797943   3.488854
    23  H    3.886872   4.816007   4.330242   3.405895   4.236631
    24  H    2.728736   3.783387   2.912550   2.534611   3.319758
    25  H    3.056915   3.966666   3.504367   2.077908   2.721181
    26  O    5.328849   5.095519   5.338242   6.707802   7.262654
    27  H    6.072577   5.778361   6.186886   7.410150   7.995095
    28  H    5.220245   5.185103   5.210424   6.549975   7.188169
    29  O    4.292328   5.086024   4.828248   4.168670   5.102079
    30  H    4.513159   5.380344   4.633614   4.871849   5.748017
                   16         17         18         19         20
    16  O    0.000000
    17  H    0.984650   0.000000
    18  O    3.615724   4.322835   0.000000
    19  H    4.043088   4.587479   0.971362   0.000000
    20  O    3.789796   4.452037   3.384850   3.744702   0.000000
    21  H    4.328859   5.101221   3.183261   3.641044   0.983585
    22  O    4.511326   3.918342   5.789971   5.365519   5.607975
    23  H    3.689244   2.991649   5.392910   5.085131   5.520303
    24  H    4.049917   3.676002   4.813311   4.360704   4.697614
    25  H    4.622268   4.038800   6.175693   5.839228   5.431031
    26  O    5.273013   6.141794   2.822758   3.358961   2.808315
    27  H    5.458793   6.391275   3.256963   3.959552   3.346255
    28  H    4.782773   5.626295   1.897620   2.455661   2.967208
    29  O    2.554835   1.863442   4.568796   4.434540   5.140464
    30  H    3.354177   3.225040   3.324757   2.875707   5.007177
                   21         22         23         24         25
    21  H    0.000000
    22  O    6.413155   0.000000
    23  H    6.299729   1.120720   0.000000
    24  H    5.444904   1.099487   1.550030   0.000000
    25  H    6.314026   0.980723   1.712404   1.588318   0.000000
    26  O    1.888409   7.603357   7.419911   6.561033   7.696508
    27  H    2.427537   8.276624   7.996029   7.267821   8.360935
    28  H    2.248461   7.089369   6.843635   6.046166   7.292770
    29  O    5.823800   2.439513   1.389633   2.371184   2.925153
    30  H    5.430901   3.219738   2.671044   2.610614   3.969943
                   26         27         28         29         30
    26  O    0.000000
    27  H    0.969006   0.000000
    28  H    0.982343   1.544470   0.000000
    29  O    6.782698   7.236458   6.141896   0.000000
    30  H    5.897517   6.445675   5.091071   2.064499   0.000000
 Symmetry turned off by external request.
 Stoichiometry    C6H16O8
 Framework group  C1[X(C6H16O8)]
 Deg. of freedom    84
 Full point group                 C1      NOp   1
 Rotational constants (GHZ):      0.8667673      0.4839942      0.3661812
 Standard basis: 6-31G(d) (6D, 7F)
   242 basis functions,   456 primitive gaussians,   242 cartesian basis functions
    58 alpha electrons       58 beta electrons
       nuclear repulsion energy      1120.1703670455 Hartrees.
 NAtoms=   30 NActive=   30 NUniq=   30 SFac= 1.00D+00 NAtFMM=   60 NAOKFM=F Big=F
 Integral buffers will be    131072 words long.
 Raffenetti 2 integral format.
 Two-electron integral symmetry is turned off.
 One-electron integrals computed using PRISM.
 NBasis=   242 RedAO= T EigKep=  1.33D-03  NBF=   242
 NBsUse=   242 1.00D-06 EigRej= -1.00D+00 NBFU=   242
 Initial guess from the checkpoint file:  "/scratch/10461047.yak.local/Gau-22972.chk"
 B after Tr=    -0.000086   -0.000126    0.000045
         Rot=    1.000000    0.000012   -0.000022   -0.000027 Ang=   0.00 deg.
 ExpMin= 1.61D-01 ExpMax= 5.48D+03 ExpMxC= 8.25D+02 IAcc=1 IRadAn=         1 AccDes= 0.00D+00
 Harris functional with IExCor=  402 and IRadAn=       1 diagonalized for initial guess.
 HarFok:  IExCor=  402 AccDes= 0.00D+00 IRadAn=         1 IDoV= 1 UseB2=F ITyADJ=14
 ICtDFT=  3500011 ScaDFX=  1.000000  1.000000  1.000000  1.000000
 FoFCou: FMM=F IPFlag=           0 FMFlag=      100000 FMFlg1=           0
         NFxFlg=           0 DoJE=T BraDBF=F KetDBF=T FulRan=T
         wScrn=  0.000000 ICntrl=     500 IOpCl=  0 I1Cent=   200000004 NGrid=           0
         NMat0=    1 NMatS0=      1 NMatT0=    0 NMatD0=    1 NMtDS0=    0 NMtDT0=    0
 Symmetry not used in FoFCou.
 Requested convergence on RMS density matrix=1.00D-08 within 128 cycles.
 Requested convergence on MAX density matrix=1.00D-06.
 Requested convergence on             energy=1.00D-06.
 No special actions if energy rises.
 Integral accuracy reduced to 1.0D-05 until final iterations.
 Initial convergence to 1.0D-05 achieved.  Increase integral accuracy.
 SCF Done:  E(RB3LYP) =  -839.962373273     A.U. after   11 cycles
            NFock= 11  Conv=0.74D-08     -V/T= 2.0086
 DoSCS=F DFT=T ScalE2(SS,OS)=  1.000000  1.000000
 Range of M.O.s used for correlation:     1   242
 NBasis=   242 NAE=    58 NBE=    58 NFC=     0 NFV=     0
 NROrb=    242 NOA=    58 NOB=    58 NVA=   184 NVB=   184
 Symmetrizing basis deriv contribution to polar:
 IMax=3 JMax=2 DiffMx= 0.00D+00
 Calling FoFJK, ICntrl=      2147 FMM=F ISym2X=0 I1Cent= 0 IOpClX= 0 NMat=1 NMatS=1 NMatT=0.
 -------------------------------------------------------------------
 Center     Atomic                   Forces (Hartrees/Bohr)
 Number     Number              X              Y              Z
 -------------------------------------------------------------------
      1        6           0.000358591   -0.001626329   -0.000438225
      2        6          -0.000032522    0.000022243    0.000054212
      3        6           0.000179297    0.000227147    0.000438514
      4        6          -0.000640109   -0.000231130   -0.000275053
      5        1          -0.000080130   -0.000026024    0.000016408
      6        1          -0.000016471   -0.000047939    0.000013855
      7        1           0.000060670    0.000099239    0.000063147
      8        1          -0.000009984    0.000006018    0.000028112
      9        6           0.002313852    0.009243120   -0.003222441
     10        8           0.005112485   -0.006102782    0.002077683
     11        6          -0.000030666   -0.000874684   -0.000468943
     12        1           0.000002550   -0.000083128   -0.000026533
     13        1          -0.000035780   -0.000028452   -0.000029730
     14        8          -0.000303843   -0.000229181   -0.000108411
     15        1           0.000019442    0.000003243    0.000018303
     16        8          -0.000255926   -0.000128389    0.000127055
     17        1           0.000074134    0.000033836    0.000242353
     18        8          -0.000070749   -0.000118062    0.000007829
     19        1          -0.000018682    0.000080359    0.000027103
     20        8           0.000488960    0.000126954    0.000240348
     21        1           0.000024831    0.000041231    0.000021589
     22        8          -0.001707295   -0.001092427    0.001516099
     23        1           0.004192850   -0.004062655    0.002075066
     24        1          -0.003461110    0.000815197   -0.001466072
     25        1          -0.000083652   -0.000136888   -0.000073238
     26        8           0.000092584   -0.000014281   -0.000074709
     27        1          -0.000008232   -0.000022618    0.000001904
     28        1          -0.000027326    0.000017216    0.000011440
     29        8          -0.006165318    0.004182688   -0.000941009
     30        1           0.000027547   -0.000073522    0.000143344
 -------------------------------------------------------------------
 Cartesian Forces:  Max     0.009243120 RMS     0.001796296
 IRC-IRC-IRC-IRC-IRC-IRC-IRC-IRC-IRC-IRC-IRC-IRC-IRC-IRC-IRC-IRC-IRC-IRC
 Pt  2 Step number   1 out of a maximum of  20
 Modified Bulirsch-Stoer Extrapolation Cycles:
    EPS =    0.000010000000000
 Maximum DWI energy   std dev =  0.000006618 at pt    52
 Maximum DWI gradient std dev =  0.134871868 at pt    55
 CORRECTOR INTEGRATION CONVERGENCE:
   Recorrection delta-x convergence threshold:    0.010000
   Delta-x Convergence NOT Met
 IRC-IRC-IRC-IRC-IRC-IRC-IRC-IRC-IRC-IRC-IRC-IRC-IRC-IRC-IRC-IRC-IRC-IRC
                          Input orientation:                          
 ---------------------------------------------------------------------
 Center     Atomic      Atomic             Coordinates (Angstroms)
 Number     Number       Type             X           Y           Z
 ---------------------------------------------------------------------
      1          6           0       -0.450504    0.864177    0.133009
      2          6           0        1.492458   -0.754871    0.071648
      3          6           0        1.059163    0.741006   -0.047637
      4          6           0        0.361874   -1.772339    0.341664
      5          1           0        0.758697   -2.767599    0.079187
      6          1           0        2.159446   -0.827092    0.933684
      7          1           0       -0.744340    0.484790    1.117487
      8          1           0        1.267406    1.050413   -1.087734
      9          6           0       -0.948145   -1.577313   -0.469089
     10          8           0       -0.990078    0.015816   -0.904843
     11          6           0       -0.971646    2.281736   -0.006331
     12          1           0       -0.392650    2.924565    0.666026
     13          1           0       -0.839170    2.632536   -1.040187
     14          8           0       -2.363971    2.279034    0.357562
     15          1           0       -2.700736    3.182971    0.269537
     16          8           0        0.048016   -1.703312    1.716307
     17          1           0       -0.919098   -1.887420    1.730603
     18          8           0        2.302742   -1.148611   -1.055325
     19          1           0        1.787278   -0.987400   -1.862696
     20          8           0        1.730393    1.582861    0.860048
     21          1           0        2.676847    1.547857    0.594603
     22          8           0       -3.380688   -0.089169   -0.731881
     23          1           0       -3.019784   -1.016904   -0.208776
     24          1           0       -2.332384    0.135285   -0.994155
     25          1           0       -3.532843    0.613720   -0.065530
     26          8           0        4.153683    0.868048   -0.366063
     27          1           0        4.822333    0.477064    0.216192
     28          1           0        3.706431    0.098869   -0.782352
     29          8           0       -2.021755   -1.873512    0.228188
     30          1           0       -0.886918   -1.978615   -1.493116
 ---------------------------------------------------------------------
                    Distance matrix (angstroms):
                    1          2          3          4          5
     1  C    0.000000
     2  C    2.529857   0.000000
     3  C    1.525417   1.561929   0.000000
     4  C    2.766714   1.544788   2.637171   0.000000
     5  H    3.828166   2.142320   3.523730   1.103135   0.000000
     6  H    3.211434   1.092336   2.152335   2.115478   2.541226
     7  H    1.095203   2.762934   2.162356   2.630635   3.730311
     8  H    2.115681   2.157281   1.104943   3.291063   4.024637
     9  C    2.563404   2.631606   3.095401   1.552902   2.151906
    10  O    1.444989   2.776775   2.336684   2.564967   3.431317
    11  C    1.516734   3.911377   2.549459   4.281928   5.338276
    12  H    2.129003   4.176741   2.717536   4.768168   5.837012
    13  H    2.157440   4.259952   2.857746   4.770215   5.741746
    14  O    2.390314   4.915116   3.774594   4.883042   5.941132
    15  H    3.234036   5.755747   4.494511   5.825794   6.885724
    16  O    3.057344   2.385552   3.179403   1.411707   2.077965
    17  H    3.216080   3.138535   3.739556   1.892957   2.513342
    18  O    3.611622   1.442796   2.476404   2.471353   2.508449
    19  H    3.524038   1.970450   2.609977   2.739910   2.828073
    20  O    2.408610   2.478544   1.408248   3.660456   4.525532
    21  H    3.234318   2.641745   1.918433   4.055464   4.750591
    22  O    3.200451   4.983610   4.568332   4.241737   4.996632
    23  H    3.202575   4.528534   4.444549   3.508457   4.174299
    24  H    2.311548   4.069119   3.572868   3.561245   4.374195
    25  H    3.098864   5.210134   4.593804   4.585618   5.465489
    26  O    4.631157   3.147630   3.113453   4.674434   4.994207
    27  H    5.287682   3.553397   3.781630   4.997125   5.201899
    28  H    4.324776   2.521878   2.821379   3.993857   4.200955
    29  O    3.157979   3.691280   4.050165   2.388471   2.924467
    30  H    3.303968   3.099591   3.643210   2.229001   2.408876
                    6          7          8          9         10
     6  H    0.000000
     7  H    3.191676   0.000000
     8  H    2.899464   3.038099   0.000000
     9  C    3.491093   2.609795   3.492324   0.000000
    10  O    3.743018   2.090489   2.489994   1.652181   0.000000
    11  C    4.511340   2.131584   2.774697   3.886767   2.437634
    12  H    4.545302   2.505994   3.056780   4.675892   3.359370
    13  H    4.985670   3.045877   2.634964   4.249807   2.624560
    14  O    5.517358   2.533772   4.096984   4.190385   2.933155
    15  H    6.335856   3.438994   4.704905   5.126153   3.786342
    16  O    2.416278   2.402957   4.114919   2.405030   3.302040
    17  H    3.352135   2.456386   4.621113   2.221634   3.251604
    18  O    2.019917   4.083359   2.430777   3.331025   3.495884
    19  H    2.825589   4.178268   2.241320   3.126128   3.104454
    20  O    2.448956   2.719621   2.071645   4.350618   3.601588
    21  H    2.454193   3.620503   2.250385   4.902927   4.247568
    22  O    5.831958   3.271073   4.798964   2.863722   2.399157
    23  H    5.307134   3.031782   4.840078   2.161830   2.381329
    24  H    4.981895   2.665158   3.715468   2.263803   1.350568
    25  H    5.956217   3.031814   4.927269   3.412352   2.743645
    26  O    2.922297   5.132098   2.980715   5.658538   5.241647
    27  H    3.050670   5.639171   3.829682   6.163481   5.937474
    28  H    2.489045   4.854656   2.635819   4.957096   4.698841
    29  O    4.367512   2.825638   4.593426   1.313989   2.432628
    30  H    4.061490   3.592206   3.739045   1.101555   2.081938
                   11         12         13         14         15
    11  C    0.000000
    12  H    1.095687   0.000000
    13  H    1.099759   1.787687   0.000000
    14  O    1.439095   2.097133   2.098495   0.000000
    15  H    1.969283   2.356107   2.341748   0.968639   0.000000
    16  O    4.459574   4.765975   5.213918   4.850046   5.790038
    17  H    4.516810   4.956377   5.302233   4.618684   5.569363
    18  O    4.856880   5.178701   4.916189   5.960135   6.749270
    19  H    4.663154   5.142955   4.547383   5.729922   6.486962
    20  O    2.922337   2.518953   3.363832   4.183415   4.748047
    21  H    3.769775   3.364853   4.026344   5.099084   5.630068
    22  O    3.457036   4.468233   3.736582   2.798032   3.488849
    23  H    3.888044   4.816876   4.331829   3.407938   4.239048
    24  H    2.726657   3.781382   2.909995   2.534520   3.319787
[...]
 Alpha  occ. eigenvalues --   -1.04789  -1.03870  -1.01985  -1.01584  -1.00889
 Alpha  occ. eigenvalues --   -0.99924  -0.99554  -0.77759  -0.76442  -0.69945
 Alpha  occ. eigenvalues --   -0.65529  -0.61780  -0.57911  -0.55690  -0.53729
 Alpha  occ. eigenvalues --   -0.53608  -0.52855  -0.51975  -0.51119  -0.50246
 Alpha  occ. eigenvalues --   -0.47943  -0.46045  -0.45114  -0.44443  -0.43052
 Alpha  occ. eigenvalues --   -0.42152  -0.41152  -0.40080  -0.39520  -0.38298
 Alpha  occ. eigenvalues --   -0.36666  -0.36161  -0.34867  -0.34279  -0.32619
 Alpha  occ. eigenvalues --   -0.31487  -0.30356  -0.29559  -0.29465  -0.28506
 Alpha  occ. eigenvalues --   -0.27845  -0.27190  -0.24970
 Alpha virt. eigenvalues --    0.04278   0.04907   0.07185   0.07847   0.09037
 Alpha virt. eigenvalues --    0.10365   0.12608   0.13347   0.13664   0.14721
 Alpha virt. eigenvalues --    0.15648   0.16061   0.16957   0.17891   0.18922
 Alpha virt. eigenvalues --    0.20271   0.20415   0.21564   0.22924   0.23748
 Alpha virt. eigenvalues --    0.23916   0.25722   0.26360   0.28106   0.30751
 Alpha virt. eigenvalues --    0.31302   0.32830   0.34192   0.51761   0.52778
 Alpha virt. eigenvalues --    0.53407   0.54461   0.57731   0.57879   0.59385
 Alpha virt. eigenvalues --    0.60108   0.61987   0.62689   0.64557   0.66264
 Alpha virt. eigenvalues --    0.67674   0.68363   0.70340   0.73752   0.73915
 Alpha virt. eigenvalues --    0.76045   0.76994   0.78781   0.79802   0.80462
 Alpha virt. eigenvalues --    0.81927   0.82619   0.83355   0.84633   0.85145
 Alpha virt. eigenvalues --    0.85652   0.86241   0.87428   0.89567   0.89998
 Alpha virt. eigenvalues --    0.91285   0.92474   0.93155   0.94370   0.95791
 Alpha virt. eigenvalues --    0.97820   0.98429   0.99381   1.00839   1.02578
 Alpha virt. eigenvalues --    1.04461   1.05831   1.06070   1.08974   1.10528
 Alpha virt. eigenvalues --    1.11689   1.13086   1.13606   1.15211   1.16765
 Alpha virt. eigenvalues --    1.17602   1.18746   1.20149   1.20685   1.23940
 Alpha virt. eigenvalues --    1.27292   1.29102   1.32467   1.34797   1.37101
 Alpha virt. eigenvalues --    1.40440   1.42309   1.44937   1.48084   1.49485
 Alpha virt. eigenvalues --    1.51463   1.54330   1.55009   1.57155   1.60420
 Alpha virt. eigenvalues --    1.62419   1.64161   1.66281   1.67424   1.69563
 Alpha virt. eigenvalues --    1.70746   1.71280   1.72007   1.72961   1.73951
 Alpha virt. eigenvalues --    1.75538   1.76631   1.77990   1.79714   1.79835
 Alpha virt. eigenvalues --    1.80519   1.82652   1.85726   1.86394   1.86986
 Alpha virt. eigenvalues --    1.88008   1.89719   1.91923   1.92310   1.94622
 Alpha virt. eigenvalues --    1.95875   1.96863   2.00652   2.03237   2.04631
 Alpha virt. eigenvalues --    2.05697   2.08263   2.09642   2.11326   2.15671
 Alpha virt. eigenvalues --    2.18565   2.21600   2.23705   2.25896   2.27470
 Alpha virt. eigenvalues --    2.30253   2.32783   2.33525   2.38169   2.40425
 Alpha virt. eigenvalues --    2.40907   2.44806   2.46173   2.47718   2.48332
 Alpha virt. eigenvalues --    2.50600   2.53621   2.55951   2.56951   2.59036
 Alpha virt. eigenvalues --    2.63231   2.63762   2.65742   2.67704   2.69730
 Alpha virt. eigenvalues --    2.71364   2.76328   2.82258   2.87329   2.88917
 Alpha virt. eigenvalues --    2.92652   2.93973   2.97542   3.02558   3.05666
 Alpha virt. eigenvalues --    3.71118   3.76535   3.79576   3.82759   3.89094
 Alpha virt. eigenvalues --    3.93049   4.07726   4.15018   4.30539   4.34432
 Alpha virt. eigenvalues --    4.42651   4.51105   4.63649   4.80978
          Condensed to atoms (all electrons):
               1          2          3          4          5          6
     1  C    4.997945  -0.041822   0.317082   0.002291   0.000119   0.000503
     2  C   -0.041822   5.098152   0.306920   0.298440  -0.055462   0.355281
     3  C    0.317082   0.306920   4.930464  -0.030678   0.004841  -0.047428
     4  C    0.002291   0.298440  -0.030678   5.006464   0.356830  -0.032043
     5  H    0.000119  -0.055462   0.004841   0.356830   0.629816  -0.003828
     6  H    0.000503   0.355281  -0.047428  -0.032043  -0.003828   0.562637
     7  H    0.339748  -0.013667  -0.037232  -0.007664   0.000440   0.001070
     8  H   -0.047122  -0.072134   0.342604   0.003643  -0.000357   0.005695
     9  C   -0.014319  -0.029112  -0.017022   0.288522  -0.048256   0.005291
    10  O    0.151686   0.000078  -0.045381  -0.016296   0.002825   0.000349
    11  C    0.352514   0.004948  -0.031233   0.000161   0.000020  -0.000205
    12  H   -0.036680   0.000268  -0.001406  -0.000004  -0.000000  -0.000001
    13  H   -0.033301  -0.000172  -0.003330   0.000002  -0.000001   0.000005
    14  O   -0.044408  -0.000037   0.002070   0.000008   0.000000   0.000000
    15  H    0.005861   0.000003  -0.000217  -0.000001   0.000000  -0.000000
    16  O   -0.009023  -0.048623   0.003174   0.223622  -0.036324   0.003461
    17  H    0.000695   0.005817   0.000002  -0.040679   0.001490  -0.000446
    18  O    0.002783   0.177236  -0.033402  -0.031704   0.006568  -0.037404
    19  H   -0.000423  -0.025516  -0.005872  -0.004774  -0.000428   0.006643
    20  O   -0.044216  -0.041402   0.225745   0.002427  -0.000087   0.005034
    21  H    0.005632   0.000488  -0.023626   0.000141   0.000002   0.001462
    22  O    0.007652   0.000016   0.000077  -0.000348   0.000004   0.000000
    23  H    0.000255  -0.000048  -0.000002   0.004239  -0.000189   0.000005
    24  H   -0.011199  -0.000006   0.000600   0.001404  -0.000051   0.000001
    25  H   -0.000497  -0.000006   0.000093  -0.000011  -0.000000  -0.000000
    26  O    0.000074   0.007002   0.000823   0.000156   0.000002   0.003695
    27  H   -0.000004   0.000260  -0.000344   0.000010  -0.000001   0.000664
    28  H    0.000028  -0.007343   0.000676   0.000676  -0.000021  -0.003236
    29  O   -0.000799   0.001663   0.000459  -0.052585   0.000899  -0.000077
    30  H    0.004595  -0.000895   0.000846  -0.057162  -0.000834  -0.000210
               7          8          9         10         11         12
     1  C    0.339748  -0.047122  -0.014319   0.151686   0.352514  -0.036680
     2  C   -0.013667  -0.072134  -0.029112   0.000078   0.004948   0.000268
     3  C   -0.037232   0.342604  -0.017022  -0.045381  -0.031233  -0.001406
     4  C   -0.007664   0.003643   0.288522  -0.016296   0.000161  -0.000004
     5  H    0.000440  -0.000357  -0.048256   0.002825   0.000020  -0.000000
     6  H    0.001070   0.005695   0.005291   0.000349  -0.000205  -0.000001
     7  H    0.585406   0.007254  -0.000597  -0.038215  -0.045845  -0.002600
     8  H    0.007254   0.687851   0.001462   0.004149  -0.014458   0.000317
     9  C   -0.000597   0.001462   4.747397   0.145536   0.002516  -0.000108
    10  O   -0.038215   0.004149   0.145536   8.514454  -0.033394   0.002913
    11  C   -0.045845  -0.014458   0.002516  -0.033394   4.910680   0.363956
    12  H   -0.002600   0.000317  -0.000108   0.002913   0.363956   0.566370
    13  H    0.006603   0.005822  -0.000032  -0.001668   0.346898  -0.044843
    14  O    0.002826  -0.000028  -0.000198   0.001239   0.230222  -0.033519
    15  H   -0.000089   0.000001   0.000012  -0.000083  -0.020680  -0.002962
    16  O    0.020855  -0.000055  -0.024486  -0.000529   0.000324   0.000001
    17  H   -0.000191   0.000009  -0.018673   0.000405  -0.000045  -0.000001
    18  O    0.000050  -0.000024   0.002345  -0.001160  -0.000049  -0.000002
    19  H    0.000116   0.008596   0.002581   0.002413  -0.000051   0.000001
    20  O    0.003498  -0.037432   0.000209   0.001410  -0.001817   0.012231
    21  H   -0.000234  -0.004413  -0.000031  -0.000115   0.000056  -0.000082
    22  O    0.000141  -0.000003   0.008568  -0.063578   0.001048  -0.000034
    23  H   -0.000185   0.000001  -0.027126   0.004447  -0.000139   0.000002
    24  H    0.000669   0.000039  -0.007270   0.065758  -0.001848   0.000221
    25  H    0.000407   0.000002  -0.000500   0.004330  -0.002550   0.000193
    26  O    0.000000   0.000721  -0.000001   0.000000  -0.000001   0.000002
    27  H    0.000000  -0.000013  -0.000000  -0.000000  -0.000000  -0.000000
    28  H   -0.000004   0.000345  -0.000023  -0.000003   0.000001  -0.000001
    29  O    0.005429  -0.000008   0.288289  -0.050262  -0.000100   0.000003
    30  H    0.000514  -0.000033   0.369437  -0.048619  -0.000227   0.000004
              13         14         15         16         17         18
     1  C   -0.033301  -0.044408   0.005861  -0.009023   0.000695   0.002783
     2  C   -0.000172  -0.000037   0.000003  -0.048623   0.005817   0.177236
     3  C   -0.003330   0.002070  -0.000217   0.003174   0.000002  -0.033402
     4  C    0.000002   0.000008  -0.000001   0.223622  -0.040679  -0.031704
     5  H   -0.000001   0.000000   0.000000  -0.036324   0.001490   0.006568
     6  H    0.000005   0.000000  -0.000000   0.003461  -0.000446  -0.037404
     7  H    0.006603   0.002826  -0.000089   0.020855  -0.000191   0.000050
     8  H    0.005822  -0.000028   0.000001  -0.000055   0.000009  -0.000024
     9  C   -0.000032  -0.000198   0.000012  -0.024486  -0.018673   0.002345
    10  O   -0.001668   0.001239  -0.000083  -0.000529   0.000405  -0.001160
    11  C    0.346898   0.230222  -0.020680   0.000324  -0.000045  -0.000049
    12  H   -0.044843  -0.033519  -0.002962   0.000001  -0.000001  -0.000002
    13  H    0.631536  -0.039071  -0.003305  -0.000005  -0.000000  -0.000004
    14  O   -0.039071   8.262868   0.234980  -0.000001  -0.000001   0.000000
    15  H   -0.003305   0.234980   0.380873   0.000000  -0.000000  -0.000000
    16  O   -0.000005  -0.000001   0.000000   8.303702   0.228311   0.001481
    17  H   -0.000000  -0.000001  -0.000000   0.228311   0.348922  -0.000106
    18  O   -0.000004   0.000000  -0.000000   0.001481  -0.000106   8.286872
    19  H    0.000008   0.000000  -0.000000  -0.000016   0.000008   0.230943
    20  O    0.000181   0.000033   0.000008  -0.000186   0.000010   0.001409
    21  H   -0.000046   0.000001  -0.000001  -0.000017   0.000000   0.000280
    22  O   -0.000082  -0.012215   0.000696  -0.000008   0.000131  -0.000000
    23  H   -0.000002   0.000239  -0.000013   0.000096  -0.000415   0.000001
    24  H    0.000093   0.005781  -0.000241  -0.000057  -0.000084   0.000001
    25  H    0.000259   0.030959  -0.001469   0.000002  -0.000016   0.000000
    26  O    0.000000   0.000000   0.000000   0.000000  -0.000000  -0.018879
    27  H    0.000000  -0.000000  -0.000000  -0.000000   0.000000   0.000506
    28  H   -0.000001  -0.000000  -0.000000  -0.000014   0.000001   0.056967
    29  O    0.000004  -0.000034   0.000000  -0.022600   0.050120   0.000001
    30  H   -0.000007   0.000001  -0.000000   0.002666   0.001948   0.000929
              19         20         21         22         23         24
     1  C   -0.000423  -0.044216   0.005632   0.007652   0.000255  -0.011199
     2  C   -0.025516  -0.041402   0.000488   0.000016  -0.000048  -0.000006
     3  C   -0.005872   0.225745  -0.023626   0.000077  -0.000002   0.000600
     4  C   -0.004774   0.002427   0.000141  -0.000348   0.004239   0.001404
     5  H   -0.000428  -0.000087   0.000002   0.000004  -0.000189  -0.000051
     6  H    0.006643   0.005034   0.001462   0.000000   0.000005   0.000001
     7  H    0.000116   0.003498  -0.000234   0.000141  -0.000185   0.000669
     8  H    0.008596  -0.037432  -0.004413  -0.000003   0.000001   0.000039
     9  C    0.002581   0.000209  -0.000031   0.008568  -0.027126  -0.007270
    10  O    0.002413   0.001410  -0.000115  -0.063578   0.004447   0.065758
    11  C   -0.000051  -0.001817   0.000056   0.001048  -0.000139  -0.001848
    12  H    0.000001   0.012231  -0.000082  -0.000034   0.000002   0.000221
    13  H    0.000008   0.000181  -0.000046  -0.000082  -0.000002   0.000093
    14  O    0.000000   0.000033   0.000001  -0.012215   0.000239   0.005781
    15  H   -0.000000   0.000008  -0.000001   0.000696  -0.000013  -0.000241
    16  O   -0.000016  -0.000186  -0.000017  -0.000008   0.000096  -0.000057
    17  H    0.000008   0.000010   0.000000   0.000131  -0.000415  -0.000084
    18  O    0.230943   0.001409   0.000280  -0.000000   0.000001   0.000001
    19  H    0.382850  -0.000018  -0.000046   0.000001   0.000001  -0.000002
    20  O   -0.000018   8.344877   0.215784   0.000000  -0.000000  -0.000008
    21  H   -0.000046   0.215784   0.324558  -0.000000   0.000000   0.000001
    22  O    0.000001   0.000000  -0.000000   8.419706   0.116806   0.198724
    23  H    0.000001  -0.000000   0.000000   0.116806   0.288979  -0.017284
    24  H   -0.000002  -0.000008   0.000001   0.198724  -0.017284   0.327096
    25  H   -0.000000  -0.000000   0.000000   0.235014  -0.003640  -0.018856
    26  O    0.000843  -0.020328   0.060698   0.000000   0.000000  -0.000000
    27  H   -0.000001   0.001125  -0.002657  -0.000000   0.000000   0.000000
    28  H   -0.003154   0.002441  -0.006138   0.000000  -0.000000   0.000000
    29  O    0.000006   0.000001   0.000000  -0.076609   0.177970   0.011039
    30  H    0.000616   0.000001  -0.000001  -0.000229   0.000024  -0.000360
              25         26         27         28         29         30
     1  C   -0.000497   0.000074  -0.000004   0.000028  -0.000799   0.004595
     2  C   -0.000006   0.007002   0.000260  -0.007343   0.001663  -0.000895
     3  C    0.000093   0.000823  -0.000344   0.000676   0.000459   0.000846
     4  C   -0.000011   0.000156   0.000010   0.000676  -0.052585  -0.057162
     5  H   -0.000000   0.000002  -0.000001  -0.000021   0.000899  -0.000834
     6  H   -0.000000   0.003695   0.000664  -0.003236  -0.000077  -0.000210
     7  H    0.000407   0.000000   0.000000  -0.000004   0.005429   0.000514
     8  H    0.000002   0.000721  -0.000013   0.000345  -0.000008  -0.000033
     9  C   -0.000500  -0.000001  -0.000000  -0.000023   0.288289   0.369437
    10  O    0.004330   0.000000  -0.000000  -0.000003  -0.050262  -0.048619
    11  C   -0.002550  -0.000001  -0.000000   0.000001  -0.000100  -0.000227
    12  H    0.000193   0.000002  -0.000000  -0.000001   0.000003   0.000004
    13  H    0.000259   0.000000   0.000000  -0.000001   0.000004  -0.000007
    14  O    0.030959   0.000000  -0.000000  -0.000000  -0.000034   0.000001
    15  H   -0.001469   0.000000  -0.000000  -0.000000   0.000000  -0.000000
    16  O    0.000002   0.000000  -0.000000  -0.000014  -0.022600   0.002666
    17  H   -0.000016  -0.000000   0.000000   0.000001   0.050120   0.001948
    18  O    0.000000  -0.018879   0.000506   0.056967   0.000001   0.000929
    19  H   -0.000000   0.000843  -0.000001  -0.003154   0.000006   0.000616
    20  O   -0.000000  -0.020328   0.001125   0.002441   0.000001   0.000001
    21  H    0.000000   0.060698  -0.002657  -0.006138   0.000000  -0.000001
    22  O    0.235014   0.000000  -0.000000   0.000000  -0.076609  -0.000229
    23  H   -0.003640   0.000000   0.000000  -0.000000   0.177970   0.000024
    24  H   -0.018856  -0.000000   0.000000   0.000000   0.011039  -0.000360
    25  H    0.333791  -0.000000   0.000000   0.000000   0.003684   0.000045
    26  O   -0.000000   8.320965   0.242264   0.213107   0.000000   0.000000
    27  H    0.000000   0.242264   0.375680  -0.016056  -0.000000  -0.000000
    28  H    0.000000   0.213107  -0.016056   0.332611   0.000000  -0.000001
    29  O    0.003684   0.000000  -0.000000   0.000000   8.374170  -0.048356
    30  H    0.000045   0.000000  -0.000000  -0.000001  -0.048356   0.639207
 Mulliken charges:
               1
     1  C    0.094347
     2  C    0.079673
     3  C    0.140698
     4  C    0.084913
     5  H    0.141983
     6  H    0.173081
     7  H    0.171499
     8  H    0.107573
     9  C    0.325590
    10  O   -0.602691
    11  C   -0.060701
    12  H    0.175760
    13  H    0.134458
    14  O   -0.641713
    15  H    0.406624
    16  O   -0.645750
    17  H    0.422788
    18  O   -0.645639
    19  H    0.404675
    20  O   -0.670928
    21  H    0.428302
    22  O   -0.835481
    23  H    0.455978
    24  H    0.445838
    25  H    0.418766
    26  O   -0.811142
    27  H    0.398567
    28  H    0.429141
    29  O   -0.662308
    30  H    0.136099
 Sum of Mulliken charges =  -0.00000
 Mulliken charges with hydrogens summed into heavy atoms:
               1
     1  C    0.265846
     2  C    0.252754
     3  C    0.248271
     4  C    0.226896
     9  C    0.461688
    10  O   -0.602691
    11  C    0.249518
    14  O   -0.235089
    16  O   -0.222962
    18  O   -0.240964
    20  O   -0.242626
    22  O    0.029123
    26  O    0.016567
    29  O   -0.206330
 APT charges:
               1
     1  C   -0.221037
     2  C   -0.260828
     3  C   -0.192729
     4  C   -0.465404
     5  H    0.526113
     6  H    0.460845
     7  H    0.299615
     8  H    0.320005
     9  C   -0.213179
    10  O   -0.407647
    11  C   -0.541367
    12  H    0.457649
    13  H    0.394112
    14  O   -1.147979
    15  H    0.973007
    16  O   -0.673100
    17  H    0.567977
    18  O   -0.674752
    19  H    0.490517
    20  O   -0.839665
    21  H    0.663650
    22  O   -0.705785
    23  H    0.468725
    24  H    0.133584
    25  H    0.540679
    26  O   -1.013585
    27  H    0.891786
    28  H    0.204098
    29  O   -0.508932
    30  H    0.473629
 Sum of APT charges =  -0.00000
 APT charges with hydrogens summed into heavy atoms:
               1
     1  C    0.078577
     2  C    0.200017
     3  C    0.127276
     4  C    0.060709
     9  C    0.260450
    10  O   -0.407647
    11  C    0.310395
    14  O   -0.174973
    16  O   -0.105124
    18  O   -0.184235
    20  O   -0.176016
    22  O   -0.031521
    26  O    0.082299
    29  O   -0.040208
 Electronic spatial extent (au):  <R**2>=           3143.9320
 Charge=             -0.0000 electrons
 Dipole moment (field-independent basis, Debye):
    X=              0.8254    Y=              1.6079    Z=             -1.5102  Tot=              2.3553
 Quadrupole moment (field-independent basis, Debye-Ang):
   XX=            -82.0669   YY=            -78.8829   ZZ=            -85.6402
   XY=            -12.5498   XZ=             -2.4113   YZ=              2.0643
 Traceless Quadrupole moment (field-independent basis, Debye-Ang):
   XX=              0.1297   YY=              3.3137   ZZ=             -3.4435
   XY=            -12.5498   XZ=             -2.4113   YZ=              2.0643
 Octapole moment (field-independent basis, Debye-Ang**2):
  XXX=             54.8936  YYY=             38.4930  ZZZ=            -12.9362  XYY=            -36.9873
  XXY=             10.9748  XXZ=             40.3613  XZZ=              1.5923  YZZ=             -4.2569
  YYZ=             -6.3914  XYZ=              3.8261
 Hexadecapole moment (field-independent basis, Debye-Ang**3):
 XXXX=          -1898.3125 YYYY=          -1034.6106 ZZZZ=           -344.6654 XXXY=           -141.4528
 XXXZ=             44.9351 YYYX=           -119.0036 YYYZ=             10.7900 ZZZX=            -33.5387
 ZZZY=             13.6557 XXYY=           -529.1735 XXZZ=           -421.8754 YYZZ=           -257.5172
 XXYZ=             13.3832 YYXZ=              2.6700 ZZXY=              5.3915
 N-N= 1.120592171804D+03 E-N=-4.213549610334D+03  KE= 8.328919180873D+02
  Exact polarizability:   0.000   0.000   0.000   0.000   0.000   0.000
 Approx polarizability: 136.159   0.320 130.438  -1.336   2.552 125.826

 This type of calculation cannot be archived.


 THE RARE EARTHS PERPLEX US IN OUR RESEARCHES,
 BAFFLE US IN OUR SPECULATIONS, AND HAUNT US IN OUR
 VERY DREAMS.  THEY STRETCH LIKE AN UNKNOWN BEFORE US,
 MOCKING, MYSTIFYING, AND MURMURING STRANGE REVELATIONS
 AND POSSIBILITIES.  -- SIR WILLIAM CROOKE, 1832-1919
 Job cpu time:       0 days  1 hours 10 minutes 34.1 seconds.
 File lengths (MBytes):  RWF=    220 Int=      0 D2E=      0 Chk=      9 Scr=      1
 Normal termination of Gaussian 09 at Sat Jan 14 01:11:22 2017.
