 Entering Gaussian System, Link 0=g09
 Initial command:
 /global/software/gaussian/g09.e01/l1.exe "/scratch/10461049.yak.local/Gau-26185.inp" -scrdir="/scratch/10461049.yak.local/"
 Entering Link 1 = /global/software/gaussian/g09.e01/l1.exe PID=     26186.
  
 Copyright (c) 1988,1990,1992,1993,1995,1998,2003,2009,2015,
            Gaussian, Inc.  All Rights Reserved.
  
 This is part of the Gaussian(R) 09 program.  It is based on
 the Gaussian(R) 03 system (copyright 2003, Gaussian, Inc.),
 the Gaussian(R) 98 system (copyright 1998, Gaussian, Inc.),
 the Gaussian(R) 94 system (copyright 1995, Gaussian, Inc.),
 the Gaussian 92(TM) system (copyright 1992, Gaussian, Inc.),
 the Gaussian 90(TM) system (copyright 1990, Gaussian, Inc.),
 the Gaussian 88(TM) system (copyright 1988, Gaussian, Inc.),
 the Gaussian 86(TM) system (copyright 1986, Carnegie Mellon
 University), and the Gaussian 82(TM) system (copyright 1983,
 Carnegie Mellon University). Gaussian is a federally registered
 trademark of Gaussian, Inc.
  
 This software contains proprietary and confidential information,
 including trade secrets, belonging to Gaussian, Inc.
  
 This software is provided under written license and may be
 used, copied, transmitted, or stored only in accord with that
 written license.
  
 The following legend is applicable only to US Government
 contracts under FAR:
  
                    RESTRICTED RIGHTS LEGEND
  
 Use, reproduction and disclosure by the US Government is
 subject to restrictions as set forth in subparagraphs (a)
 and (c) of the Commercial Computer Software - Restricted
 Rights clause in FAR 52.227-19.
  
 Gaussian, Inc.
 340 Quinnipiac St., Bldg. 40, Wallingford CT 06492
  
  
 ---------------------------------------------------------------
 Warning -- This program may not be used in any manner that
 competes with the business of Gaussian, Inc. or will provide
 assistance to any competitor of Gaussian, Inc.  The licensee
 of this program is prohibited from giving any competitor of
 Gaussian, Inc. access to this program.  By using this program,
 the user acknowledges that Gaussian, Inc. is engaged in the
 business of creating and licensing software in the field of
 computational chemistry and represents and warrants to the
 licensee that it is not a competitor of Gaussian, Inc. and that
 it will not use this program in any manner prohibited above.
 ---------------------------------------------------------------
  

 Cite this work as:
 Gaussian 09, Revision E.01,
 M. J. Frisch, G. W. Trucks, H. B. Schlegel, G. E. Scuseria, 
 M. A. Robb, J. R. Cheeseman, G. Scalmani, V. Barone, B. Mennucci, 
 G. A. Petersson, H. Nakatsuji, M. Caricato, X. Li, H. P. Hratchian, 
 A. F. Izmaylov, J. Bloino, G. Zheng, J. L. Sonnenberg, M. Hada, 
 M. Ehara, K. Toyota, R. Fukuda, J. Hasegawa, M. Ishida, T. Nakajima, 
 Y. Honda, O. Kitao, H. Nakai, T. Vreven, J. A. Montgomery, Jr., 
 J. E. Peralta, F. Ogliaro, M. Bearpark, J. J. Heyd, E. Brothers, 
 K. N. Kudin, V. N. Staroverov, T. Keith, R. Kobayashi, J. Normand, 
 K. Raghavachari, A. Rendell, J. C. Burant, S. S. Iyengar, J. Tomasi, 
 M. Cossi, N. Rega, J. M. Millam, M. Klene, J. E. Knox, J. B. Cross, 
 V. Bakken, C. Adamo, J. Jaramillo, R. Gomperts, R. E. Stratmann, 
 O. Yazyev, A. J. Austin, R. Cammi, C. Pomelli, J. W. Ochterski, 
 R. L. Martin, K. Morokuma, V. G. Zakrzewski, G. A. Voth, 
 P. Salvador, J. J. Dannenberg, S. Dapprich, A. D. Daniels, 
 O. Farkas, J. B. Foresman, J. V. Ortiz, J. Cioslowski, 
 and D. J. Fox, Gaussian, Inc., Wallingford CT, 2013.
 
 ******************************************
 Gaussian 09:  ES64L-G09RevE.01 30-Nov-2015
                14-Jan-2017 
 ******************************************
 -------------------------------------
 # b3lyp/6-31g(d) irc=(calcfc,reverse)
 -------------------------------------
 1/10=4,14=-1,18=10,22=2,26=3,38=1,44=3/1,23;
 2/12=2,17=6,18=5,29=1,40=1/2;
 3/5=1,6=6,7=1,11=2,16=1,25=1,30=1,71=2,74=-5,140=1/1,2,3;
 4//1;
 5/5=2,38=5/2;
 8/6=4,10=90,11=11/1;
 11/6=1,8=1,9=11,15=111,16=1/1,2,10;
 10/6=1,13=1/2;
 6/7=2,8=2,9=2,10=2,28=1/1;
 7/10=1,18=20,25=1/1,2,3,16;
 1/10=4,14=-1,18=10,22=2,26=3,44=3/23(2);
 2/29=1/2;
 99/5=20/99;
 2/29=1/2;
 3/5=1,6=6,7=1,11=2,16=1,25=1,30=1,71=2,74=-5,140=1/1,2,3;
 4/5=5,16=3,69=1/1;
 5/5=2,38=5/2;
 8/6=4,10=90,11=11/1;
 11/6=1,8=1,9=11,15=111,16=1/1,2,10;
 10/6=1,13=1/2;
 7/10=1,18=20,25=1/1,2,3,16;
 1/14=-1,18=10,22=2,26=3,44=3/23(-8);
 2/29=1/2;
 6/7=2,8=2,9=2,10=2,19=2,28=1/1;
 99/5=20,9=1/99;
 --------------------------------
 glo_1w_beta_ts_boat6_B3LYP_631Gd
 --------------------------------
 Symbolic Z-matrix:
 Charge =  0 Multiplicity = 1
 6                     0.8843    0.73932  -0.56552 
 6                    -1.41762  -0.39682  -0.56524 
 6                    -0.56522   0.8057   -0.06673 
 6                    -0.57027  -1.59829  -1.03674 
 1                    -1.21073  -2.49204  -1.00623 
 1                    -2.03446  -0.04061  -1.39849 
 1                     0.91754   0.73546  -1.65632 
 1                    -0.53326   0.72836   1.03216 
 6                     0.54325  -1.81863  -0.02451 
 1                     1.28692  -2.5592   -0.35001 
 8                     1.49568  -0.51167  -0.13701 
 6                     1.71219   1.90455  -0.04517 
 1                     1.23305   2.82449  -0.40222 
 1                     1.67587   1.92046   1.05926 
 8                     3.04179   1.76094  -0.51913 
 1                     3.52766   2.56607  -0.28605 
 8                     0.0847   -1.92976   1.21705 
 8                     0.00349  -1.41876  -2.3228 
 1                    -0.71851  -1.39495  -2.96972 
 8                    -2.31736  -0.84117   0.4597 
 1                    -1.71836  -1.29552   1.09881 
 8                    -1.1101    2.04655  -0.46383 
 1                    -1.96119   2.13576   0.02749 
 8                     2.03229  -0.88736   2.1648 
 1                     1.10963  -1.50017   1.98015 
 1                     1.79758  -0.17256   2.77866 
 1                     1.92731  -0.50146   0.9807 
 8                    -3.40595   1.63642   1.02769 
 1                    -4.23201   1.71303   0.52699 
 1                    -3.18316   0.67628   0.99651 
 
 IRC-IRC-IRC-IRC-IRC-IRC-IRC-IRC-IRC-IRC-IRC-IRC-IRC-IRC-IRC-IRC-IRC-IRC
 ------------------------------------------------------------------------
 INPUT DATA FOR L123
 ------------------------------------------------------------------------
 GENERAL PARAMETERS:
 Rxn path following direction = Reverse
 Maximum points per path      =  10
 Step size                    =   0.100 bohr
 Integration scheme           = HPC                                 
    Redo corrector integration= Yes                                 
    DWI Weight Power          =  2
    DWI will use Hessian update vectors when possible.
    Max correction cycles     =  20
 Initial Hessian              = CalcFC
 Hessian evaluation           = All updating
 Hessian updating method      = Bofill                              
 ------------------------------------------------------------------------
 IRC-IRC-IRC-IRC-IRC-IRC-IRC-IRC-IRC-IRC-IRC-IRC-IRC-IRC-IRC-IRC-IRC-IRC
                          Input orientation:                          
 ---------------------------------------------------------------------
 Center     Atomic      Atomic             Coordinates (Angstroms)
 Number     Number       Type             X           Y           Z
 ---------------------------------------------------------------------
      1          6           0        0.884301    0.739319   -0.565516
      2          6           0       -1.417616   -0.396816   -0.565240
      3          6           0       -0.565220    0.805701   -0.066727
      4          6           0       -0.570271   -1.598288   -1.036737
      5          1           0       -1.210726   -2.492038   -1.006230
      6          1           0       -2.034463   -0.040612   -1.398493
      7          1           0        0.917537    0.735457   -1.656323
      8          1           0       -0.533259    0.728355    1.032158
      9          6           0        0.543249   -1.818633   -0.024506
     10          1           0        1.286924   -2.559199   -0.350013
     11          8           0        1.495679   -0.511666   -0.137014
     12          6           0        1.712187    1.904550   -0.045168
     13          1           0        1.233045    2.824485   -0.402215
     14          1           0        1.675868    1.920464    1.059259
     15          8           0        3.041789    1.760942   -0.519131
     16          1           0        3.527657    2.566067   -0.286050
     17          8           0        0.084699   -1.929760    1.217049
     18          8           0        0.003493   -1.418764   -2.322803
     19          1           0       -0.718511   -1.394947   -2.969716
     20          8           0       -2.317358   -0.841165    0.459698
     21          1           0       -1.718355   -1.295516    1.098813
     22          8           0       -1.110102    2.046552   -0.463828
     23          1           0       -1.961192    2.135763    0.027486
     24          8           0        2.032289   -0.887358    2.164796
     25          1           0        1.109631   -1.500166    1.980152
     26          1           0        1.797583   -0.172560    2.778663
     27          1           0        1.927312   -0.501458    0.980702
     28          8           0       -3.405946    1.636417    1.027691
     29          1           0       -4.232010    1.713032    0.526989
     30          1           0       -3.183161    0.676282    0.996509
 ---------------------------------------------------------------------
                    Distance matrix (angstroms):
                    1          2          3          4          5
     1  C    0.000000
     2  C    2.567026   0.000000
     3  C    1.534375   1.556002   0.000000
     4  C    2.793248   1.543968   2.592317   0.000000
     5  H    3.876214   2.151100   3.489187   1.099956   0.000000
     6  H    3.133900   1.096217   2.156043   2.168197   2.615703
     7  H    1.091320   2.815216   2.174929   2.836164   3.920312
     8  H    2.135921   2.144709   1.102067   3.113674   3.871036
     9  C    2.636689   2.481723   2.849143   1.520885   2.119831
    10  H    3.329980   3.469403   3.851395   2.200935   2.583290
    11  O    1.456832   2.946838   2.446978   2.501679   3.464396
    12  C    1.521158   3.919493   2.528738   4.296824   5.366288
    13  H    2.120426   4.174849   2.724298   4.818245   5.882369
    14  H    2.159068   4.192663   2.744634   4.671183   5.662936
    15  O    2.387597   4.954224   3.758679   4.959770   6.033986
    16  H    3.225281   5.771685   4.460788   5.890535   6.968168
    17  O    3.307701   2.789878   3.090829   2.370319   2.633866
    18  O    2.919110   2.480515   3.218937   1.419648   2.087968
    19  H    3.592252   2.695648   3.646052   1.949290   2.302425
    20  O    3.714783   1.434392   2.461560   2.421749   2.469607
    21  H    3.699238   1.914988   2.665205   2.443428   2.473976
    22  O    2.386806   2.464730   1.412196   3.728874   4.571993
    23  H    3.224676   2.657208   1.930461   4.124363   4.800866
    24  O    3.379136   4.426689   3.820104   4.186712   4.811190
    25  H    3.398013   3.752783   3.508826   3.454463   3.909775
    26  H    3.584570   4.644296   3.825713   4.711338   5.362398
    27  H    2.240132   3.686384   3.003080   3.392789   4.213976
    28  O    4.663616   3.259589   3.155561   4.771397   5.099016
    29  H    5.321496   3.683101   3.823754   5.178650   5.400142
    30  H    4.357539   2.589932   2.828575   4.016834   4.235530
                    6          7          8          9         10
     6  H    0.000000
     7  H    3.063179   0.000000
     8  H    2.958545   3.054961   0.000000
     9  C    3.419620   3.053898   2.960162   0.000000
    10  H    4.298163   3.563376   4.003932   1.098838   0.000000
    11  O    3.778243   2.048869   2.649756   1.621093   2.069140
    12  C    4.433117   2.143378   2.754286   3.902427   4.494311
    13  H    4.458471   2.456903   3.093706   4.709249   5.384207
    14  H    4.863427   3.058381   2.510398   4.054407   4.712187
    15  O    5.457766   2.618639   4.031588   4.393258   4.666023
    16  H    6.242554   3.470088   4.648214   5.310432   5.594044
    17  O    3.860154   4.006653   2.735257   1.328185   2.072974
    18  O    2.628101   2.433175   4.019202   2.394452   2.615280
    19  H    2.456562   2.990029   4.534063   3.231998   3.498585
    20  O    2.042985   4.174665   2.444200   3.061531   4.074079
    21  H    2.812694   4.320133   2.346263   2.578827   3.567589
    22  O    2.466636   2.693016   2.075660   4.226846   5.193422
    23  H    2.602958   3.617064   2.242578   4.681044   5.721489
    24  O    5.472886   4.298506   3.236577   2.806699   3.110448
    25  H    4.840544   4.273039   2.926446   2.107336   2.565668
    26  H    5.670152   4.611733   3.048730   3.484346   3.968051
    27  H    4.644202   3.082776   2.751272   2.158940   2.532824
    28  O    3.252654   5.167994   3.012794   5.351694   6.443934
    29  H    3.407633   5.678058   3.860770   5.964889   7.034182
    30  H    2.751269   4.884337   2.650653   4.599261   5.680063
                   11         12         13         14         15
    11  O    0.000000
    12  C    2.427635   0.000000
    13  H    3.356965   1.096969   0.000000
    14  H    2.716393   1.105139   1.774613   0.000000
    15  O    2.775107   1.418840   2.101511   2.093443   0.000000
    16  H    3.691014   1.947193   2.312038   2.378189   0.968824
    17  O    2.415645   4.352452   5.152044   4.169046   5.037855
    18  O    2.797699   4.376262   4.817221   5.038415   4.753420
    19  H    3.702300   5.034675   5.310766   5.740875   5.486789
    20  O    3.873485   4.902150   5.175446   4.892026   6.037344
    21  H    3.531530   4.828844   5.285665   4.675986   5.883761
    22  O    3.666249   2.856704   2.469679   3.177628   4.162070
    23  H    4.357281   3.681365   3.295775   3.786702   5.046692
    24  O    2.393204   3.575074   4.583243   3.038604   3.903338
    25  H    2.368239   4.007129   4.938979   3.587392   4.540317
    26  H    2.950815   3.506522   4.406696   2.711441   4.020190
    27  H    1.198207   2.624417   3.668292   2.436206   2.934282
    28  O    5.476927   5.236240   4.997637   5.089844   6.631851
    29  H    6.180340   5.974740   5.653811   5.935433   7.348797
    30  H    4.958592   5.153461   5.106279   5.016183   6.497973
                   16         17         18         19         20
    16  H    0.000000
    17  O    5.858816   0.000000
    18  O    5.696224   3.577466   0.000000
    19  H    6.397002   4.296530   0.969718   0.000000
    20  O    6.806583   2.743811   3.669098   3.824116   0.000000
    21  H    6.659603   1.915006   3.832415   4.190764   0.986766
    22  O    4.670151   4.479281   4.087089   4.275130   3.263323
    23  H    5.514611   4.704169   4.692388   4.795142   3.029152
    24  O    4.490982   2.403733   4.953479   5.847030   4.672143
    25  H    5.245643   1.348096   4.443601   5.277724   3.806615
    26  H    4.459338   2.908670   5.549481   6.392873   4.770469
    27  H    3.684491   2.343316   3.931371   4.837820   4.289996
    28  O    7.117936   4.993804   5.673113   5.691286   2.765150
    29  H    7.848639   5.690351   5.989069   5.850740   3.192858
    30  H    7.088817   4.185571   5.055869   5.108369   1.827683
                   21         22         23         24         25
    21  H    0.000000
    22  O    3.739149   0.000000
    23  H    3.602830   0.986764   0.000000
    24  O    3.920490   5.039059   5.445663   0.000000
    25  H    2.969199   4.845561   5.144204   1.122909   0.000000
    26  H    4.055212   4.888030   5.198627   0.971008   1.695121
    27  H    3.733010   4.219586   4.794165   1.249807   1.632458
    28  O    3.383674   2.768346   1.826765   6.102200   5.579944
    29  H    3.961919   3.292304   2.363222   6.977527   6.400738
    30  H    2.458477   2.882325   2.135954   5.568733   4.912488
                   26         27         28         29         30
    26  H    0.000000
    27  H    1.832394   0.000000
    28  O    5.780572   5.745986   0.000000
    29  H    6.706824   6.561027   0.968996   0.000000
    30  H    5.357650   5.244450   0.986136   1.547703   0.000000
 Symmetry turned off by external request.
 Stoichiometry    C6H16O8
 Framework group  C1[X(C6H16O8)]
 Deg. of freedom    84
 Full point group                 C1      NOp   1
 Rotational constants (GHZ):      0.6998569      0.5283344      0.4408732
 Standard basis: 6-31G(d) (6D, 7F)
   242 basis functions,   456 primitive gaussians,   242 cartesian basis functions
    58 alpha electrons       58 beta electrons
       nuclear repulsion energy      1130.2693939200 Hartrees.
 NAtoms=   30 NActive=   30 NUniq=   30 SFac= 1.00D+00 NAtFMM=   60 NAOKFM=F Big=F
 Integral buffers will be    131072 words long.
 Raffenetti 2 integral format.
 Two-electron integral symmetry is turned off.
 One-electron integrals computed using PRISM.
 NBasis=   242 RedAO= T EigKep=  1.28D-03  NBF=   242
 NBsUse=   242 1.00D-06 EigRej= -1.00D+00 NBFU=   242
 ExpMin= 1.61D-01 ExpMax= 5.48D+03 ExpMxC= 8.25D+02 IAcc=1 IRadAn=         1 AccDes= 0.00D+00
 Harris functional with IExCor=  402 and IRadAn=       1 diagonalized for initial guess.
 HarFok:  IExCor=  402 AccDes= 0.00D+00 IRadAn=         1 IDoV= 1 UseB2=F ITyADJ=14
 ICtDFT=  3500011 ScaDFX=  1.000000  1.000000  1.000000  1.000000
 FoFCou: FMM=F IPFlag=           0 FMFlag=      100000 FMFlg1=           0
         NFxFlg=           0 DoJE=T BraDBF=F KetDBF=T FulRan=T
         wScrn=  0.000000 ICntrl=     500 IOpCl=  0 I1Cent=   200000004 NGrid=           0
         NMat0=    1 NMatS0=      1 NMatT0=    0 NMatD0=    1 NMtDS0=    0 NMtDT0=    0
 Symmetry not used in FoFCou.
 Requested convergence on RMS density matrix=1.00D-08 within 128 cycles.
 Requested convergence on MAX density matrix=1.00D-06.
 Requested convergence on             energy=1.00D-06.
 No special actions if energy rises.
 Integral accuracy reduced to 1.0D-05 until final iterations.
 Initial convergence to 1.0D-05 achieved.  Increase integral accuracy.
 SCF Done:  E(RB3LYP) =  -839.956885607     A.U. after   14 cycles
            NFock= 14  Conv=0.75D-08     -V/T= 2.0086
 DoSCS=F DFT=T ScalE2(SS,OS)=  1.000000  1.000000
 Range of M.O.s used for correlation:     1   242
 NBasis=   242 NAE=    58 NBE=    58 NFC=     0 NFV=     0
 NROrb=    242 NOA=    58 NOB=    58 NVA=   184 NVB=   184
 Symmetrizing basis deriv contribution to polar:
 IMax=3 JMax=2 DiffMx= 0.00D+00
 G2DrvN: will do    31 centers at a time, making    1 passes.
 Calling FoFCou, ICntrl=  3107 FMM=F I1Cent=   0 AccDes= 0.00D+00.
 End of G2Drv F.D. properties file   721 does not exist.
 End of G2Drv F.D. properties file   722 does not exist.
 End of G2Drv F.D. properties file   788 does not exist.
          IDoAtm=111111111111111111111111111111
          Differentiating once with respect to nuclear coordinates.
          There are    93 degrees of freedom in the 1st order CPHF.  IDoFFX=6 NUNeed=     0.
     87 vectors produced by pass  0 Test12= 1.15D-14 1.08D-09 XBig12= 1.06D-01 7.27D-02.
 AX will form    87 AO Fock derivatives at one time.
     87 vectors produced by pass  1 Test12= 1.15D-14 1.08D-09 XBig12= 1.04D-02 1.17D-02.
     87 vectors produced by pass  2 Test12= 1.15D-14 1.08D-09 XBig12= 9.81D-05 9.41D-04.
     87 vectors produced by pass  3 Test12= 1.15D-14 1.08D-09 XBig12= 1.97D-07 4.80D-05.
     87 vectors produced by pass  4 Test12= 1.15D-14 1.08D-09 XBig12= 2.73D-10 1.61D-06.
     71 vectors produced by pass  5 Test12= 1.15D-14 1.08D-09 XBig12= 2.19D-13 5.04D-08.
      1 vectors produced by pass  6 Test12= 1.15D-14 1.08D-09 XBig12= 2.05D-16 1.12D-09.
 InvSVY:  IOpt=1 It=  1 EMax= 5.83D-16
 Solved reduced A of dimension   507 with    93 vectors.
 End of Minotr F.D. properties file   721 does not exist.
 End of Minotr F.D. properties file   722 does not exist.
 End of Minotr F.D. properties file   788 does not exist.

 **********************************************************************

            Population analysis using the SCF density.

 **********************************************************************

 Alpha  occ. eigenvalues --  -19.18798 -19.17035 -19.16254 -19.15671 -19.15031
 Alpha  occ. eigenvalues --  -19.14805 -19.13121 -19.11284 -10.28912 -10.24661
 Alpha  occ. eigenvalues --  -10.24658 -10.24351 -10.24039 -10.24024  -1.07360
 Alpha  occ. eigenvalues --   -1.03982  -1.02973  -1.02594  -1.01198  -1.00897
 Alpha  occ. eigenvalues --   -1.00023  -0.98068  -0.78053  -0.76066  -0.69341
 Alpha  occ. eigenvalues --   -0.64355  -0.62419  -0.58030  -0.55888  -0.54185
 Alpha  occ. eigenvalues --   -0.53276  -0.52367  -0.51779  -0.51106  -0.49373
 Alpha  occ. eigenvalues --   -0.46948  -0.46609  -0.46367  -0.43547  -0.41869
 Alpha  occ. eigenvalues --   -0.41437  -0.40607  -0.40104  -0.39487  -0.38603
 Alpha  occ. eigenvalues --   -0.37169  -0.36403  -0.35018  -0.34637  -0.32732
 Alpha  occ. eigenvalues --   -0.30855  -0.30329  -0.29188  -0.28969  -0.27433
 Alpha  occ. eigenvalues --   -0.26635  -0.25242  -0.24844
 Alpha virt. eigenvalues --    0.04507   0.04765   0.06424   0.06806   0.08569
 Alpha virt. eigenvalues --    0.10262   0.12884   0.13171   0.13646   0.14804
 Alpha virt. eigenvalues --    0.15517   0.16725   0.17370   0.17940   0.18875
 Alpha virt. eigenvalues --    0.20111   0.21821   0.22511   0.23084   0.23881
 Alpha virt. eigenvalues --    0.24464   0.25549   0.26027   0.28323   0.30751
 Alpha virt. eigenvalues --    0.31931   0.33065   0.34161   0.51305   0.52769
 Alpha virt. eigenvalues --    0.53179   0.55799   0.56572   0.57988   0.59917
 Alpha virt. eigenvalues --    0.60323   0.62281   0.62763   0.64540   0.65824
 Alpha virt. eigenvalues --    0.67618   0.68201   0.69698   0.71357   0.74398
 Alpha virt. eigenvalues --    0.75539   0.77591   0.79218   0.79462   0.79865
 Alpha virt. eigenvalues --    0.81540   0.81972   0.83222   0.84238   0.84849
 Alpha virt. eigenvalues --    0.87183   0.87813   0.88320   0.88831   0.90251
 Alpha virt. eigenvalues --    0.90931   0.91888   0.93168   0.93944   0.95184
 Alpha virt. eigenvalues --    0.97816   0.98799   1.00590   1.00985   1.01793
 Alpha virt. eigenvalues --    1.02631   1.06015   1.07949   1.08863   1.10365
 Alpha virt. eigenvalues --    1.11612   1.12934   1.13549   1.14089   1.16382
 Alpha virt. eigenvalues --    1.19072   1.21711   1.22928   1.24837   1.28102
 Alpha virt. eigenvalues --    1.29725   1.30813   1.33801   1.37620   1.40088
 Alpha virt. eigenvalues --    1.42169   1.42951   1.44653   1.45665   1.48923
 Alpha virt. eigenvalues --    1.51543   1.53149   1.57804   1.58443   1.60090
 Alpha virt. eigenvalues --    1.61174   1.62397   1.64016   1.66230   1.68405
 Alpha virt. eigenvalues --    1.70848   1.71219   1.72259   1.73139   1.74648
 Alpha virt. eigenvalues --    1.75065   1.77269   1.78573   1.78920   1.80942
 Alpha virt. eigenvalues --    1.81856   1.82704   1.84353   1.87782   1.88607
 Alpha virt. eigenvalues --    1.89375   1.91564   1.92252   1.94054   1.96021
 Alpha virt. eigenvalues --    1.97502   1.99504   2.02054   2.03025   2.05292
 Alpha virt. eigenvalues --    2.06448   2.09232   2.11911   2.13120   2.14266
 Alpha virt. eigenvalues --    2.16259   2.18453   2.22416   2.27447   2.30869
 Alpha virt. eigenvalues --    2.31850   2.33496   2.35275   2.37600   2.39727
 Alpha virt. eigenvalues --    2.42944   2.46543   2.46976   2.48219   2.51615
 Alpha virt. eigenvalues --    2.53274   2.54768   2.56627   2.58249   2.60328
 Alpha virt. eigenvalues --    2.60799   2.63989   2.66553   2.69241   2.71306
 Alpha virt. eigenvalues --    2.73136   2.74488   2.83037   2.91020   2.91907
 Alpha virt. eigenvalues --    2.94604   2.95283   2.97613   3.04293   3.11412
 Alpha virt. eigenvalues --    3.72809   3.76621   3.77978   3.81563   3.88758
 Alpha virt. eigenvalues --    4.00428   4.09643   4.10735   4.27193   4.35260
 Alpha virt. eigenvalues --    4.46907   4.55362   4.70898   4.86675
          Condensed to atoms (all electrons):
               1          2          3          4          5          6
     1  C    4.966771  -0.034886   0.291433  -0.000678   0.000151  -0.000475
     2  C   -0.034886   5.089472   0.318450   0.265148  -0.053737   0.350134
     3  C    0.291433   0.318450   4.977881  -0.035259   0.005446  -0.050180
     4  C   -0.000678   0.265148  -0.035259   5.063451   0.361926  -0.033508
     5  H    0.000151  -0.053737   0.005446   0.361926   0.605319  -0.004143
     6  H   -0.000475   0.350134  -0.050180  -0.033508  -0.004143   0.608166
     7  H    0.359450  -0.009427  -0.041011  -0.000562   0.000156   0.001702
     8  H   -0.038823  -0.063537   0.330674  -0.000031  -0.000453   0.006783
     9  C   -0.018545  -0.021903  -0.011635   0.313707  -0.044457   0.004577
    10  H    0.003087   0.006126   0.000466  -0.068238  -0.002622  -0.000173
    11  O    0.161471  -0.012175  -0.028689  -0.012371   0.002711   0.000045
    12  C    0.348989   0.004430  -0.029312   0.000139   0.000025  -0.000290
    13  H   -0.032963   0.000094  -0.003436  -0.000008   0.000000   0.000010
    14  H   -0.041873  -0.000125  -0.002742   0.000022  -0.000000   0.000004
    15  O   -0.050338  -0.000030   0.002303  -0.000002  -0.000000   0.000001
    16  H    0.006483   0.000003  -0.000227  -0.000000   0.000000  -0.000000
    17  O    0.000878   0.006637   0.001129  -0.055515   0.002054   0.000044
    18  O   -0.005302  -0.039030   0.000609   0.185371  -0.029098  -0.000188
    19  H    0.000256  -0.003619  -0.000367  -0.020016  -0.005544   0.005331
    20  O    0.003267   0.185606  -0.040698  -0.017532   0.007275  -0.035907
    21  H   -0.000028  -0.027933  -0.003226  -0.012510   0.000825   0.005246
    22  O   -0.043308  -0.041891   0.216731   0.002969  -0.000075   0.006059
    23  H    0.004866   0.001233  -0.023853   0.000039   0.000002   0.000672
    24  O    0.006640  -0.000035  -0.001353  -0.000650   0.000009  -0.000001
    25  H   -0.000707  -0.000382   0.000211   0.004051  -0.000080   0.000009
    26  H   -0.000264  -0.000002  -0.000150   0.000003  -0.000001   0.000000
    27  H   -0.012235  -0.000192   0.001324   0.001948  -0.000096   0.000017
    28  O    0.000055   0.005482   0.001921   0.000086   0.000001   0.000841
    29  H   -0.000003   0.000318  -0.000382   0.000008  -0.000000   0.000242
    30  H    0.000072  -0.006533  -0.000433   0.000575  -0.000022  -0.001294
               7          8          9         10         11         12
     1  C    0.359450  -0.038823  -0.018545   0.003087   0.161471   0.348989
     2  C   -0.009427  -0.063537  -0.021903   0.006126  -0.012175   0.004430
     3  C   -0.041011   0.330674  -0.011635   0.000466  -0.028689  -0.029312
     4  C   -0.000562  -0.000031   0.313707  -0.068238  -0.012371   0.000139
     5  H    0.000156  -0.000453  -0.044457  -0.002622   0.002711   0.000025
     6  H    0.001702   0.006783   0.004577  -0.000173   0.000045  -0.000290
     7  H    0.557511   0.006817  -0.002865   0.000003  -0.037364  -0.041424
     8  H    0.006817   0.679702   0.002970   0.000168  -0.000068  -0.015896
     9  C   -0.002865   0.002970   4.727243   0.375995   0.093353   0.001798
    10  H    0.000003   0.000168   0.375995   0.626688  -0.047649  -0.000237
    11  O   -0.037364  -0.000068   0.093353  -0.047649   8.550998  -0.034544
    12  C   -0.041424  -0.015896   0.001798  -0.000237  -0.034544   4.904980
    13  H   -0.003489   0.000441  -0.000046   0.000004   0.003142   0.362325
    14  H    0.006509   0.007692  -0.000121  -0.000008  -0.004886   0.339209
    15  O    0.002788  -0.000045  -0.000027   0.000005   0.001969   0.245736
    16  H   -0.000124  -0.000003   0.000006  -0.000000   0.000026  -0.023470
    17  O   -0.000093   0.004983   0.281603  -0.045679  -0.053791  -0.000256
    18  O    0.013358  -0.000067  -0.040606   0.004665   0.001659   0.000356
    19  H   -0.000337   0.000005   0.006295  -0.000552   0.000017  -0.000015
    20  O    0.000010   0.000627  -0.001459  -0.000324  -0.000039  -0.000046
    21  H    0.000033   0.004773  -0.004595   0.000914   0.000577  -0.000002
    22  O    0.003197  -0.035141   0.000135   0.000004   0.001094  -0.001690
    23  H   -0.000255  -0.004774  -0.000004  -0.000000  -0.000077   0.000169
    24  O   -0.000116   0.001413   0.014317   0.000625  -0.095729  -0.000265
    25  H    0.000037   0.000431  -0.023580  -0.002403   0.008968  -0.000040
    26  H    0.000036   0.001274  -0.000559  -0.000025   0.004466  -0.000223
    27  H    0.001128   0.001385  -0.012942   0.000696   0.117594  -0.003495
    28  O    0.000000   0.000618  -0.000004  -0.000000   0.000000  -0.000002
    29  H    0.000000  -0.000024  -0.000000   0.000000  -0.000000  -0.000000
    30  H   -0.000001   0.000560   0.000012   0.000001  -0.000002  -0.000001
              13         14         15         16         17         18
     1  C   -0.032963  -0.041873  -0.050338   0.006483   0.000878  -0.005302
     2  C    0.000094  -0.000125  -0.000030   0.000003   0.006637  -0.039030
     3  C   -0.003436  -0.002742   0.002303  -0.000227   0.001129   0.000609
     4  C   -0.000008   0.000022  -0.000002  -0.000000  -0.055515   0.185371
     5  H    0.000000  -0.000000  -0.000000   0.000000   0.002054  -0.029098
     6  H    0.000010   0.000004   0.000001  -0.000000   0.000044  -0.000188
     7  H   -0.003489   0.006509   0.002788  -0.000124  -0.000093   0.013358
     8  H    0.000441   0.007692  -0.000045  -0.000003   0.004983  -0.000067
     9  C   -0.000046  -0.000121  -0.000027   0.000006   0.281603  -0.040606
    10  H    0.000004  -0.000008   0.000005  -0.000000  -0.045679   0.004665
    11  O    0.003142  -0.004886   0.001969   0.000026  -0.053791   0.001659
    12  C    0.362325   0.339209   0.245736  -0.023470  -0.000256   0.000356
    13  H    0.576220  -0.049498  -0.031878  -0.004979   0.000002   0.000000
    14  H   -0.049498   0.689969  -0.045742  -0.002487  -0.000057  -0.000009
    15  O   -0.031878  -0.045742   8.248641   0.234495   0.000000  -0.000000
    16  H   -0.004979  -0.002487   0.234495   0.392617   0.000000   0.000000
    17  O    0.000002  -0.000057   0.000000   0.000000   8.461082   0.001381
    18  O    0.000000  -0.000009  -0.000000   0.000000   0.001381   8.290620
    19  H    0.000000   0.000000   0.000000  -0.000000  -0.000126   0.231161
    20  O   -0.000002  -0.000003   0.000000  -0.000000  -0.022330   0.001556
    21  H    0.000000  -0.000006   0.000000  -0.000000   0.062298   0.000133
    22  O    0.012721   0.000098   0.000063   0.000009   0.000047  -0.000040
    23  H    0.000021  -0.000118   0.000001  -0.000001   0.000005  -0.000003
    24  O    0.000007   0.001267  -0.000171   0.000010  -0.092105   0.000002
    25  H   -0.000001  -0.000042  -0.000002  -0.000000   0.125532  -0.000050
    26  H   -0.000008   0.002695  -0.000081  -0.000001   0.004867  -0.000000
    27  H    0.000457   0.001003   0.004287  -0.000161   0.009856  -0.000029
    28  O    0.000002   0.000001   0.000000   0.000000  -0.000001   0.000000
    29  H   -0.000000  -0.000000  -0.000000  -0.000000   0.000000  -0.000000
    30  H   -0.000001  -0.000001  -0.000000  -0.000000   0.000039  -0.000008
              19         20         21         22         23         24
     1  C    0.000256   0.003267  -0.000028  -0.043308   0.004866   0.006640
     2  C   -0.003619   0.185606  -0.027933  -0.041891   0.001233  -0.000035
     3  C   -0.000367  -0.040698  -0.003226   0.216731  -0.023853  -0.001353
     4  C   -0.020016  -0.017532  -0.012510   0.002969   0.000039  -0.000650
     5  H   -0.005544   0.007275   0.000825  -0.000075   0.000002   0.000009
     6  H    0.005331  -0.035907   0.005246   0.006059   0.000672  -0.000001
     7  H   -0.000337   0.000010   0.000033   0.003197  -0.000255  -0.000116
     8  H    0.000005   0.000627   0.004773  -0.035141  -0.004774   0.001413
     9  C    0.006295  -0.001459  -0.004595   0.000135  -0.000004   0.014317
    10  H   -0.000552  -0.000324   0.000914   0.000004  -0.000000   0.000625
    11  O    0.000017  -0.000039   0.000577   0.001094  -0.000077  -0.095729
    12  C   -0.000015  -0.000046  -0.000002  -0.001690   0.000169  -0.000265
    13  H    0.000000  -0.000002   0.000000   0.012721   0.000021   0.000007
    14  H    0.000000  -0.000003  -0.000006   0.000098  -0.000118   0.001267
    15  O    0.000000   0.000000   0.000000   0.000063   0.000001  -0.000171
    16  H   -0.000000  -0.000000  -0.000000   0.000009  -0.000001   0.000010
    17  O   -0.000126  -0.022330   0.062298   0.000047   0.000005  -0.092105
    18  O    0.231161   0.001556   0.000133  -0.000040  -0.000003   0.000002
    19  H    0.387336   0.000014  -0.000011  -0.000020   0.000001  -0.000000
    20  O    0.000014   8.337062   0.213259   0.000976   0.000755  -0.000007
    21  H   -0.000011   0.213259   0.332179   0.000013  -0.000010   0.000170
    22  O   -0.000020   0.000976   0.000013   8.371496   0.209246   0.000002
    23  H    0.000001   0.000755  -0.000010   0.209246   0.321509  -0.000000
    24  O   -0.000000  -0.000007   0.000170   0.000002  -0.000000   8.497044
    25  H    0.000004   0.000183  -0.000439  -0.000004   0.000000   0.134729
    26  H    0.000000   0.000003  -0.000055  -0.000002  -0.000000   0.227979
    27  H    0.000006   0.000008  -0.000036  -0.000044   0.000004   0.129971
    28  O   -0.000000  -0.023387   0.000503  -0.024955   0.072486  -0.000000
    29  H   -0.000000   0.000843  -0.000006   0.001385  -0.003120  -0.000000
    30  H   -0.000002   0.062503  -0.001231   0.003460  -0.007563   0.000000
              25         26         27         28         29         30
     1  C   -0.000707  -0.000264  -0.012235   0.000055  -0.000003   0.000072
     2  C   -0.000382  -0.000002  -0.000192   0.005482   0.000318  -0.006533
     3  C    0.000211  -0.000150   0.001324   0.001921  -0.000382  -0.000433
     4  C    0.004051   0.000003   0.001948   0.000086   0.000008   0.000575
     5  H   -0.000080  -0.000001  -0.000096   0.000001  -0.000000  -0.000022
     6  H    0.000009   0.000000   0.000017   0.000841   0.000242  -0.001294
     7  H    0.000037   0.000036   0.001128   0.000000   0.000000  -0.000001
     8  H    0.000431   0.001274   0.001385   0.000618  -0.000024   0.000560
     9  C   -0.023580  -0.000559  -0.012942  -0.000004  -0.000000   0.000012
    10  H   -0.002403  -0.000025   0.000696  -0.000000   0.000000   0.000001
    11  O    0.008968   0.004466   0.117594   0.000000  -0.000000  -0.000002
    12  C   -0.000040  -0.000223  -0.003495  -0.000002  -0.000000  -0.000001
    13  H   -0.000001  -0.000008   0.000457   0.000002  -0.000000  -0.000001
    14  H   -0.000042   0.002695   0.001003   0.000001  -0.000000  -0.000001
    15  O   -0.000002  -0.000081   0.004287   0.000000  -0.000000  -0.000000
    16  H   -0.000000  -0.000001  -0.000161   0.000000  -0.000000  -0.000000
    17  O    0.125532   0.004867   0.009856  -0.000001   0.000000   0.000039
    18  O   -0.000050  -0.000000  -0.000029   0.000000  -0.000000  -0.000008
    19  H    0.000004   0.000000   0.000006  -0.000000  -0.000000  -0.000002
    20  O    0.000183   0.000003   0.000008  -0.023387   0.000843   0.062503
    21  H   -0.000439  -0.000055  -0.000036   0.000503  -0.000006  -0.001231
    22  O   -0.000004  -0.000002  -0.000044  -0.024955   0.001385   0.003460
    23  H    0.000000  -0.000000   0.000004   0.072486  -0.003120  -0.007563
    24  O    0.134729   0.227979   0.129971  -0.000000  -0.000000   0.000000
    25  H    0.314423  -0.003146  -0.018797   0.000000   0.000000  -0.000004
    26  H   -0.003146   0.361938  -0.005862   0.000000   0.000000  -0.000000
    27  H   -0.018797  -0.005862   0.296020  -0.000000   0.000000  -0.000000
    28  O    0.000000   0.000000  -0.000000   8.334214   0.240341   0.207176
    29  H    0.000000   0.000000   0.000000   0.240341   0.380356  -0.014676
    30  H   -0.000004  -0.000000  -0.000000   0.207176  -0.014676   0.325157
 Mulliken charges:
               1
     1  C    0.126558
     2  C    0.082307
     3  C    0.124374
     4  C    0.057439
     5  H    0.154426
     6  H    0.136276
     7  H    0.184330
     8  H    0.107546
     9  C    0.361337
    10  H    0.148463
    11  O   -0.620708
    12  C   -0.056947
    13  H    0.170862
    14  H    0.099248
    15  O   -0.611972
    16  H    0.397804
    17  O   -0.692485
    18  O   -0.616440
    19  H    0.400184
    20  O   -0.672213
    21  H    0.429164
    22  O   -0.682534
    23  H    0.428770
    24  O   -0.823753
    25  H    0.461101
    26  H    0.407120
    27  H    0.488184
    28  O   -0.815380
    29  H    0.394719
    30  H    0.432217
 Sum of Mulliken charges =  -0.00000
 Mulliken charges with hydrogens summed into heavy atoms:
               1
     1  C    0.310888
     2  C    0.218583
     3  C    0.231921
     4  C    0.211866
     9  C    0.509801
    11  O   -0.132524
    12  C    0.213163
    15  O   -0.214167
    17  O   -0.692485
    18  O   -0.216256
    20  O   -0.243049
    22  O   -0.253764
    24  O    0.044468
    28  O    0.011556
 APT charges:
               1
     1  C   -0.320299
     2  C   -0.250596
     3  C   -0.090376
     4  C   -0.425819
     5  H    0.530546
     6  H    0.440442
     7  H    0.423045
     8  H    0.250318
     9  C   -0.295921
    10  H    0.554784
    11  O   -0.390473
    12  C   -0.483899
    13  H    0.457973
    14  H    0.289015
    15  O   -1.097892
    16  H    0.954649
    17  O   -0.560839
    18  O   -0.879553
    19  H    0.773777
    20  O   -0.627901
    21  H    0.436928
    22  O   -0.798891
    23  H    0.592556
    24  O   -0.908637
    25  H    0.345224
    26  H    0.600347
    27  H    0.420115
    28  O   -1.070249
    29  H    0.910469
    30  H    0.221158
 Sum of APT charges =  -0.00000
 APT charges with hydrogens summed into heavy atoms:
               1
     1  C    0.102746
     2  C    0.189846
     3  C    0.159942
     4  C    0.104727
     9  C    0.258863
    11  O    0.029642
    12  C    0.263089
    15  O   -0.143243
    17  O   -0.560839
    18  O   -0.105776
    20  O   -0.190974
    22  O   -0.206336
    24  O    0.036934
    28  O    0.061379
 Electronic spatial extent (au):  <R**2>=           2964.0524
 Charge=             -0.0000 electrons
 Dipole moment (field-independent basis, Debye):
    X=             -1.5176    Y=              1.5482    Z=             -0.2880  Tot=              2.1870
 Quadrupole moment (field-independent basis, Debye-Ang):
   XX=            -79.7307   YY=            -84.0129   ZZ=            -79.3367
   XY=              9.3128   XZ=             10.0012   YZ=              5.4238
 Traceless Quadrupole moment (field-independent basis, Debye-Ang):
   XX=              1.2961   YY=             -2.9862   ZZ=              1.6901
   XY=              9.3128   XZ=             10.0012   YZ=              5.4238
 Octapole moment (field-independent basis, Debye-Ang**2):
  XXX=            -49.3950  YYY=             14.5418  ZZZ=              4.0645  XYY=             25.0031
  XXY=             39.0840  XXZ=             -9.3519  XZZ=             -7.7085  YZZ=             -2.0365
  YYZ=             -9.5675  XYZ=              8.1549
 Hexadecapole moment (field-independent basis, Debye-Ang**3):
 XXXX=          -1363.6951 YYYY=          -1105.5337 ZZZZ=           -553.1738 XXXY=              0.0433
 XXXZ=             31.6859 YYYX=             74.7215 YYYZ=             13.6510 ZZZX=             61.9302
 ZZZY=             24.7213 XXYY=           -365.3035 XXZZ=           -409.7862 YYZZ=           -328.5122
 XXYZ=             -1.3863 YYXZ=             15.4663 ZZXY=             49.6881
 N-N= 1.130269393920D+03 E-N=-4.233101421626D+03  KE= 8.328174624229D+02
  Exact polarizability:   0.000   0.000   0.000   0.000   0.000   0.000
 Approx polarizability: 135.247   2.550 130.697  -1.206  -3.944 136.149
 Calling FoFJK, ICntrl=    100147 FMM=F ISym2X=0 I1Cent= 0 IOpClX= 0 NMat=1 NMatS=1 NMatT=0.
 -------------------------------------------------------------------
 Center     Atomic                   Forces (Hartrees/Bohr)
 Number     Number              X              Y              Z
 -------------------------------------------------------------------
      1        6          -0.000003424    0.000003836    0.000000294
      2        6          -0.000001373    0.000001491    0.000001987
      3        6          -0.000001185   -0.000000622    0.000005320
      4        6          -0.000002045    0.000005681   -0.000008937
      5        1          -0.000000119    0.000002052   -0.000004717
      6        1          -0.000001644    0.000002523    0.000001532
      7        1          -0.000002319    0.000004816    0.000000041
      8        1           0.000000766   -0.000002443    0.000003330
      9        6           0.000001819    0.000001177   -0.000013428
     10        1           0.000000801    0.000001407   -0.000008283
     11        8           0.000000348    0.000002799   -0.000009842
     12        6          -0.000003857    0.000001273    0.000004852
     13        1          -0.000003732    0.000003700    0.000004866
     14        1           0.000000296   -0.000002204    0.000007617
     15        8           0.000000280    0.000004984   -0.000001589
     16        1          -0.000000207    0.000003388    0.000002557
     17        8           0.000007360   -0.000008295   -0.000014289
     18        8          -0.000008812    0.000015873   -0.000011366
     19        1          -0.000002207    0.000007361   -0.000001814
     20        8           0.000002372   -0.000006050    0.000001313
     21        1           0.000002035   -0.000003151   -0.000000621
     22        8          -0.000004011    0.000003279    0.000015539
     23        1          -0.000001730   -0.000000919    0.000008683
     24        8           0.000009487   -0.000013107   -0.000014764
     25        1           0.000004259   -0.000004456   -0.000005559
     26        1           0.000004932   -0.000007068   -0.000003789
     27        1           0.000001893   -0.000001712   -0.000004445
     28        8          -0.000047631    0.000011151    0.000000427
     29        1           0.000038022   -0.000002915    0.000032181
     30        1           0.000009627   -0.000023849    0.000012905
 -------------------------------------------------------------------
 Cartesian Forces:  Max     0.000047631 RMS     0.000009692
 IRC-IRC-IRC-IRC-IRC-IRC-IRC-IRC-IRC-IRC-IRC-IRC-IRC-IRC-IRC-IRC-IRC-IRC
          ******** Start new reaction path calculation ********
 Supplied step size of   0.1000 bohr.
    Integration on MW PES will use step size of   0.1074 sqrt(amu)*bohr.
 Point Number:   0          Path Number:   1
 Calculating another point on the path.
 IRC-IRC-IRC-IRC-IRC-IRC-IRC-IRC-IRC-IRC-IRC-IRC-IRC-IRC-IRC-IRC-IRC-IRC
                          Input orientation:                          
 ---------------------------------------------------------------------
 Center     Atomic      Atomic             Coordinates (Angstroms)
 Number     Number       Type             X           Y           Z
 ---------------------------------------------------------------------
      1          6           0        0.874504    0.753745   -0.554536
      2          6           0       -1.427261   -0.381397   -0.554139
      3          6           0       -0.574852    0.821156   -0.055745
      4          6           0       -0.580088   -1.583130   -1.025437
      5          1           0       -1.220761   -2.476793   -0.994930
      6          1           0       -2.044274   -0.025434   -1.387318
      7          1           0        0.906948    0.752419   -1.645664
      8          1           0       -0.542972    0.743818    1.043269
      9          6           0        0.536005   -1.800101   -0.015318
     10          1           0        1.276224   -2.544412   -0.338801
     11          8           0        1.484655   -0.497443   -0.126103
     12          6           0        1.702426    1.919597   -0.034073
     13          1           0        1.223355    2.839635   -0.391101
     14          1           0        1.666173    1.935667    1.070476
     15          8           0        3.032099    1.776301   -0.508006
     16          1           0        3.517719    2.581624   -0.275087
     17          8           0        0.076170   -1.913846    1.230112
     18          8           0       -0.006268   -1.403509   -2.311571
     19          1           0       -0.728444   -1.379735   -2.958276
     20          8           0       -2.327137   -0.825870    0.470809
     21          1           0       -1.729312   -1.279455    1.110753
     22          8           0       -1.119905    2.061921   -0.452710
     23          1           0       -1.970876    2.151287    0.038549
     24          8           0        2.022179   -0.871865    2.174224
     25          1           0        1.074493   -1.496945    1.974238
     26          1           0        1.788279   -0.155196    2.786625
     27          1           0        1.928338   -0.492374    1.030639
     28          8           0       -3.415697    1.651764    1.038825
     29          1           0       -4.241722    1.728412    0.538068
     30          1           0       -3.192907    0.691713    1.007536
 ---------------------------------------------------------------------
                    Distance matrix (angstroms):
                    1          2          3          4          5
     1  C    0.000000
     2  C    2.566451   0.000000
     3  C    1.534265   1.555999   0.000000
     4  C    2.792591   1.544016   2.592473   0.000000
     5  H    3.875623   2.151190   3.489374   1.100012   0.000000
     6  H    3.133674   1.096177   2.156154   2.168229   2.615588
     7  H    1.091611   2.815226   2.174465   2.837383   3.921531
     8  H    2.135959   2.144712   1.102194   3.113777   3.871174
     9  C    2.632008   2.481423   2.847214   1.520881   2.122211
    10  H    3.329528   3.468981   3.851447   2.200323   2.582636
    11  O    1.456472   2.945494   2.446472   2.500136   3.462942
    12  C    1.521693   3.919182   2.528446   4.296716   5.366239
    13  H    2.121166   4.174613   2.724017   4.818261   5.882407
    14  H    2.159709   4.192552   2.744577   4.671238   5.663046
    15  O    2.388096   4.954158   3.758582   4.959980   6.034295
    16  H    3.225805   5.771498   4.460549   5.890689   6.968425
    17  O    3.307317   2.791461   3.091520   2.372245   2.636239
    18  O    2.918334   2.480423   3.218877   1.419744   2.088175
    19  H    3.591538   2.695347   3.645846   1.949165   2.302311
    20  O    3.714433   1.434521   2.461799   2.421647   2.469414
    21  H    3.699588   1.915623   2.665720   2.444636   2.475105
    22  O    2.387333   2.464662   1.412148   3.729050   4.572100
    23  H    3.225068   2.657309   1.930550   4.124588   4.801029
    24  O    3.377262   4.425287   3.818856   4.185155   4.809989
    25  H    3.391210   3.727722   3.494963   3.426823   3.878693
    26  H    3.581133   4.642366   3.823182   4.709561   5.361371
    27  H    2.275117   3.712665   3.028457   3.421899   4.237650
    28  O    4.663803   3.259625   3.155692   4.771414   5.098910
    29  H    5.321609   3.683124   3.823828   5.178651   5.400003
    30  H    4.357493   2.589962   2.828698   4.016804   4.235406
                    6          7          8          9         10
     6  H    0.000000
     7  H    3.062925   0.000000
     8  H    2.958616   3.054948   0.000000
     9  C    3.419016   3.051390   2.959109   0.000000
    10  H    4.297714   3.565578   4.004004   1.098437   0.000000
    11  O    3.777142   2.050602   2.649422   1.615279   2.068517
    12  C    4.433078   2.142969   2.754077   3.898339   4.494650
    13  H    4.458528   2.455711   3.093506   4.705402   5.384560
    14  H    4.863546   3.058417   2.510292   4.051196   4.712666
    15  O    5.457930   2.618944   4.031577   4.389063   4.666935
    16  H    6.242562   3.469957   4.648097   5.306375   5.595052
    17  O    3.861777   4.008647   2.735220   1.332473   2.073459
    18  O    2.628080   2.434218   4.019206   2.392513   2.615007
    19  H    2.456308   2.990574   4.533899   3.230563   3.498115
    20  O    2.042877   4.174896   2.444355   3.063173   4.073458
    21  H    2.812851   4.321599   2.346400   2.582784   3.568553
    22  O    2.466779   2.691852   2.075621   4.224756   5.193525
    23  H    2.603190   3.615976   2.242620   4.679832   5.721507
    24  O    5.471478   4.298091   3.235660   2.804359   3.109527
    25  H    4.815820   4.265138   2.916148   2.083317   2.547162
    26  H    5.668077   4.609305   3.046678   3.482066   3.967221
    27  H    4.673992   3.123355   2.763278   2.177790   2.551760
    28  O    3.252685   5.167259   3.012795   5.351873   6.443591
    29  H    3.407618   5.677152   3.860751   5.965175   7.033750
    30  H    2.751179   4.883848   2.650688   4.600017   5.679635
                   11         12         13         14         15
    11  O    0.000000
    12  C    2.428575   0.000000
    13  H    3.357766   1.097018   0.000000
    14  H    2.717494   1.105261   1.774669   0.000000
    15  O    2.776751   1.418864   2.101405   2.093503   0.000000
    16  H    3.692723   1.947217   2.311738   2.378239   0.968826
    17  O    2.414404   4.351800   5.151694   4.168014   5.037436
    18  O    2.796440   4.376033   4.817099   5.038391   4.753494
    19  H    3.701007   5.034450   5.310649   5.740811   5.486900
    20  O    3.872199   4.902028   5.175404   4.892055   6.037448
    21  H    3.531422   4.829223   5.285898   4.676318   5.884646
    22  O    3.666163   2.856758   2.469717   3.177777   4.162184
    23  H    4.357015   3.681319   3.295684   3.786752   5.046692
    24  O    2.391784   3.573665   4.581948   3.037637   3.902189
    25  H    2.361921   4.012528   4.941955   3.598569   4.550593
    26  H    2.948441   3.502639   4.402964   2.707727   4.016511
    27  H    1.238924   2.646177   3.690614   2.442478   2.955097
    28  O    5.476276   5.236223   4.997652   5.089893   6.631913
    29  H    6.179559   5.974680   5.653781   5.935456   7.348812
    30  H    4.957703   5.153342   5.106185   5.016178   6.497992
                   16         17         18         19         20
    16  H    0.000000
    17  O    5.858254   0.000000
    18  O    5.696229   3.579212   0.000000
    19  H    6.397012   4.298287   0.969706   0.000000
    20  O    6.806593   2.745199   3.669024   3.823769   0.000000
    21  H    6.660317   1.917410   3.833611   4.191514   0.986237
    22  O    4.670031   4.479867   4.087145   4.275055   3.263377
    23  H    5.514366   4.704841   4.692475   4.795072   3.029395
    24  O    4.490251   2.400838   4.951727   5.845204   4.671219
    25  H    5.259615   1.313080   4.420965   5.253001   3.779117
    26  H    4.455921   2.906355   5.547096   6.390405   4.769638
    27  H    3.698718   2.343267   3.967774   4.874150   4.305078
    28  O    7.117813   4.994327   5.673099   5.691057   2.765190
    29  H    7.848446   5.691147   5.989027   5.850481   3.192885
    30  H    7.088680   4.186328   5.055798   5.108047   1.827756
                   21         22         23         24         25
    21  H    0.000000
    22  O    3.739063   0.000000
    23  H    3.602495   0.986648   0.000000
    24  O    3.920559   5.037914   5.444727   0.000000
    25  H    2.941808   4.834356   5.131352   1.152748   0.000000
    26  H    4.055361   4.885329   5.196445   0.971266   1.723297
    27  H    3.742235   4.244589   4.814256   1.208556   1.621294
    28  O    3.382472   2.768315   1.826905   6.101503   5.563379
    29  H    3.960737   3.292205   2.363278   6.976740   6.381823
    30  H    2.457289   2.882209   2.136036   5.568039   4.892386
                   26         27         28         29         30
    26  H    0.000000
    27  H    1.793541   0.000000
    28  O    5.779384   5.758134   0.000000
    29  H    6.705587   6.576029   0.968994   0.000000
    30  H    5.356736   5.256400   0.986059   1.547630   0.000000
 Symmetry turned off by external request.
 Stoichiometry    C6H16O8
 Framework group  C1[X(C6H16O8)]
 Deg. of freedom    84
 Full point group                 C1      NOp   1
 Rotational constants (GHZ):      0.7000357      0.5283956      0.4409431
 Standard basis: 6-31G(d) (6D, 7F)
   242 basis functions,   456 primitive gaussians,   242 cartesian basis functions
    58 alpha electrons       58 beta electrons
       nuclear repulsion energy      1130.2918667218 Hartrees.
 NAtoms=   30 NActive=   30 NUniq=   30 SFac= 1.00D+00 NAtFMM=   60 NAOKFM=F Big=F
 Integral buffers will be    131072 words long.
 Raffenetti 2 integral format.
 Two-electron integral symmetry is turned off.
 One-electron integrals computed using PRISM.
 NBasis=   242 RedAO= T EigKep=  1.28D-03  NBF=   242
 NBsUse=   242 1.00D-06 EigRej= -1.00D+00 NBFU=   242
 Initial guess from the checkpoint file:  "/scratch/10461049.yak.local/Gau-26186.chk"
 B after Tr=    -0.018515    0.028885    0.021148
         Rot=    1.000000   -0.000018    0.000040    0.000023 Ang=  -0.01 deg.
 ExpMin= 1.61D-01 ExpMax= 5.48D+03 ExpMxC= 8.25D+02 IAcc=1 IRadAn=         1 AccDes= 0.00D+00
 Harris functional with IExCor=  402 and IRadAn=       1 diagonalized for initial guess.
 HarFok:  IExCor=  402 AccDes= 0.00D+00 IRadAn=         1 IDoV= 1 UseB2=F ITyADJ=14
 ICtDFT=  3500011 ScaDFX=  1.000000  1.000000  1.000000  1.000000
 FoFCou: FMM=F IPFlag=           0 FMFlag=      100000 FMFlg1=           0
         NFxFlg=           0 DoJE=T BraDBF=F KetDBF=T FulRan=T
         wScrn=  0.000000 ICntrl=     500 IOpCl=  0 I1Cent=   200000004 NGrid=           0
         NMat0=    1 NMatS0=      1 NMatT0=    0 NMatD0=    1 NMtDS0=    0 NMtDT0=    0
 Symmetry not used in FoFCou.
 Requested convergence on RMS density matrix=1.00D-08 within 128 cycles.
 Requested convergence on MAX density matrix=1.00D-06.
 Requested convergence on             energy=1.00D-06.
 No special actions if energy rises.
 Integral accuracy reduced to 1.0D-05 until final iterations.
 Initial convergence to 1.0D-05 achieved.  Increase integral accuracy.
 SCF Done:  E(RB3LYP) =  -839.957274026     A.U. after   11 cycles
            NFock= 11  Conv=0.74D-08     -V/T= 2.0086
 DoSCS=F DFT=T ScalE2(SS,OS)=  1.000000  1.000000
 Range of M.O.s used for correlation:     1   242
 NBasis=   242 NAE=    58 NBE=    58 NFC=     0 NFV=     0
 NROrb=    242 NOA=    58 NOB=    58 NVA=   184 NVB=   184
 Symmetrizing basis deriv contribution to polar:
 IMax=3 JMax=2 DiffMx= 0.00D+00
 Calling FoFJK, ICntrl=      2147 FMM=F ISym2X=0 I1Cent= 0 IOpClX= 0 NMat=1 NMatS=1 NMatT=0.
 -------------------------------------------------------------------
 Center     Atomic                   Forces (Hartrees/Bohr)
 Number     Number              X              Y              Z
 -------------------------------------------------------------------
      1        6          -0.000112327   -0.001314452   -0.000199892
      2        6           0.000108713    0.000106030   -0.000018075
      3        6           0.000126660    0.000150949   -0.000174198
      4        6          -0.000145766   -0.000259855    0.000265970
      5        1          -0.000041338   -0.000010874    0.000012819
      6        1          -0.000012850   -0.000017867    0.000010267
      7        1          -0.000109390    0.000204240   -0.000052164
      8        1           0.000002467    0.000011783    0.000005833
      9        6           0.003496660    0.004477063   -0.002789598
     10        1          -0.000123872   -0.000064024    0.000019711
     11        8          -0.002771350   -0.002085792   -0.001178295
     12        6          -0.000057115   -0.000429080    0.000000047
     13        1          -0.000000711   -0.000020435    0.000004861
     14        1           0.000005247   -0.000018754    0.000022099
     15        8           0.000060088    0.000023616    0.000037190
     16        1          -0.000025848    0.000027208   -0.000013056
     17        8           0.002274548    0.001043530    0.003686195
     18        8          -0.000078964   -0.000158862    0.000230124
     19        1          -0.000027495   -0.000008950    0.000038170
     20        8          -0.000102449   -0.000114163    0.000010998
     21        1          -0.000162995    0.000091561    0.000095738
     22        8          -0.000158721    0.000041812    0.000035792
     23        1           0.000003220    0.000020901    0.000003357
     24        8           0.000117233    0.000723929   -0.002384215
     25        1          -0.003826293   -0.001977795   -0.002249701
     26        1           0.000107871    0.000192673   -0.000383880
     27        1           0.001516728   -0.000632473    0.004886126
     28        8          -0.000105976    0.000007885    0.000045506
     29        1           0.000038899    0.000001271    0.000028478
     30        1           0.000005125   -0.000011074    0.000003790
 -------------------------------------------------------------------
 Cartesian Forces:  Max     0.004886126 RMS     0.001213055
 IRC-IRC-IRC-IRC-IRC-IRC-IRC-IRC-IRC-IRC-IRC-IRC-IRC-IRC-IRC-IRC-IRC-IRC
 Pt  1 Step number   1 out of a maximum of  20
 Modified Bulirsch-Stoer Extrapolation Cycles:
    EPS =    0.000010000000000
 Maximum DWI energy   std dev =  0.000004014 at pt    54
 Maximum DWI gradient std dev =  0.058358784 at pt     2
 CORRECTOR INTEGRATION CONVERGENCE:
   Recorrection delta-x convergence threshold:    0.010000
   Delta-x Convergence Met
 Point Number:   1          Path Number:   1
   CHANGE IN THE REACTION COORDINATE =    0.10729
   NET REACTION COORDINATE UP TO THIS POINT =    0.10729
  # OF POINTS ALONG THE PATH =   1
  # OF STEPS =   1

 Calculating another point on the path.
 IRC-IRC-IRC-IRC-IRC-IRC-IRC-IRC-IRC-IRC-IRC-IRC-IRC-IRC-IRC-IRC-IRC-IRC
                          Input orientation:                          
 ---------------------------------------------------------------------
 Center     Atomic      Atomic             Coordinates (Angstroms)
 Number     Number       Type             X           Y           Z
 ---------------------------------------------------------------------
      1          6           0        0.874420    0.752951   -0.554685
      2          6           0       -1.427189   -0.381323   -0.554152
      3          6           0       -0.574769    0.821256   -0.055851
      4          6           0       -0.580202   -1.583309   -1.025277
      5          1           0       -1.221155   -2.476857   -0.994903
      6          1           0       -2.044374   -0.025579   -1.387235
      7          1           0        0.906066    0.754097   -1.646116
      8          1           0       -0.542938    0.743907    1.043299
      9          6           0        0.538207   -1.797329   -0.017141
     10          1           0        1.275301   -2.544968   -0.338577
     11          8           0        1.483348   -0.498408   -0.126763
     12          6           0        1.702393    1.919346   -0.034062
     13          1           0        1.223367    2.839488   -0.391054
     14          1           0        1.666226    1.935509    1.070601
     15          8           0        3.032125    1.776314   -0.507992
     16          1           0        3.517530    2.581796   -0.275157
     17          8           0        0.077219   -1.913372    1.231901
     18          8           0       -0.006297   -1.403584   -2.311453
     19          1           0       -0.728643   -1.379781   -2.957960
     20          8           0       -2.327184   -0.825926    0.470810
     21          1           0       -1.730647   -1.278749    1.111565
     22          8           0       -1.119983    2.061936   -0.452692
     23          1           0       -1.970817    2.151465    0.038574
     24          8           0        2.022241   -0.871573    2.173173
     25          1           0        1.046557   -1.510935    1.956619
     26          1           0        1.789038   -0.153420    2.784241
     27          1           0        1.939659   -0.497606    1.068211
     28          8           0       -3.415726    1.651759    1.038854
     29          1           0       -4.241713    1.728424    0.538151
     30          1           0       -3.192935    0.691777    1.007591
 ---------------------------------------------------------------------
                    Distance matrix (angstroms):
                    1          2          3          4          5
     1  C    0.000000
     2  C    2.565927   0.000000
     3  C    1.534161   1.555994   0.000000
     4  C    2.792041   1.544059   2.592633   0.000000
     5  H    3.875163   2.151272   3.489581   1.100078   0.000000
     6  H    3.133466   1.096129   2.156258   2.168257   2.615412
     7  H    1.091890   2.815251   2.174011   2.838644   3.922781
     8  H    2.136010   2.144736   1.102328   3.113893   3.871377
     9  C    2.627912   2.481176   2.845558   1.520849   2.124413
    10  H    3.329216   3.468614   3.851513   2.199826   2.582188
    11  O    1.455957   2.944078   2.445892   2.498514   3.461540
    12  C    1.522191   3.918910   2.528190   4.296666   5.366279
    13  H    2.121833   4.174407   2.723769   4.818323   5.882503
    14  H    2.160314   4.192464   2.744543   4.671319   5.663237
    15  O    2.388544   4.954090   3.758491   4.960197   6.034644
    16  H    3.226274   5.771322   4.460327   5.890856   6.968726
    17  O    3.307068   2.792920   3.092181   2.374025   2.638550
    18  O    2.917625   2.480334   3.218822   1.419830   2.088325
    19  H    3.590834   2.695028   3.645610   1.949031   2.302116
    20  O    3.714130   1.434647   2.462019   2.421539   2.469248
    21  H    3.700077   1.916266   2.666258   2.445890   2.476338
    22  O    2.387779   2.464586   1.412100   3.729213   4.572184
    23  H    3.225395   2.657418   1.930627   4.124819   4.801191
    24  O    3.376060   4.424615   3.818204   4.184418   4.809705
    25  H    3.385478   3.701272   3.481070   3.397541   3.845387
    26  H    3.578612   4.641220   3.821479   4.708536   5.361114
    27  H    2.309204   3.739151   3.053730   3.451252   4.261997
    28  O    4.663965   3.259658   3.155811   4.771425   5.098801
    29  H    5.321715   3.683165   3.823907   5.178663   5.399852
    30  H    4.357502   2.590067   2.828863   4.016833   4.235344
                    6          7          8          9         10
     6  H    0.000000
     7  H    3.062680   0.000000
     8  H    2.958701   3.054941   0.000000
     9  C    3.418476   3.049370   2.958257   0.000000
    10  H    4.297353   3.567888   4.004032   1.097995   0.000000
    11  O    3.775868   2.051940   2.649193   1.610125   2.067983
    12  C    4.433066   2.142582   2.753884   3.894777   4.495023
    13  H    4.458601   2.454529   3.093326   4.702056   5.384962
    14  H    4.863680   3.058452   2.510193   4.048418   4.713096
    15  O    5.458088   2.619232   4.031556   4.385372   4.667827
    16  H    6.242588   3.469835   4.647963   5.302799   5.596009
    17  O    3.863262   4.010656   2.735196   1.336443   2.073816
    18  O    2.628087   2.435296   4.019212   2.390688   2.614859
    19  H    2.456052   2.991094   4.533719   3.229191   3.497802
    20  O    2.042759   4.175135   2.444515   3.064667   4.072850
    21  H    2.812981   4.323138   2.346582   2.586620   3.569586
    22  O    2.466898   2.690646   2.075613   4.222940   5.193647
    23  H    2.603433   3.614868   2.242661   4.678812   5.721539
    24  O    5.470792   4.298327   3.235202   2.803008   3.109189
    25  H    4.789728   4.257911   2.906021   2.058195   2.527740
    26  H    5.666798   4.607742   3.045355   3.480626   3.966790
    27  H    4.703674   3.162696   2.775836   2.198030   2.571403
    28  O    3.252687   5.166501   3.012826   5.352094   6.443257
    29  H    3.407628   5.676263   3.860749   5.965476   7.033346
    30  H    2.751178   4.883426   2.650750   4.600777   5.679245
                   11         12         13         14         15
    11  O    0.000000
    12  C    2.429426   0.000000
    13  H    3.358421   1.097073   0.000000
    14  H    2.718654   1.105374   1.774751   0.000000
    15  O    2.778202   1.418892   2.101337   2.093557   0.000000
    16  H    3.694262   1.947226   2.311498   2.378251   0.968830
    17  O    2.413564   4.351274   5.151439   4.167115   5.037110
    18  O    2.794862   4.375842   4.817018   5.038369   4.753549
    19  H    3.699378   5.034218   5.310516   5.740719   5.486953
    20  O    3.870984   4.901929   5.175373   4.892096   6.037541
    21  H    3.531593   4.829704   5.286203   4.676738   5.885607
    22  O    3.665914   2.856815   2.469753   3.177951   4.162288
    23  H    4.356652   3.681253   3.295568   3.786793   5.046672
    24  O    2.391519   3.572593   4.580986   3.036794   3.901259
    25  H    2.357218   4.019920   4.946616   3.612062   4.563200
    26  H    2.947272   3.499529   4.399998   2.704675   4.013470
    27  H    1.279134   2.667013   3.711971   2.448432   2.974662
    28  O    5.475655   5.236209   4.997652   5.089966   6.631970
    29  H    6.178771   5.974635   5.653759   5.935497   7.348838
    30  H    4.956907   5.153271   5.106134   5.016203   6.498045
                   16         17         18         19         20
    16  H    0.000000
    17  O    5.857773   0.000000
    18  O    5.696237   3.580812   0.000000
    19  H    6.396992   4.299892   0.969702   0.000000
    20  O    6.806594   2.746444   3.668950   3.823422   0.000000
    21  H    6.661094   1.919794   3.834843   4.192286   0.985633
    22  O    4.669937   4.480426   4.087190   4.274919   3.263423
    23  H    5.514124   4.705463   4.692584   4.794989   3.029634
    24  O    4.489539   2.398843   4.950745   5.844156   4.670934
    25  H    5.276075   1.275456   4.397325   5.227009   3.749533
    26  H    4.452977   2.904740   5.545470   6.388705   4.769435
    27  H    3.711742   2.345181   4.003707   4.910002   4.320953
    28  O    7.117698   4.994806   5.673084   5.690797   2.765233
    29  H    7.848284   5.691848   5.989029   5.850247   3.192907
    30  H    7.088580   4.187007   5.055814   5.107807   1.827863
                   21         22         23         24         25
    21  H    0.000000
    22  O    3.738982   0.000000
    23  H    3.602133   0.986547   0.000000
    24  O    3.921348   5.037283   5.444243   0.000000
    25  H    2.912197   4.823285   5.118263   1.186439   0.000000
    26  H    4.056155   4.883435   5.194968   0.971356   1.754732
    27  H    3.752761   4.269170   4.834207   1.169449   1.616705
    28  O    3.381220   2.768282   1.827027   6.101259   5.545890
    29  H    3.959462   3.292141   2.363368   6.976417   6.361705
    30  H    2.456027   2.882167   2.136178   5.567828   4.870923
                   26         27         28         29         30
    26  H    0.000000
    27  H    1.756676   0.000000
    28  O    5.778807   5.770683   0.000000
    29  H    6.704939   6.591322   0.968935   0.000000
    30  H    5.356389   5.268950   0.985990   1.547560   0.000000
 Symmetry turned off by external request.
 Stoichiometry    C6H16O8
 Framework group  C1[X(C6H16O8)]
 Deg. of freedom    84
 Full point group                 C1      NOp   1
 Rotational constants (GHZ):      0.7001469      0.5284189      0.4409942
 Standard basis: 6-31G(d) (6D, 7F)
   242 basis functions,   456 primitive gaussians,   242 cartesian basis functions
    58 alpha electrons       58 beta electrons
       nuclear repulsion energy      1130.3024651041 Hartrees.
 NAtoms=   30 NActive=   30 NUniq=   30 SFac= 1.00D+00 NAtFMM=   60 NAOKFM=F Big=F
 Integral buffers will be    131072 words long.
 Raffenetti 2 integral format.
 Two-electron integral symmetry is turned off.
 One-electron integrals computed using PRISM.
 NBasis=   242 RedAO= T EigKep=  1.28D-03  NBF=   242
 NBsUse=   242 1.00D-06 EigRej= -1.00D+00 NBFU=   242
 Initial guess from the checkpoint file:  "/scratch/10461049.yak.local/Gau-26186.chk"
 B after Tr=    -0.000160   -0.000127    0.000153
         Rot=    1.000000   -0.000025    0.000040    0.000025 Ang=  -0.01 deg.
 ExpMin= 1.61D-01 ExpMax= 5.48D+03 ExpMxC= 8.25D+02 IAcc=1 IRadAn=         1 AccDes= 0.00D+00
 Harris functional with IExCor=  402 and IRadAn=       1 diagonalized for initial guess.
 HarFok:  IExCor=  402 AccDes= 0.00D+00 IRadAn=         1 IDoV= 1 UseB2=F ITyADJ=14
 ICtDFT=  3500011 ScaDFX=  1.000000  1.000000  1.000000  1.000000
 FoFCou: FMM=F IPFlag=           0 FMFlag=      100000 FMFlg1=           0
         NFxFlg=           0 DoJE=T BraDBF=F KetDBF=T FulRan=T
         wScrn=  0.000000 ICntrl=     500 IOpCl=  0 I1Cent=   200000004 NGrid=           0
         NMat0=    1 NMatS0=      1 NMatT0=    0 NMatD0=    1 NMtDS0=    0 NMtDT0=    0
 Symmetry not used in FoFCou.
 Requested convergence on RMS density matrix=1.00D-08 within 128 cycles.
 Requested convergence on MAX density matrix=1.00D-06.
 Requested convergence on             energy=1.00D-06.
 No special actions if energy rises.
 Integral accuracy reduced to 1.0D-05 until final iterations.
 Initial convergence to 1.0D-05 achieved.  Increase integral accuracy.
 SCF Done:  E(RB3LYP) =  -839.958519035     A.U. after   11 cycles
            NFock= 11  Conv=0.76D-08     -V/T= 2.0086
 DoSCS=F DFT=T ScalE2(SS,OS)=  1.000000  1.000000
 Range of M.O.s used for correlation:     1   242
 NBasis=   242 NAE=    58 NBE=    58 NFC=     0 NFV=     0
 NROrb=    242 NOA=    58 NOB=    58 NVA=   184 NVB=   184
 Symmetrizing basis deriv contribution to polar:
 IMax=3 JMax=2 DiffMx= 0.00D+00
 Calling FoFJK, ICntrl=      2147 FMM=F ISym2X=0 I1Cent= 0 IOpClX= 0 NMat=1 NMatS=1 NMatT=0.
 -------------------------------------------------------------------
 Center     Atomic                   Forces (Hartrees/Bohr)
 Number     Number              X              Y              Z
 -------------------------------------------------------------------
      1        6          -0.000273565   -0.002621557   -0.000488992
      2        6           0.000237662    0.000240923   -0.000049786
      3        6           0.000271451    0.000325303   -0.000352541
      4        6          -0.000372145   -0.000585329    0.000538071
      5        1          -0.000107032   -0.000023177    0.000015895
      6        1          -0.000024344   -0.000044864    0.000019386
      7        1          -0.000235347    0.000445456   -0.000117271
      8        1           0.000009113    0.000029906    0.000003696
      9        6           0.007181487    0.009078868   -0.005992437
     10        1          -0.000260398   -0.000152712    0.000089843
     11        8          -0.005886697   -0.004235834   -0.003238447
     12        6          -0.000102277   -0.000843497    0.000037033
     13        1           0.000007123   -0.000046667    0.000000651
     14        1           0.000015853   -0.000035012    0.000028910
     15        8           0.000109064    0.000053087    0.000059229
     16        1          -0.000049569    0.000042070   -0.000023294
     17        8           0.004492915    0.002006003    0.007665418
     18        8          -0.000126547   -0.000341915    0.000524202
     19        1          -0.000048782   -0.000028843    0.000089776
     20        8          -0.000212106   -0.000244731    0.000010522
     21        1          -0.000381532    0.000208645    0.000219453
     22        8          -0.000338823    0.000062363    0.000070921
     23        1           0.000016516    0.000050503   -0.000008614
     24        8           0.001275013    0.001799140   -0.003347339
     25        1          -0.008460436   -0.004382514   -0.004933186
     26        1           0.000273312    0.000404274   -0.000696394
     27        1           0.003119427   -0.001178113    0.009764610
     28        8          -0.000107593   -0.000021786    0.000119510
     29        1          -0.000006239    0.000007687   -0.000002846
     30        1          -0.000015504    0.000032323   -0.000005976
 -------------------------------------------------------------------
 Cartesian Forces:  Max     0.009764610 RMS     0.002505032
 IRC-IRC-IRC-IRC-IRC-IRC-IRC-IRC-IRC-IRC-IRC-IRC-IRC-IRC-IRC-IRC-IRC-IRC
 Pt  2 Step number   1 out of a maximum of  20
 Modified Bulirsch-Stoer Extrapolation Cycles:
    EPS =    0.000010000000000
 Maximum DWI energy   std dev =  0.000008590 at pt    63
 Maximum DWI gradient std dev =  0.039732586 at pt    55
 CORRECTOR INTEGRATION CONVERGENCE:
   Recorrection delta-x convergence threshold:    0.010000
   Delta-x Convergence Met
 Point Number:   2          Path Number:   1
   CHANGE IN THE REACTION COORDINATE =    0.10727
   NET REACTION COORDINATE UP TO THIS POINT =    0.21456
  # OF POINTS ALONG THE PATH =   2
  # OF STEPS =   1

 Calculating another point on the path.
 IRC-IRC-IRC-IRC-IRC-IRC-IRC-IRC-IRC-IRC-IRC-IRC-IRC-IRC-IRC-IRC-IRC-IRC
                          Input orientation:                          
 ---------------------------------------------------------------------
 Center     Atomic      Atomic             Coordinates (Angstroms)
 Number     Number       Type             X           Y           Z
 ---------------------------------------------------------------------
      1          6           0        0.874327    0.752207   -0.554847
      2          6           0       -1.427118   -0.381247   -0.554169
      3          6           0       -0.574690    0.821354   -0.055951
      4          6           0       -0.580323   -1.583487   -1.025120
      5          1           0       -1.221558   -2.476932   -0.994865
      6          1           0       -2.044460   -0.025754   -1.387168
      7          1           0        0.905220    0.755708   -1.646552
      8          1           0       -0.542889    0.744017    1.043315
      9          6           0        0.540339   -1.794672   -0.018963
     10          1           0        1.274386   -2.545538   -0.338168
     11          8           0        1.482004   -0.499342   -0.127624
     12          6           0        1.702367    1.919104   -0.034042
     13          1           0        1.223384    2.839310   -0.391081
     14          1           0        1.666293    1.935382    1.070690
     15          8           0        3.032146    1.776326   -0.507984
     16          1           0        3.517372    2.581928   -0.275212
     17          8           0        0.078198   -1.912943    1.233616
     18          8           0       -0.006321   -1.403659   -2.311330
     19          1           0       -0.728821   -1.379906   -2.957642
     20          8           0       -2.327231   -0.825982    0.470808
     21          1           0       -1.732111   -1.277967    1.112432
     22          8           0       -1.120057    2.061946   -0.452676
     23          1           0       -1.970765    2.151657    0.038552
     24          8           0        2.022632   -0.871171    2.172607
     25          1           0        1.015826   -1.526678    1.938266
     26          1           0        1.790044   -0.151746    2.782201
     27          1           0        1.950855   -0.501773    1.103048
     28          8           0       -3.415750    1.651754    1.038880
     29          1           0       -4.241715    1.728464    0.538140
     30          1           0       -3.193011    0.691890    1.007576
 ---------------------------------------------------------------------
                    Distance matrix (angstroms):
                    1          2          3          4          5
     1  C    0.000000
     2  C    2.565417   0.000000
     3  C    1.534057   1.555990   0.000000
     4  C    2.791528   1.544098   2.592794   0.000000
     5  H    3.874750   2.151363   3.489798   1.100155   0.000000
     6  H    3.133256   1.096072   2.156375   2.168250   2.615214
     7  H    1.092148   2.815274   2.173582   2.839868   3.924009
     8  H    2.136045   2.144769   1.102443   3.114017   3.871599
     9  C    2.623987   2.480948   2.843985   1.520801   2.126534
    10  H    3.328981   3.468276   3.851583   2.199407   2.581801
    11  O    1.455392   2.942597   2.445275   2.496811   3.460089
    12  C    1.522675   3.918651   2.527949   4.296633   5.366345
    13  H    2.122419   4.174176   2.723514   4.818351   5.882578
    14  H    2.160899   4.192389   2.744519   4.671418   5.663455
    15  O    2.388974   4.954017   3.758400   4.960414   6.035002
    16  H    3.226727   5.771153   4.460120   5.891023   6.969034
    17  O    3.306878   2.794323   3.092835   2.375727   2.640753
    18  O    2.916938   2.480243   3.218767   1.419913   2.088492
    19  H    3.590182   2.694739   3.645423   1.948881   2.301901
    20  O    3.713841   1.434771   2.462233   2.421425   2.469078
    21  H    3.700667   1.916947   2.666813   2.447261   2.477677
    22  O    2.388184   2.464504   1.412049   3.729368   4.572273
    23  H    3.225699   2.657532   1.930715   4.125049   4.801364
    24  O    3.375346   4.424489   3.818009   4.184283   4.810001
    25  H    3.380673   3.673175   3.466973   3.366389   3.809478
    26  H    3.576529   4.640492   3.820210   4.707889   5.361200
    27  H    2.340939   3.764518   3.077714   3.479377   4.285638
    28  O    4.664109   3.259686   3.155921   4.771428   5.098690
    29  H    5.321803   3.683202   3.823985   5.178667   5.399704
    30  H    4.357527   2.590183   2.829037   4.016880   4.235307
                    6          7          8          9         10
     6  H    0.000000
     7  H    3.062446   0.000000
     8  H    2.958802   3.054921   0.000000
     9  C    3.417929   3.047396   2.957491   0.000000
    10  H    4.297028   3.570207   4.004017   1.097505   0.000000
    11  O    3.774478   2.053040   2.649006   1.605123   2.067451
    12  C    4.433073   2.142224   2.753671   3.891358   4.495408
    13  H    4.458653   2.453332   3.093132   4.698810   5.385350
    14  H    4.863826   3.058475   2.510096   4.045790   4.713504
    15  O    5.458240   2.619506   4.031509   4.381811   4.668732
    16  H    6.242630   3.469725   4.647811   5.299341   5.596951
    17  O    3.864669   4.012609   2.735214   1.340342   2.074018
    18  O    2.628062   2.436329   4.019211   2.388865   2.614855
    19  H    2.455814   2.991637   4.533572   3.227790   3.497596
    20  O    2.042645   4.175368   2.444696   3.066136   4.072218
    21  H    2.813112   4.324736   2.346794   2.590572   3.570714
    22  O    2.467040   2.689488   2.075584   4.221199   5.193783
    23  H    2.603695   3.613799   2.242729   4.677870   5.721588
    24  O    5.470645   4.298990   3.235123   2.802324   3.109239
    25  H    4.761999   4.251169   2.895960   2.031908   2.507405
    26  H    5.665945   4.606544   3.044452   3.479581   3.966465
    27  H    4.731840   3.199205   2.788246   2.218119   2.590693
    28  O    3.252718   5.165775   3.012862   5.352338   6.442895
    29  H    3.407641   5.675392   3.860784   5.965810   7.032949
    30  H    2.751178   4.883028   2.650876   4.601594   5.678873
                   11         12         13         14         15
    11  O    0.000000
    12  C    2.430267   0.000000
    13  H    3.359002   1.097124   0.000000
    14  H    2.719890   1.105440   1.774831   0.000000
    15  O    2.779618   1.418914   2.101243   2.093577   0.000000
    16  H    3.695772   1.947239   2.311288   2.378228   0.968826
    17  O    2.412865   4.350801   5.151213   4.166317   5.036833
    18  O    2.793111   4.375660   4.816878   5.038341   4.753591
    19  H    3.697586   5.034042   5.310379   5.740658   5.487029
    20  O    3.869765   4.901840   5.175334   4.892159   6.037628
[...]
 Alpha  occ. eigenvalues --   -0.64479  -0.62315  -0.57423  -0.56197  -0.54713
 Alpha  occ. eigenvalues --   -0.53642  -0.52422  -0.51798  -0.50825  -0.49868
 Alpha  occ. eigenvalues --   -0.47479  -0.46345  -0.45366  -0.43655  -0.41514
 Alpha  occ. eigenvalues --   -0.41150  -0.40790  -0.40198  -0.39524  -0.38297
 Alpha  occ. eigenvalues --   -0.37540  -0.36196  -0.34718  -0.34117  -0.31916
 Alpha  occ. eigenvalues --   -0.31098  -0.30280  -0.29447  -0.28701  -0.28265
 Alpha  occ. eigenvalues --   -0.27222  -0.26846  -0.24893
 Alpha virt. eigenvalues --    0.04869   0.05345   0.06700   0.06890   0.09220
 Alpha virt. eigenvalues --    0.10900   0.12553   0.13072   0.14048   0.15044
 Alpha virt. eigenvalues --    0.15831   0.16727   0.17516   0.18143   0.19110
 Alpha virt. eigenvalues --    0.20309   0.21627   0.22780   0.22950   0.24198
 Alpha virt. eigenvalues --    0.24456   0.26002   0.26259   0.27685   0.30602
 Alpha virt. eigenvalues --    0.31681   0.32450   0.34236   0.52223   0.53029
 Alpha virt. eigenvalues --    0.53267   0.55705   0.56545   0.58131   0.59673
 Alpha virt. eigenvalues --    0.60975   0.61855   0.63875   0.64969   0.66316
 Alpha virt. eigenvalues --    0.67398   0.69287   0.70578   0.71980   0.75421
 Alpha virt. eigenvalues --    0.76026   0.77445   0.79237   0.79571   0.81176
 Alpha virt. eigenvalues --    0.81998   0.82532   0.83513   0.84092   0.84796
 Alpha virt. eigenvalues --    0.87025   0.87818   0.88068   0.88812   0.90249
 Alpha virt. eigenvalues --    0.90892   0.91595   0.92992   0.94185   0.96323
 Alpha virt. eigenvalues --    0.97504   0.99236   1.00185   1.00717   1.01945
 Alpha virt. eigenvalues --    1.03775   1.06227   1.07809   1.08557   1.10344
 Alpha virt. eigenvalues --    1.11407   1.13314   1.13394   1.14509   1.15820
 Alpha virt. eigenvalues --    1.19931   1.21907   1.23453   1.24924   1.26643
 Alpha virt. eigenvalues --    1.29981   1.31224   1.34197   1.37107   1.40194
 Alpha virt. eigenvalues --    1.41666   1.43250   1.44663   1.45638   1.48248
 Alpha virt. eigenvalues --    1.51827   1.53520   1.55945   1.57715   1.59727
 Alpha virt. eigenvalues --    1.60353   1.63358   1.63688   1.67165   1.68389
 Alpha virt. eigenvalues --    1.71129   1.71604   1.72071   1.72228   1.74905
 Alpha virt. eigenvalues --    1.76293   1.77262   1.78050   1.78847   1.79509
 Alpha virt. eigenvalues --    1.82087   1.82868   1.84218   1.86593   1.88431
 Alpha virt. eigenvalues --    1.89735   1.91457   1.93148   1.93982   1.96152
 Alpha virt. eigenvalues --    1.98192   1.98681   2.01085   2.03174   2.04847
 Alpha virt. eigenvalues --    2.06369   2.09128   2.11766   2.12396   2.13816
 Alpha virt. eigenvalues --    2.17340   2.17809   2.24207   2.27503   2.31099
 Alpha virt. eigenvalues --    2.32588   2.33836   2.35358   2.38261   2.40211
 Alpha virt. eigenvalues --    2.43285   2.45905   2.46869   2.47195   2.51550
 Alpha virt. eigenvalues --    2.53008   2.54756   2.55997   2.57058   2.59672
 Alpha virt. eigenvalues --    2.61296   2.63936   2.67033   2.69140   2.72169
 Alpha virt. eigenvalues --    2.74165   2.74844   2.83311   2.90748   2.92704
 Alpha virt. eigenvalues --    2.95700   2.96730   2.98439   3.04004   3.11399
 Alpha virt. eigenvalues --    3.72926   3.77432   3.77725   3.82664   3.88623
 Alpha virt. eigenvalues --    4.00145   4.05912   4.12019   4.27744   4.35188
 Alpha virt. eigenvalues --    4.47011   4.55630   4.72101   4.87387
          Condensed to atoms (all electrons):
               1          2          3          4          5          6
     1  C    4.943477  -0.037261   0.292271  -0.001497   0.000303  -0.000516
     2  C   -0.037261   5.108636   0.318725   0.266777  -0.056541   0.349525
     3  C    0.292271   0.318725   4.978314  -0.035076   0.005305  -0.047869
     4  C   -0.001497   0.266777  -0.035076   5.006192   0.358062  -0.032950
     5  H    0.000303  -0.056541   0.005305   0.358062   0.612995  -0.003933
     6  H   -0.000516   0.349525  -0.047869  -0.032950  -0.003933   0.602156
     7  H    0.357120  -0.009445  -0.043352   0.000036   0.000098   0.001703
     8  H   -0.039324  -0.065787   0.330480   0.000315  -0.000479   0.006745
     9  C   -0.021999  -0.024436  -0.013596   0.329627  -0.043015   0.004431
    10  H    0.003246   0.005754   0.000340  -0.053423  -0.003260  -0.000175
    11  O    0.173971  -0.013162  -0.026769  -0.015333   0.002844   0.000122
    12  C    0.349370   0.004515  -0.025545  -0.000037   0.000027  -0.000275
    13  H   -0.031615   0.000084  -0.004373  -0.000012   0.000000   0.000009
    14  H   -0.042160  -0.000126  -0.003319   0.000014  -0.000000   0.000003
    15  O   -0.049021  -0.000030   0.002308  -0.000001  -0.000000   0.000001
    16  H    0.006439   0.000003  -0.000228  -0.000000   0.000000  -0.000000
    17  O    0.000956   0.004395   0.000923  -0.048450   0.002853   0.000033
    18  O   -0.005279  -0.039499   0.001146   0.205504  -0.029360  -0.000205
    19  H    0.000250  -0.003573  -0.000403  -0.022102  -0.005427   0.005293
    20  O    0.003188   0.184632  -0.040526  -0.019707   0.007498  -0.035761
    21  H   -0.000040  -0.028507  -0.002839  -0.009984   0.000705   0.005380
    22  O   -0.042216  -0.042167   0.216267   0.003055  -0.000075   0.006065
    23  H    0.004843   0.001165  -0.023625   0.000040   0.000002   0.000659
    24  O    0.006128  -0.000055  -0.001293  -0.000359   0.000010  -0.000001
    25  H   -0.000257  -0.000538  -0.000135   0.005277  -0.000140   0.000013
    26  H   -0.000179  -0.000000  -0.000198  -0.000013  -0.000001   0.000000
    27  H   -0.010879  -0.000040   0.001033   0.001325  -0.000065   0.000007
    28  O    0.000056   0.005474   0.001936   0.000087   0.000001   0.000845
    29  H   -0.000003   0.000311  -0.000377   0.000008  -0.000001   0.000244
    30  H    0.000068  -0.006378  -0.000392   0.000576  -0.000024  -0.001297
               7          8          9         10         11         12
     1  C    0.357120  -0.039324  -0.021999   0.003246   0.173971   0.349370
     2  C   -0.009445  -0.065787  -0.024436   0.005754  -0.013162   0.004515
     3  C   -0.043352   0.330480  -0.013596   0.000340  -0.026769  -0.025545
     4  C    0.000036   0.000315   0.329627  -0.053423  -0.015333  -0.000037
     5  H    0.000098  -0.000479  -0.043015  -0.003260   0.002844   0.000027
     6  H    0.001703   0.006745   0.004431  -0.000175   0.000122  -0.000275
     7  H    0.583503   0.007166  -0.003669   0.000051  -0.038330  -0.047095
     8  H    0.007166   0.685821   0.002501   0.000146   0.001013  -0.016180
     9  C   -0.003669   0.002501   4.692591   0.382318   0.163260   0.003060
    10  H    0.000051   0.000146   0.382318   0.594725  -0.047138  -0.000219
    11  O   -0.038330   0.001013   0.163260  -0.047138   8.459952  -0.039473
    12  C   -0.047095  -0.016180   0.003060  -0.000219  -0.039473   4.908920
    13  H   -0.002900   0.000501  -0.000071   0.000004   0.003039   0.360498
    14  H    0.006827   0.007915  -0.000087  -0.000003  -0.003626   0.336626
    15  O    0.002886  -0.000041  -0.000040   0.000006   0.002525   0.246435
    16  H   -0.000148  -0.000004   0.000006  -0.000000  -0.000011  -0.023656
    17  O   -0.000174   0.004161   0.244300  -0.044866  -0.049447  -0.000181
    18  O    0.011960  -0.000064  -0.045385   0.003234   0.000428   0.000337
    19  H   -0.000325   0.000005   0.006804  -0.000443   0.000097  -0.000014
    20  O    0.000011   0.000389  -0.001152  -0.000264  -0.000020  -0.000047
    21  H    0.000035   0.004812  -0.003771   0.000580   0.000532  -0.000005
    22  O    0.003276  -0.035465   0.000111   0.000004   0.001116  -0.002084
    23  H   -0.000248  -0.004768  -0.000011  -0.000000  -0.000077   0.000147
    24  O   -0.000095   0.001636   0.008867   0.000047  -0.069632   0.000315
    25  H    0.000036   0.000742  -0.027035  -0.001751   0.006202  -0.000037
    26  H    0.000037   0.001243  -0.000416   0.000005   0.003830  -0.000392
    27  H    0.000717   0.000574  -0.009272   0.000054   0.076547  -0.001904
    28  O    0.000000   0.000596  -0.000004  -0.000000   0.000000  -0.000002
    29  H    0.000000  -0.000021  -0.000000  -0.000000  -0.000000  -0.000000
    30  H   -0.000001   0.000540   0.000005   0.000001  -0.000002  -0.000002
              13         14         15         16         17         18
     1  C   -0.031615  -0.042160  -0.049021   0.006439   0.000956  -0.005279
     2  C    0.000084  -0.000126  -0.000030   0.000003   0.004395  -0.039499
     3  C   -0.004373  -0.003319   0.002308  -0.000228   0.000923   0.001146
     4  C   -0.000012   0.000014  -0.000001  -0.000000  -0.048450   0.205504
     5  H    0.000000  -0.000000  -0.000000   0.000000   0.002853  -0.029360
     6  H    0.000009   0.000003   0.000001  -0.000000   0.000033  -0.000205
     7  H   -0.002900   0.006827   0.002886  -0.000148  -0.000174   0.011960
     8  H    0.000501   0.007915  -0.000041  -0.000004   0.004161  -0.000064
     9  C   -0.000071  -0.000087  -0.000040   0.000006   0.244300  -0.045385
    10  H    0.000004  -0.000003   0.000006  -0.000000  -0.044866   0.003234
    11  O    0.003039  -0.003626   0.002525  -0.000011  -0.049447   0.000428
    12  C    0.360498   0.336626   0.246435  -0.023656  -0.000181   0.000337
    13  H    0.583420  -0.050347  -0.032544  -0.005145   0.000001   0.000001
    14  H   -0.050347   0.697609  -0.045915  -0.002530  -0.000062  -0.000009
    15  O   -0.032544  -0.045915   8.249017   0.233816   0.000000  -0.000000
    16  H   -0.005145  -0.002530   0.233816   0.395802   0.000000   0.000000
    17  O    0.000001  -0.000062   0.000000   0.000000   8.408672   0.001202
    18  O    0.000001  -0.000009  -0.000000   0.000000   0.001202   8.273596
    19  H   -0.000000   0.000000   0.000000  -0.000000  -0.000108   0.233143
    20  O   -0.000002  -0.000003   0.000000  -0.000000  -0.018268   0.001584
    21  H    0.000001  -0.000004   0.000000  -0.000000   0.048690   0.000062
    22  O    0.012739   0.000154   0.000060   0.000009   0.000040  -0.000043
    23  H    0.000021  -0.000114   0.000001  -0.000001   0.000005  -0.000003
    24  O    0.000006   0.001097  -0.000225   0.000010  -0.076556   0.000001
    25  H   -0.000002  -0.000032  -0.000000  -0.000000   0.184432  -0.000056
    26  H   -0.000009   0.003267  -0.000103  -0.000001   0.004038  -0.000000
    27  H    0.000340   0.000615   0.003712  -0.000138   0.009734  -0.000009
    28  O    0.000002   0.000001   0.000000   0.000000  -0.000000   0.000000
    29  H   -0.000000  -0.000000  -0.000000  -0.000000   0.000000  -0.000000
    30  H   -0.000001  -0.000001  -0.000000  -0.000000   0.000026  -0.000008
              19         20         21         22         23         24
     1  C    0.000250   0.003188  -0.000040  -0.042216   0.004843   0.006128
     2  C   -0.003573   0.184632  -0.028507  -0.042167   0.001165  -0.000055
     3  C   -0.000403  -0.040526  -0.002839   0.216267  -0.023625  -0.001293
     4  C   -0.022102  -0.019707  -0.009984   0.003055   0.000040  -0.000359
     5  H   -0.005427   0.007498   0.000705  -0.000075   0.000002   0.000010
     6  H    0.005293  -0.035761   0.005380   0.006065   0.000659  -0.000001
     7  H   -0.000325   0.000011   0.000035   0.003276  -0.000248  -0.000095
     8  H    0.000005   0.000389   0.004812  -0.035465  -0.004768   0.001636
     9  C    0.006804  -0.001152  -0.003771   0.000111  -0.000011   0.008867
    10  H   -0.000443  -0.000264   0.000580   0.000004  -0.000000   0.000047
    11  O    0.000097  -0.000020   0.000532   0.001116  -0.000077  -0.069632
    12  C   -0.000014  -0.000047  -0.000005  -0.002084   0.000147   0.000315
    13  H   -0.000000  -0.000002   0.000001   0.012739   0.000021   0.000006
    14  H    0.000000  -0.000003  -0.000004   0.000154  -0.000114   0.001097
    15  O    0.000000   0.000000   0.000000   0.000060   0.000001  -0.000225
    16  H   -0.000000  -0.000000  -0.000000   0.000009  -0.000001   0.000010
    17  O   -0.000108  -0.018268   0.048690   0.000040   0.000005  -0.076556
    18  O    0.233143   0.001584   0.000062  -0.000043  -0.000003   0.000001
    19  H    0.385675   0.000010   0.000000  -0.000021   0.000001  -0.000000
    20  O    0.000010   8.324534   0.223454   0.000995   0.000766  -0.000004
    21  H    0.000000   0.223454   0.329780  -0.000018  -0.000016   0.000074
    22  O   -0.000021   0.000995  -0.000018   8.369915   0.209606   0.000001
    23  H    0.000001   0.000766  -0.000016   0.209606   0.322959  -0.000000
    24  O   -0.000000  -0.000004   0.000074   0.000001  -0.000000   8.433018
    25  H    0.000006   0.000276  -0.000090  -0.000003  -0.000000   0.107750
    26  H    0.000000   0.000001  -0.000029  -0.000001  -0.000000   0.235179
    27  H    0.000002   0.000008  -0.000030  -0.000027   0.000003   0.181214
    28  O   -0.000000  -0.023192   0.000577  -0.024819   0.071431   0.000000
    29  H   -0.000000   0.000830  -0.000009   0.001387  -0.003064  -0.000000
    30  H   -0.000001   0.061433  -0.001520   0.003470  -0.007508   0.000000
              25         26         27         28         29         30
     1  C   -0.000257  -0.000179  -0.010879   0.000056  -0.000003   0.000068
     2  C   -0.000538  -0.000000  -0.000040   0.005474   0.000311  -0.006378
     3  C   -0.000135  -0.000198   0.001033   0.001936  -0.000377  -0.000392
     4  C    0.005277  -0.000013   0.001325   0.000087   0.000008   0.000576
     5  H   -0.000140  -0.000001  -0.000065   0.000001  -0.000001  -0.000024
     6  H    0.000013   0.000000   0.000007   0.000845   0.000244  -0.001297
     7  H    0.000036   0.000037   0.000717   0.000000   0.000000  -0.000001
     8  H    0.000742   0.001243   0.000574   0.000596  -0.000021   0.000540
     9  C   -0.027035  -0.000416  -0.009272  -0.000004  -0.000000   0.000005
    10  H   -0.001751   0.000005   0.000054  -0.000000  -0.000000   0.000001
    11  O    0.006202   0.003830   0.076547   0.000000  -0.000000  -0.000002
    12  C   -0.000037  -0.000392  -0.001904  -0.000002  -0.000000  -0.000002
    13  H   -0.000002  -0.000009   0.000340   0.000002  -0.000000  -0.000001
    14  H   -0.000032   0.003267   0.000615   0.000001  -0.000000  -0.000001
    15  O   -0.000000  -0.000103   0.003712   0.000000  -0.000000  -0.000000
    16  H   -0.000000  -0.000001  -0.000138   0.000000  -0.000000  -0.000000
    17  O    0.184432   0.004038   0.009734  -0.000000   0.000000   0.000026
    18  O   -0.000056  -0.000000  -0.000009   0.000000  -0.000000  -0.000008
    19  H    0.000006   0.000000   0.000002  -0.000000  -0.000000  -0.000001
    20  O    0.000276   0.000001   0.000008  -0.023192   0.000830   0.061433
    21  H   -0.000090  -0.000029  -0.000030   0.000577  -0.000009  -0.001520
    22  O   -0.000003  -0.000001  -0.000027  -0.024819   0.001387   0.003470
    23  H   -0.000000  -0.000000   0.000003   0.071431  -0.003064  -0.007508
    24  O    0.107750   0.235179   0.181214   0.000000  -0.000000   0.000000
    25  H    0.294584  -0.005309  -0.014839   0.000000   0.000000  -0.000004
    26  H   -0.005309   0.371073  -0.009436  -0.000000   0.000000  -0.000000
    27  H   -0.014839  -0.009436   0.306900  -0.000000   0.000000  -0.000000
    28  O    0.000000  -0.000000  -0.000000   8.332868   0.240476   0.208193
    29  H    0.000000   0.000000   0.000000   0.240476   0.380216  -0.014811
    30  H   -0.000004  -0.000000  -0.000000   0.208193  -0.014811   0.326044
 Mulliken charges:
               1
     1  C    0.140561
     2  C    0.077548
     3  C    0.120868
     4  C    0.062050
     5  H    0.151619
     6  H    0.139748
     7  H    0.170318
     8  H    0.104833
     9  C    0.356077
    10  H    0.161030
    11  O   -0.592456
    12  C   -0.053102
    13  H    0.166355
    14  H    0.094211
    15  O   -0.612846
    16  H    0.395777
    17  O   -0.676351
    18  O   -0.612275
    19  H    0.401131
    20  O   -0.670662
    21  H    0.432181
    22  O   -0.681331
    23  H    0.427788
    24  O   -0.827135
    25  H    0.450910
    26  H    0.397415
    27  H    0.463853
    28  O   -0.814525
    29  H    0.394815
    30  H    0.431595
 Sum of Mulliken charges =  -0.00000
 Mulliken charges with hydrogens summed into heavy atoms:
               1
     1  C    0.310879
     2  C    0.217296
     3  C    0.225701
     4  C    0.213670
     9  C    0.517107
    11  O   -0.592456
    12  C    0.207464
    15  O   -0.217068
    17  O   -0.225441
    18  O   -0.211144
    20  O   -0.238481
    22  O   -0.253543
    24  O    0.034132
    28  O    0.011884
 APT charges:
               1
     1  C   -0.302126
     2  C   -0.245508
     3  C   -0.095396
     4  C   -0.430640
     5  H    0.525392
     6  H    0.445208
     7  H    0.407255
     8  H    0.248657
     9  C   -0.280287
    10  H    0.584586
    11  O   -0.422575
    12  C   -0.473983
    13  H    0.454149
    14  H    0.284120
    15  O   -1.093478
    16  H    0.950663
    17  O   -0.565562
    18  O   -0.878033
    19  H    0.774963
    20  O   -0.637832
    21  H    0.448012
    22  O   -0.800294
    23  H    0.595250
    24  O   -0.854709
    25  H    0.482534
    26  H    0.594460
    27  H    0.224859
    28  O   -1.068926
    29  H    0.911479
    30  H    0.217760
 Sum of APT charges =  -0.00000
 APT charges with hydrogens summed into heavy atoms:
               1
     1  C    0.105129
     2  C    0.199700
     3  C    0.153261
     4  C    0.094752
     9  C    0.304300
    11  O   -0.422575
    12  C    0.264286
    15  O   -0.142815
    17  O   -0.083027
    18  O   -0.103070
    20  O   -0.189820
    22  O   -0.205044
    24  O   -0.035389
    28  O    0.060313
 Electronic spatial extent (au):  <R**2>=           2966.0127
 Charge=              0.0000 electrons
 Dipole moment (field-independent basis, Debye):
    X=             -2.1804    Y=              0.8458    Z=             -0.2160  Tot=              2.3487
 Quadrupole moment (field-independent basis, Debye-Ang):
   XX=            -80.4403   YY=            -82.4698   ZZ=            -79.6651
   XY=              9.3881   XZ=              9.1536   YZ=              4.9228
 Traceless Quadrupole moment (field-independent basis, Debye-Ang):
   XX=              0.4181   YY=             -1.6114   ZZ=              1.1933
   XY=              9.3881   XZ=              9.1536   YZ=              4.9228
 Octapole moment (field-independent basis, Debye-Ang**2):
  XXX=            -48.9901  YYY=              5.7622  ZZZ=             -0.6653  XYY=             26.0176
  XXY=             37.7592  XXZ=            -11.5758  XZZ=             -9.4696  YZZ=             -4.4092
  YYZ=             -8.1892  XYZ=              9.5754
 Hexadecapole moment (field-independent basis, Debye-Ang**3):
 XXXX=          -1365.7622 YYYY=          -1093.7031 ZZZZ=           -561.3639 XXXY=             -2.2986
 XXXZ=             28.6431 YYYX=             71.9896 YYYZ=              8.2407 ZZZX=             54.5867
 ZZZY=             24.7943 XXYY=           -365.4580 XXZZ=           -414.3442 YYZZ=           -325.0521
 XXYZ=              0.8892 YYXZ=             14.9441 ZZXY=             52.3512
 N-N= 1.130256606080D+03 E-N=-4.233154035654D+03  KE= 8.329327782309D+02
  Exact polarizability:   0.000   0.000   0.000   0.000   0.000   0.000
 Approx polarizability: 131.816   1.911 129.842  -1.678  -3.469 129.473

 This type of calculation cannot be archived.


 OLD HORSE! OLD HORSE! WHAT BROUGHT YOU HERE?
 FROM SACARAP' TO PORTLAND PIER
 I'VE CARTED STONE THIS MANY A YEAR;
 TILL, KILLED BY BLOWS AND SORE ABUSE,
 THEY SALTED ME DOWN FOR SAILORS' USE.
 THE SAILORS THEY DO ME DESPISE;
 THEY TURN ME OVER AND DAMN MY EYES;
 CUT OFF MY MEAT, AND SCRAPE MY BONES,
 AND PITCH ME OVER TO DAVY JONES.

    SAILORS' COMPLAINT ABOUT THE BEEF
    SERVED ON SHIPBOARD, CIRCA 1835.
 Job cpu time:       0 days  1 hours  8 minutes 37.8 seconds.
 File lengths (MBytes):  RWF=    220 Int=      0 D2E=      0 Chk=      9 Scr=      1
 Normal termination of Gaussian 09 at Sat Jan 14 01:10:36 2017.
