 Entering Gaussian System, Link 0=g09
 Initial command:
 /global/software/gaussian/g09.e01/l1.exe "/scratch/10462925.yak.local/Gau-30182.inp" -scrdir="/scratch/10462925.yak.local/"
 Entering Link 1 = /global/software/gaussian/g09.e01/l1.exe PID=     30183.
  
 Copyright (c) 1988,1990,1992,1993,1995,1998,2003,2009,2015,
            Gaussian, Inc.  All Rights Reserved.
  
 This is part of the Gaussian(R) 09 program.  It is based on
 the Gaussian(R) 03 system (copyright 2003, Gaussian, Inc.),
 the Gaussian(R) 98 system (copyright 1998, Gaussian, Inc.),
 the Gaussian(R) 94 system (copyright 1995, Gaussian, Inc.),
 the Gaussian 92(TM) system (copyright 1992, Gaussian, Inc.),
 the Gaussian 90(TM) system (copyright 1990, Gaussian, Inc.),
 the Gaussian 88(TM) system (copyright 1988, Gaussian, Inc.),
 the Gaussian 86(TM) system (copyright 1986, Carnegie Mellon
 University), and the Gaussian 82(TM) system (copyright 1983,
 Carnegie Mellon University). Gaussian is a federally registered
 trademark of Gaussian, Inc.
  
 This software contains proprietary and confidential information,
 including trade secrets, belonging to Gaussian, Inc.
  
 This software is provided under written license and may be
 used, copied, transmitted, or stored only in accord with that
 written license.
  
 The following legend is applicable only to US Government
 contracts under FAR:
  
                    RESTRICTED RIGHTS LEGEND
  
 Use, reproduction and disclosure by the US Government is
 subject to restrictions as set forth in subparagraphs (a)
 and (c) of the Commercial Computer Software - Restricted
 Rights clause in FAR 52.227-19.
  
 Gaussian, Inc.
 340 Quinnipiac St., Bldg. 40, Wallingford CT 06492
  
  
 ---------------------------------------------------------------
 Warning -- This program may not be used in any manner that
 competes with the business of Gaussian, Inc. or will provide
 assistance to any competitor of Gaussian, Inc.  The licensee
 of this program is prohibited from giving any competitor of
 Gaussian, Inc. access to this program.  By using this program,
 the user acknowledges that Gaussian, Inc. is engaged in the
 business of creating and licensing software in the field of
 computational chemistry and represents and warrants to the
 licensee that it is not a competitor of Gaussian, Inc. and that
 it will not use this program in any manner prohibited above.
 ---------------------------------------------------------------
  

 Cite this work as:
 Gaussian 09, Revision E.01,
 M. J. Frisch, G. W. Trucks, H. B. Schlegel, G. E. Scuseria, 
 M. A. Robb, J. R. Cheeseman, G. Scalmani, V. Barone, B. Mennucci, 
 G. A. Petersson, H. Nakatsuji, M. Caricato, X. Li, H. P. Hratchian, 
 A. F. Izmaylov, J. Bloino, G. Zheng, J. L. Sonnenberg, M. Hada, 
 M. Ehara, K. Toyota, R. Fukuda, J. Hasegawa, M. Ishida, T. Nakajima, 
 Y. Honda, O. Kitao, H. Nakai, T. Vreven, J. A. Montgomery, Jr., 
 J. E. Peralta, F. Ogliaro, M. Bearpark, J. J. Heyd, E. Brothers, 
 K. N. Kudin, V. N. Staroverov, T. Keith, R. Kobayashi, J. Normand, 
 K. Raghavachari, A. Rendell, J. C. Burant, S. S. Iyengar, J. Tomasi, 
 M. Cossi, N. Rega, J. M. Millam, M. Klene, J. E. Knox, J. B. Cross, 
 V. Bakken, C. Adamo, J. Jaramillo, R. Gomperts, R. E. Stratmann, 
 O. Yazyev, A. J. Austin, R. Cammi, C. Pomelli, J. W. Ochterski, 
 R. L. Martin, K. Morokuma, V. G. Zakrzewski, G. A. Voth, 
 P. Salvador, J. J. Dannenberg, S. Dapprich, A. D. Daniels, 
 O. Farkas, J. B. Foresman, J. V. Ortiz, J. Cioslowski, 
 and D. J. Fox, Gaussian, Inc., Wallingford CT, 2013.
 
 ******************************************
 Gaussian 09:  ES64L-G09RevE.01 30-Nov-2015
                15-Jan-2017 
 ******************************************
 %NPROCS=4
 Will use up to    4 processors via shared memory.
 -----------------------------------------
 # opt=(MaxCycle=1000) freq B3LYP/6-31G(d)
 -----------------------------------------
 1/6=1000,14=-1,18=20,19=15,26=3,38=1/1,3;
 2/9=110,12=2,17=6,18=5,40=1/2;
 3/5=1,6=6,7=1,11=2,16=1,25=1,30=1,71=1,74=-5/1,2,3;
 4//1;
 5/5=2,38=5/2;
 6/7=2,8=2,9=2,10=2,28=1/1;
 7//1,2,3,16;
 1/6=1000,14=-1,18=20,19=15,26=3/3(2);
 2/9=110/2;
 99//99;
 2/9=110/2;
 3/5=1,6=6,7=1,11=2,16=1,25=1,30=1,71=1,74=-5/1,2,3;
 4/5=5,16=3,69=1/1;
 5/5=2,38=5/2;
 7//1,2,3,16;
 1/6=1000,14=-1,18=20,19=15,26=3/3(-5);
 2/9=110/2;
 6/7=2,8=2,9=2,10=2,19=2,28=1/1;
 99/9=1/99;
 -------------------------------------------------
 ./boats/3/glo_1w_alpha_ts_boat3_B3LYP_631Gd_r.out
 -------------------------------------------------
 Symbolic Z-matrix:
 Charge =  0 Multiplicity = 1
 C                    -0.48432  -0.19799   0.93808 
 C                     0.68902   1.45765  -0.67479 
 O                     1.05865  -0.97403  -0.84007 
 C                     1.80433   0.43091  -0.58468 
 C                    -0.18335  -1.25334  -0.13632 
 C                    -0.42747   1.24608   0.37283 
 H                    -0.21667   1.9       1.23188 
 H                     0.22876   1.27373  -1.65577 
 H                    -0.04934  -2.21378   0.38446 
 H                    -1.49699  -0.37599   1.31206 
 C                    -1.2777   -1.40197  -1.20639 
 H                    -0.94771  -2.12548  -1.96339 
 H                    -1.46336  -0.4439   -1.69249 
 O                    -2.5435   -1.79691  -0.65548 
 H                    -2.43217  -2.64365  -0.19452 
 O                     1.24364   2.76243  -0.63367 
 H                     0.50279   3.37361  -0.77599 
 O                    -1.62112   1.639    -0.29458 
 H                    -2.40539   1.35553   0.22908 
 O                     0.36024  -0.35559   2.0629 
 H                     1.24748  -0.03418   1.80438 
 H                     2.44103   0.4415   -1.47609 
 O                     2.512     0.39408   0.5744 
 O                     3.00171  -1.95336   0.23369 
 H                     2.99283  -0.50209   0.56547 
 H                     2.17651  -1.83253  -0.32228 
 H                     3.71849  -2.1745   -0.37997 
 O                    -3.85832   0.3159    0.68288 
 H                    -4.62383   0.62873   0.17748 
 H                    -3.53883  -0.47576   0.1968 
 
 Add virtual bond connecting atoms O3         and H26        Dist= 2.84D+00.
 Add virtual bond connecting atoms H25        and O24        Dist= 2.81D+00.
 Add virtual bond connecting atoms O28        and H19        Dist= 3.48D+00.
 Add virtual bond connecting atoms H30        and O14        Dist= 3.52D+00.

 GradGradGradGradGradGradGradGradGradGradGradGradGradGradGradGradGradGrad
 Berny optimization.
 Initialization pass.
                           ----------------------------
                           !    Initial Parameters    !
                           ! (Angstroms and Degrees)  !
 --------------------------                            --------------------------
 ! Name  Definition              Value          Derivative Info.                !
 --------------------------------------------------------------------------------
 ! R1    R(1,5)                  1.5358         estimate D2E/DX2                !
 ! R2    R(1,6)                  1.5518         estimate D2E/DX2                !
 ! R3    R(1,10)                 1.0941         estimate D2E/DX2                !
 ! R4    R(1,20)                 1.4154         estimate D2E/DX2                !
 ! R5    R(2,4)                  1.5186         estimate D2E/DX2                !
 ! R6    R(2,6)                  1.5456         estimate D2E/DX2                !
 ! R7    R(2,8)                  1.0991         estimate D2E/DX2                !
 ! R8    R(2,16)                 1.4184         estimate D2E/DX2                !
 ! R9    R(3,4)                  1.6109         estimate D2E/DX2                !
 ! R10   R(3,5)                  1.4546         estimate D2E/DX2                !
 ! R11   R(3,26)                 1.5016         estimate D2E/DX2                !
 ! R12   R(4,22)                 1.0955         estimate D2E/DX2                !
 ! R13   R(4,23)                 1.3585         estimate D2E/DX2                !
 ! R14   R(5,9)                  1.1007         estimate D2E/DX2                !
 ! R15   R(5,11)                 1.5378         estimate D2E/DX2                !
 ! R16   R(6,7)                  1.1            estimate D2E/DX2                !
 ! R17   R(6,18)                 1.4229         estimate D2E/DX2                !
 ! R18   R(11,12)                1.0979         estimate D2E/DX2                !
 ! R19   R(11,13)                1.0903         estimate D2E/DX2                !
 ! R20   R(11,14)                1.4359         estimate D2E/DX2                !
 ! R21   R(14,15)                0.9705         estimate D2E/DX2                !
 ! R22   R(14,30)                1.8608         estimate D2E/DX2                !
 ! R23   R(16,17)                0.9709         estimate D2E/DX2                !
 ! R24   R(18,19)                0.9847         estimate D2E/DX2                !
 ! R25   R(19,28)                1.8433         estimate D2E/DX2                !
 ! R26   R(20,21)                0.9784         estimate D2E/DX2                !
 ! R27   R(23,25)                1.0171         estimate D2E/DX2                !
 ! R28   R(24,25)                1.4887         estimate D2E/DX2                !
 ! R29   R(24,26)                1.0023         estimate D2E/DX2                !
 ! R30   R(24,27)                0.9692         estimate D2E/DX2                !
 ! R31   R(28,29)                0.9692         estimate D2E/DX2                !
 ! R32   R(28,30)                0.9824         estimate D2E/DX2                !
 ! A1    A(5,1,6)              112.1765         estimate D2E/DX2                !
 ! A2    A(5,1,10)             107.9817         estimate D2E/DX2                !
 ! A3    A(5,1,20)             111.254          estimate D2E/DX2                !
 ! A4    A(6,1,10)             108.048          estimate D2E/DX2                !
 ! A5    A(6,1,20)             111.7916         estimate D2E/DX2                !
 ! A6    A(10,1,20)            105.2202         estimate D2E/DX2                !
 ! A7    A(4,2,6)              113.4381         estimate D2E/DX2                !
 ! A8    A(4,2,8)              104.3221         estimate D2E/DX2                !
 ! A9    A(4,2,16)             109.4544         estimate D2E/DX2                !
 ! A10   A(6,2,8)              106.2343         estimate D2E/DX2                !
 ! A11   A(6,2,16)             112.8764         estimate D2E/DX2                !
 ! A12   A(8,2,16)             110.0942         estimate D2E/DX2                !
 ! A13   A(4,3,5)              119.0778         estimate D2E/DX2                !
 ! A14   A(4,3,26)              95.7021         estimate D2E/DX2                !
 ! A15   A(5,3,26)             111.0409         estimate D2E/DX2                !
 ! A16   A(2,4,3)              103.9032         estimate D2E/DX2                !
 ! A17   A(2,4,22)             111.8406         estimate D2E/DX2                !
 ! A18   A(2,4,23)             116.8411         estimate D2E/DX2                !
 ! A19   A(3,4,22)              98.5376         estimate D2E/DX2                !
 ! A20   A(3,4,23)             110.6548         estimate D2E/DX2                !
 ! A21   A(22,4,23)            113.0635         estimate D2E/DX2                !
 ! A22   A(1,5,3)              111.9526         estimate D2E/DX2                !
 ! A23   A(1,5,9)              107.0053         estimate D2E/DX2                !
 ! A24   A(1,5,11)             114.441          estimate D2E/DX2                !
 ! A25   A(3,5,9)              107.0074         estimate D2E/DX2                !
 ! A26   A(3,5,11)             106.8299         estimate D2E/DX2                !
 ! A27   A(9,5,11)             109.3617         estimate D2E/DX2                !
 ! A28   A(1,6,2)              113.6248         estimate D2E/DX2                !
 ! A29   A(1,6,7)              106.0071         estimate D2E/DX2                !
 ! A30   A(1,6,18)             113.3966         estimate D2E/DX2                !
 ! A31   A(2,6,7)              108.0311         estimate D2E/DX2                !
 ! A32   A(2,6,18)             104.4931         estimate D2E/DX2                !
 ! A33   A(7,6,18)             111.2789         estimate D2E/DX2                !
 ! A34   A(5,11,12)            109.2437         estimate D2E/DX2                !
 ! A35   A(5,11,13)            110.2737         estimate D2E/DX2                !
 ! A36   A(5,11,14)            112.7652         estimate D2E/DX2                !
 ! A37   A(12,11,13)           108.8358         estimate D2E/DX2                !
 ! A38   A(12,11,14)           110.3801         estimate D2E/DX2                !
 ! A39   A(13,11,14)           105.2273         estimate D2E/DX2                !
 ! A40   A(11,14,15)           108.7288         estimate D2E/DX2                !
 ! A41   A(11,14,30)           116.8714         estimate D2E/DX2                !
 ! A42   A(15,14,30)           117.5987         estimate D2E/DX2                !
 ! A43   A(2,16,17)            106.0491         estimate D2E/DX2                !
 ! A44   A(6,18,19)            109.8282         estimate D2E/DX2                !
 ! A45   A(18,19,28)           157.0811         estimate D2E/DX2                !
 ! A46   A(1,20,21)            107.1293         estimate D2E/DX2                !
 ! A47   A(4,23,25)            105.2282         estimate D2E/DX2                !
 ! A48   A(25,24,26)            90.0682         estimate D2E/DX2                !
 ! A49   A(25,24,27)           111.5899         estimate D2E/DX2                !
 ! A50   A(26,24,27)           106.5699         estimate D2E/DX2                !
 ! A51   A(23,25,24)           149.7396         estimate D2E/DX2                !
 ! A52   A(3,26,24)            150.82           estimate D2E/DX2                !
 ! A53   A(19,28,29)           108.189          estimate D2E/DX2                !
 ! A54   A(19,28,30)            94.3787         estimate D2E/DX2                !
 ! A55   A(29,28,30)           105.0088         estimate D2E/DX2                !
 ! A56   L(14,30,28,1,-1)      166.987          estimate D2E/DX2                !
 ! A57   L(14,30,28,1,-2)      176.6673         estimate D2E/DX2                !
 ! D1    D(6,1,5,3)             52.1244         estimate D2E/DX2                !
 ! D2    D(6,1,5,9)            169.0639         estimate D2E/DX2                !
 ! D3    D(6,1,5,11)           -69.6166         estimate D2E/DX2                !
 ! D4    D(10,1,5,3)           171.0741         estimate D2E/DX2                !
 ! D5    D(10,1,5,9)           -71.9864         estimate D2E/DX2                !
 ! D6    D(10,1,5,11)           49.3331         estimate D2E/DX2                !
 ! D7    D(20,1,5,3)           -73.9398         estimate D2E/DX2                !
 ! D8    D(20,1,5,9)            42.9997         estimate D2E/DX2                !
 ! D9    D(20,1,5,11)          164.3193         estimate D2E/DX2                !
 ! D10   D(5,1,6,2)            -37.5163         estimate D2E/DX2                !
 ! D11   D(5,1,6,7)           -156.0032         estimate D2E/DX2                !
 ! D12   D(5,1,6,18)            81.6194         estimate D2E/DX2                !
 ! D13   D(10,1,6,2)          -156.427          estimate D2E/DX2                !
 ! D14   D(10,1,6,7)            85.0861         estimate D2E/DX2                !
 ! D15   D(10,1,6,18)          -37.2913         estimate D2E/DX2                !
 ! D16   D(20,1,6,2)            88.2552         estimate D2E/DX2                !
 ! D17   D(20,1,6,7)           -30.2318         estimate D2E/DX2                !
 ! D18   D(20,1,6,18)         -152.6092         estimate D2E/DX2                !
 ! D19   D(5,1,20,21)           74.128          estimate D2E/DX2                !
 ! D20   D(6,1,20,21)          -52.1487         estimate D2E/DX2                !
 ! D21   D(10,1,20,21)        -169.1854         estimate D2E/DX2                !
 ! D22   D(6,2,4,3)             60.2543         estimate D2E/DX2                !
 ! D23   D(6,2,4,22)           165.5604         estimate D2E/DX2                !
 ! D24   D(6,2,4,23)           -61.9216         estimate D2E/DX2                !
 ! D25   D(8,2,4,3)            -54.9068         estimate D2E/DX2                !
 ! D26   D(8,2,4,22)            50.3993         estimate D2E/DX2                !
 ! D27   D(8,2,4,23)          -177.0827         estimate D2E/DX2                !
 ! D28   D(16,2,4,3)          -172.697          estimate D2E/DX2                !
 ! D29   D(16,2,4,22)          -67.391          estimate D2E/DX2                !
 ! D30   D(16,2,4,23)           65.127          estimate D2E/DX2                !
 ! D31   D(4,2,6,1)            -21.2821         estimate D2E/DX2                !
 ! D32   D(4,2,6,7)             96.0347         estimate D2E/DX2                !
 ! D33   D(4,2,6,18)          -145.3883         estimate D2E/DX2                !
 ! D34   D(8,2,6,1)             92.7376         estimate D2E/DX2                !
 ! D35   D(8,2,6,7)           -149.9456         estimate D2E/DX2                !
 ! D36   D(8,2,6,18)           -31.3686         estimate D2E/DX2                !
 ! D37   D(16,2,6,1)          -146.5161         estimate D2E/DX2                !
 ! D38   D(16,2,6,7)           -29.1993         estimate D2E/DX2                !
 ! D39   D(16,2,6,18)           89.3777         estimate D2E/DX2                !
 ! D40   D(4,2,16,17)          174.9365         estimate D2E/DX2                !
 ! D41   D(6,2,16,17)          -57.6984         estimate D2E/DX2                !
 ! D42   D(8,2,16,17)           60.821          estimate D2E/DX2                !
 ! D43   D(5,3,4,2)            -46.3735         estimate D2E/DX2                !
 ! D44   D(5,3,4,22)          -161.5057         estimate D2E/DX2                !
 ! D45   D(5,3,4,23)            79.8126         estimate D2E/DX2                !
 ! D46   D(26,3,4,2)          -164.3028         estimate D2E/DX2                !
 ! D47   D(26,3,4,22)           80.565          estimate D2E/DX2                !
 ! D48   D(26,3,4,23)          -38.1168         estimate D2E/DX2                !
 ! D49   D(4,3,5,1)             -8.7422         estimate D2E/DX2                !
 ! D50   D(4,3,5,9)           -125.6804         estimate D2E/DX2                !
 ! D51   D(4,3,5,11)           117.2721         estimate D2E/DX2                !
 ! D52   D(26,3,5,1)           100.8744         estimate D2E/DX2                !
 ! D53   D(26,3,5,9)           -16.0639         estimate D2E/DX2                !
 ! D54   D(26,3,5,11)         -133.1114         estimate D2E/DX2                !
 ! D55   D(4,3,26,24)           21.7404         estimate D2E/DX2                !
 ! D56   D(5,3,26,24)         -102.4342         estimate D2E/DX2                !
 ! D57   D(2,4,23,25)          163.1178         estimate D2E/DX2                !
 ! D58   D(3,4,23,25)           44.5269         estimate D2E/DX2                !
 ! D59   D(22,4,23,25)         -64.9208         estimate D2E/DX2                !
 ! D60   D(1,5,11,12)          176.2849         estimate D2E/DX2                !
 ! D61   D(1,5,11,13)           56.7141         estimate D2E/DX2                !
 ! D62   D(1,5,11,14)          -60.5868         estimate D2E/DX2                !
 ! D63   D(3,5,11,12)           51.7792         estimate D2E/DX2                !
 ! D64   D(3,5,11,13)          -67.7917         estimate D2E/DX2                !
 ! D65   D(3,5,11,14)          174.9074         estimate D2E/DX2                !
 ! D66   D(9,5,11,12)          -63.7009         estimate D2E/DX2                !
 ! D67   D(9,5,11,13)          176.7282         estimate D2E/DX2                !
 ! D68   D(9,5,11,14)           59.4273         estimate D2E/DX2                !
 ! D69   D(1,6,18,19)           43.5768         estimate D2E/DX2                !
 ! D70   D(2,6,18,19)          167.8292         estimate D2E/DX2                !
 ! D71   D(7,6,18,19)          -75.8262         estimate D2E/DX2                !
 ! D72   D(5,11,14,15)         -58.8235         estimate D2E/DX2                !
 ! D73   D(5,11,14,30)          77.2463         estimate D2E/DX2                !
 ! D74   D(12,11,14,15)         63.6697         estimate D2E/DX2                !
 ! D75   D(12,11,14,30)       -160.2605         estimate D2E/DX2                !
 ! D76   D(13,11,14,15)       -179.0674         estimate D2E/DX2                !
 ! D77   D(13,11,14,30)        -42.9977         estimate D2E/DX2                !
 ! D78   D(11,14,28,19)         -0.0139         estimate D2E/DX2                !
 ! D79   D(11,14,28,29)        108.136          estimate D2E/DX2                !
 ! D80   D(15,14,28,19)        128.7887         estimate D2E/DX2                !
 ! D81   D(15,14,28,29)       -123.0613         estimate D2E/DX2                !
 ! D82   D(6,18,19,28)        -102.2272         estimate D2E/DX2                !
 ! D83   D(18,19,28,29)        -85.5564         estimate D2E/DX2                !
 ! D84   D(18,19,28,30)         21.8139         estimate D2E/DX2                !
 ! D85   D(4,23,25,24)         -37.1653         estimate D2E/DX2                !
 ! D86   D(26,24,25,23)         12.7005         estimate D2E/DX2                !
 ! D87   D(27,24,25,23)        120.5895         estimate D2E/DX2                !
 ! D88   D(25,24,26,3)          -4.6176         estimate D2E/DX2                !
 ! D89   D(27,24,26,3)        -117.2153         estimate D2E/DX2                !
 --------------------------------------------------------------------------------
 Trust Radius=3.00D-01 FncErr=1.00D-07 GrdErr=1.00D-06
 Number of steps in this run=    180 maximum allowed number of steps=    180.
 GradGradGradGradGradGradGradGradGradGradGradGradGradGradGradGradGradGrad

                          Input orientation:                          
 ---------------------------------------------------------------------
 Center     Atomic      Atomic             Coordinates (Angstroms)
 Number     Number       Type             X           Y           Z
 ---------------------------------------------------------------------
      1          6           0       -0.484320   -0.197990    0.938080
      2          6           0        0.689020    1.457650   -0.674790
      3          8           0        1.058650   -0.974030   -0.840070
      4          6           0        1.804330    0.430910   -0.584680
      5          6           0       -0.183350   -1.253340   -0.136320
      6          6           0       -0.427470    1.246080    0.372830
      7          1           0       -0.216670    1.900000    1.231880
      8          1           0        0.228760    1.273730   -1.655770
      9          1           0       -0.049340   -2.213780    0.384460
     10          1           0       -1.496990   -0.375990    1.312060
     11          6           0       -1.277700   -1.401970   -1.206390
     12          1           0       -0.947710   -2.125480   -1.963390
     13          1           0       -1.463360   -0.443900   -1.692490
     14          8           0       -2.543500   -1.796910   -0.655480
     15          1           0       -2.432170   -2.643650   -0.194520
     16          8           0        1.243640    2.762430   -0.633670
     17          1           0        0.502790    3.373610   -0.775990
     18          8           0       -1.621120    1.639000   -0.294580
     19          1           0       -2.405390    1.355530    0.229080
     20          8           0        0.360240   -0.355590    2.062900
     21          1           0        1.247480   -0.034180    1.804380
     22          1           0        2.441030    0.441500   -1.476090
     23          8           0        2.512000    0.394080    0.574400
     24          8           0        3.001710   -1.953360    0.233690
     25          1           0        2.992830   -0.502090    0.565470
     26          1           0        2.176510   -1.832530   -0.322280
     27          1           0        3.718490   -2.174500   -0.379970
     28          8           0       -3.858320    0.315900    0.682880
     29          1           0       -4.623830    0.628730    0.177480
     30          1           0       -3.538830   -0.475760    0.196800
 ---------------------------------------------------------------------
                    Distance matrix (angstroms):
                    1          2          3          4          5
     1  C    0.000000
     2  C    2.592146   0.000000
     3  O    2.478873   2.465160   0.000000
     4  C    2.819970   1.518628   1.610937   0.000000
     5  C    1.535800   2.898352   1.454593   2.643595   0.000000
     6  C    1.551798   1.545581   2.934036   2.561691   2.562407
     7  H    2.135303   2.156696   3.765563   3.089103   3.437533
     8  H    3.066350   1.099085   2.531108   2.083267   2.977355
     9  H    2.135208   3.891861   2.064969   3.371900   1.100734
    10  H    1.094096   3.476845   3.394203   3.891969   2.143175
    11  C    2.584138   3.511127   2.403301   3.639352   1.537772
    12  H    3.514040   4.144659   2.571608   4.001212   2.164038
    13  H    2.817604   3.047022   2.714441   3.559541   2.171470
    14  O    3.055520   4.587125   3.699553   4.885880   2.476954
    15  H    3.325380   5.176210   3.923033   5.249102   2.644530
    16  O    3.770985   1.418360   3.746726   2.398491   4.290695
    17  H    4.082738   1.927648   4.383499   3.223366   4.721084
    18  O    2.487227   2.348232   3.782414   3.643809   3.233861
    19  H    2.570334   3.225335   4.309235   4.386214   3.446329
    20  O    1.415394   3.300134   3.049177   3.116674   2.436804
    21  H    1.943307   2.946815   2.812844   2.496798   2.701840
    22  H    3.846406   2.178114   2.078274   1.095496   3.399241
    23  O    3.075832   2.452532   2.446360   1.358536   3.237905
    24  O    3.966093   4.220055   2.426423   2.790733   3.282003
    25  H    3.510255   3.269001   2.437072   1.898912   3.338414
    26  H    3.367528   3.627971   1.501579   2.308795   2.437003
    27  H    4.827780   4.738894   2.954246   3.239456   4.016498
    28  O    3.422439   4.881103   5.306589   5.803925   4.079094
    29  H    4.289233   5.444249   5.991229   6.476207   4.833065
    30  H    3.155421   4.729953   4.739219   5.475593   3.460469
                    6          7          8          9         10
     6  C    0.000000
     7  H    1.100007   0.000000
     8  H    2.132281   2.988167   0.000000
     9  H    3.480481   4.203487   4.050013   0.000000
    10  H    2.158040   2.612619   3.808911   2.516665   0.000000
    11  C    3.198280   4.239570   3.103342   2.167650   2.728244
    12  H    4.134730   5.191210   3.610172   2.515406   3.753798
    13  H    2.862629   3.949689   2.411404   3.073377   3.005506
    14  O    3.846400   4.758509   4.256153   2.734244   2.642993
    15  H    4.412562   5.252410   4.955973   2.489555   2.878650
    16  O    2.470823   2.521223   2.071448   5.241283   4.598543
    17  H    2.590667   2.592430   2.293164   5.733273   4.734826
    18  O    1.422892   2.090617   2.325579   4.216100   2.580094
    19  H    1.986155   2.468309   3.240077   4.279613   2.235218
    20  O    2.458083   2.472065   4.062078   2.537279   2.003367
    21  H    2.548305   2.492497   3.836803   2.906643   2.809151
    22  H    3.506301   4.064935   2.370449   4.088288   4.893881
    23  O    3.067086   3.185234   3.310684   3.660256   4.148391
    24  O    4.692020   5.118861   4.655472   3.065853   4.887666
    25  H    3.845993   4.063869   3.965795   3.495346   4.553217
    26  H    4.091666   4.698351   3.901381   2.366272   4.276351
    27  H    5.427344   5.889405   5.069139   3.844794   5.770514
    28  O    3.568206   4.009038   4.805304   4.582212   2.539775
    29  H    4.246024   4.706479   5.227280   5.389681   3.474746
    30  H    3.560376   4.213357   4.548348   3.902880   2.328706
                   11         12         13         14         15
    11  C    0.000000
    12  H    1.097911   0.000000
    13  H    1.090257   1.779605   0.000000
    14  O    1.435872   2.089290   2.018100   0.000000
    15  H    1.974450   2.366648   2.832209   0.970488   0.000000
    16  O    4.901774   5.519224   4.327759   5.927098   6.552109
    17  H    5.114837   5.809807   4.390797   6.002390   6.720083
    18  O    3.193248   4.172495   2.513466   3.575823   4.359920
    19  H    3.306972   4.364537   2.796033   3.277102   4.021641
    20  O    3.803422   4.588492   4.175676   4.230685   4.257783
    21  H    4.160784   4.836164   4.443492   4.850738   4.934041
    22  H    4.159336   4.279066   4.009367   5.525343   5.908354
    23  O    4.556186   4.975757   4.652364   5.645451   5.853534
    24  O    4.548759   4.522688   5.091708   5.618225   5.494262
    25  H    4.710276   4.955642   4.995938   5.815344   5.881708
    26  H    3.591462   3.541160   4.129700   4.731890   4.681257
    27  H    5.122664   4.927783   5.618652   6.279411   6.171314
    28  O    3.630429   4.629766   3.457674   2.825584   3.400393
    29  H    4.151557   5.067826   3.825689   3.302321   3.956037
    30  H    2.817715   3.755250   2.806779   1.860779   2.465274
                   16         17         18         19         20
    16  O    0.000000
    17  H    0.970904   0.000000
    18  O    3.095792   2.784173   0.000000
    19  H    4.004888   3.679718   0.984710   0.000000
    20  O    4.215914   4.688982   3.669045   3.733569   0.000000
    21  H    3.710139   4.338883   3.928617   4.213825   0.978433
    22  H    2.744108   3.583878   4.396707   5.218318   4.182044
    23  O    2.945718   3.839020   4.403139   5.022386   2.721711
    24  O    5.107034   5.969980   5.878323   6.339204   3.588348
    25  H    3.892903   4.798006   5.158729   5.718801   3.032209
    26  H    4.699028   5.487357   5.145316   5.609058   3.342046
    27  H    5.528338   6.424880   6.562127   7.094643   4.533640
    28  O    5.809372   5.522425   2.776884   1.843304   4.489054
    29  H    6.295859   5.892852   3.203085   2.335033   5.418916
    30  H    5.835030   5.665568   2.896770   2.153915   4.324294
                   21         22         23         24         25
    21  H    0.000000
    22  H    3.523112   0.000000
    23  O    1.815287   2.052266   0.000000
    24  O    3.037703   2.995507   2.422060   0.000000
    25  H    2.190909   2.315775   1.017054   1.488738   0.000000
    26  H    2.935957   2.563681   2.423712   1.002326   1.795703
    27  H    3.931697   3.110762   2.994001   0.969152   2.053630
    28  O    5.239228   6.660236   6.371723   7.239567   6.900808
    29  H    6.128502   7.258209   7.150712   8.051038   7.709916
    30  H    5.068340   6.276835   6.124683   6.705470   6.542109
                   26         27         28         29         30
    26  H    0.000000
    27  H    1.580498   0.000000
    28  O    6.484233   8.046104   0.000000
    29  H    7.249289   8.818342   0.969174   0.000000
    30  H    5.897065   7.475766   0.982381   1.548385   0.000000
 Stoichiometry    C6H16O8
 Framework group  C1[X(C6H16O8)]
 Deg. of freedom    84
 Full point group                 C1      NOp   1
 Largest Abelian subgroup         C1      NOp   1
 Largest concise Abelian subgroup C1      NOp   1
                         Standard orientation:                         
 ---------------------------------------------------------------------
 Center     Atomic      Atomic             Coordinates (Angstroms)
 Number     Number       Type             X           Y           Z
 ---------------------------------------------------------------------
      1          6           0       -0.466436   -0.183194    0.949344
      2          6           0        0.700048    1.476531   -0.664302
      3          8           0        1.077750   -0.953875   -0.830082
      4          6           0        1.818885    0.453552   -0.575154
      5          6           0       -0.162749   -1.237432   -0.125383
      6          6           0       -0.414901    1.261107    0.384174
      7          1           0       -0.205635    1.915663    1.243116
      8          1           0        0.239642    1.291141   -1.644937
      9          1           0       -0.025092   -2.197458    0.395209
     10          1           0       -1.478206   -0.364641    1.324102
     11          6           0       -1.257430   -1.389664   -1.194608
     12          1           0       -0.925594   -2.111993   -1.951929
     13          1           0       -1.446702   -0.432185   -1.680479
     14          8           0       -2.521458   -1.788918   -0.642741
     15          1           0       -2.406911   -2.635316   -0.181941
     16          8           0        1.250295    2.783171   -0.623503
     17          1           0        0.507276    3.391860   -0.765190
     18          8           0       -1.610392    1.650054   -0.282266
     19          1           0       -2.393291    1.363896    0.241984
     20          8           0        0.379533   -0.338038    2.073488
     21          1           0        1.265480   -0.013615    1.814301
     22          1           0        2.454847    0.466365   -1.467062
     23          8           0        2.527584    0.419012    0.583368
     24          8           0        3.024943   -1.926734    0.242071
     25          1           0        3.011427   -0.475530    0.573983
     26          1           0        2.198905   -1.808642   -0.313242
     27          1           0        3.741984   -2.145403   -0.372170
     28          8           0       -3.842349    0.319332    0.696832
     29          1           0       -4.609306    0.629620    0.192059
     30          1           0       -3.520571   -0.471205    0.210433
 ---------------------------------------------------------------------
 Rotational constants (GHZ):      0.8426011      0.5068760      0.4001086
 Standard basis: 6-31G(d) (6D, 7F)
 There are   242 symmetry adapted cartesian basis functions of A   symmetry.
 There are   242 symmetry adapted basis functions of A   symmetry.
   242 basis functions,   456 primitive gaussians,   242 cartesian basis functions
    58 alpha electrons       58 beta electrons
       nuclear repulsion energy      1129.5238941691 Hartrees.
 NAtoms=   30 NActive=   30 NUniq=   30 SFac= 1.00D+00 NAtFMM=   60 NAOKFM=F Big=F
 Integral buffers will be    131072 words long.
 Raffenetti 2 integral format.
 Two-electron integral symmetry is turned on.
 One-electron integrals computed using PRISM.
 NBasis=   242 RedAO= T EigKep=  1.16D-03  NBF=   242
 NBsUse=   242 1.00D-06 EigRej= -1.00D+00 NBFU=   242
 ExpMin= 1.61D-01 ExpMax= 5.48D+03 ExpMxC= 8.25D+02 IAcc=1 IRadAn=         1 AccDes= 0.00D+00
 Harris functional with IExCor=  402 and IRadAn=       1 diagonalized for initial guess.
 HarFok:  IExCor=  402 AccDes= 0.00D+00 IRadAn=         1 IDoV= 1 UseB2=F ITyADJ=14
 ICtDFT=  3500011 ScaDFX=  1.000000  1.000000  1.000000  1.000000
 FoFCou: FMM=F IPFlag=           0 FMFlag=      100000 FMFlg1=           0
         NFxFlg=           0 DoJE=T BraDBF=F KetDBF=T FulRan=T
         wScrn=  0.000000 ICntrl=     500 IOpCl=  0 I1Cent=   200000004 NGrid=           0
         NMat0=    1 NMatS0=      1 NMatT0=    0 NMatD0=    1 NMtDS0=    0 NMtDT0=    0
 Petite list used in FoFCou.
 Requested convergence on RMS density matrix=1.00D-08 within 128 cycles.
 Requested convergence on MAX density matrix=1.00D-06.
 Requested convergence on             energy=1.00D-06.
 No special actions if energy rises.
 Integral accuracy reduced to 1.0D-05 until final iterations.
 Initial convergence to 1.0D-05 achieved.  Increase integral accuracy.
 SCF Done:  E(RB3LYP) =  -839.976231038     A.U. after   14 cycles
            NFock= 14  Conv=0.62D-08     -V/T= 2.0085

 **********************************************************************

            Population analysis using the SCF density.

 **********************************************************************

 Orbital symmetries:
       Occupied  (A) (A) (A) (A) (A) (A) (A) (A) (A) (A) (A) (A)
                 (A) (A) (A) (A) (A) (A) (A) (A) (A) (A) (A) (A)
                 (A) (A) (A) (A) (A) (A) (A) (A) (A) (A) (A) (A)
                 (A) (A) (A) (A) (A) (A) (A) (A) (A) (A) (A) (A)
                 (A) (A) (A) (A) (A) (A) (A) (A) (A) (A)
       Virtual   (A) (A) (A) (A) (A) (A) (A) (A) (A) (A) (A) (A)
                 (A) (A) (A) (A) (A) (A) (A) (A) (A) (A) (A) (A)
                 (A) (A) (A) (A) (A) (A) (A) (A) (A) (A) (A) (A)
                 (A) (A) (A) (A) (A) (A) (A) (A) (A) (A) (A) (A)
                 (A) (A) (A) (A) (A) (A) (A) (A) (A) (A) (A) (A)
                 (A) (A) (A) (A) (A) (A) (A) (A) (A) (A) (A) (A)
                 (A) (A) (A) (A) (A) (A) (A) (A) (A) (A) (A) (A)
                 (A) (A) (A) (A) (A) (A) (A) (A) (A) (A) (A) (A)
                 (A) (A) (A) (A) (A) (A) (A) (A) (A) (A) (A) (A)
                 (A) (A) (A) (A) (A) (A) (A) (A) (A) (A) (A) (A)
                 (A) (A) (A) (A) (A) (A) (A) (A) (A) (A) (A) (A)
                 (A) (A) (A) (A) (A) (A) (A) (A) (A) (A) (A) (A)
                 (A) (A) (A) (A) (A) (A) (A) (A) (A) (A) (A) (A)
                 (A) (A) (A) (A) (A) (A) (A) (A) (A) (A) (A) (A)
                 (A) (A) (A) (A) (A) (A) (A) (A) (A) (A) (A) (A)
                 (A) (A) (A) (A)
 The electronic state is 1-A.
 Alpha  occ. eigenvalues --  -19.18422 -19.17297 -19.15844 -19.15591 -19.15153
 Alpha  occ. eigenvalues --  -19.14770 -19.13014 -19.12113 -10.30512 -10.24769
 Alpha  occ. eigenvalues --  -10.24593 -10.24171 -10.23142 -10.23015  -1.07735
 Alpha  occ. eigenvalues --   -1.04944  -1.02780  -1.01422  -1.01211  -1.00938
 Alpha  occ. eigenvalues --   -0.99804  -0.99278  -0.77052  -0.76768  -0.69513
 Alpha  occ. eigenvalues --   -0.65322  -0.62758  -0.57403  -0.55751  -0.54907
 Alpha  occ. eigenvalues --   -0.53905  -0.53068  -0.51987  -0.50679  -0.48581
 Alpha  occ. eigenvalues --   -0.47169  -0.46584  -0.45212  -0.44084  -0.42619
 Alpha  occ. eigenvalues --   -0.41743  -0.40311  -0.40080  -0.39201  -0.37794
 Alpha  occ. eigenvalues --   -0.36429  -0.36173  -0.34842  -0.34133  -0.32357
 Alpha  occ. eigenvalues --   -0.31364  -0.30873  -0.29826  -0.29489  -0.28383
 Alpha  occ. eigenvalues --   -0.26509  -0.26217  -0.24329
 Alpha virt. eigenvalues --    0.03333   0.05363   0.06137   0.07458   0.09867
 Alpha virt. eigenvalues --    0.10046   0.11847   0.11946   0.14597   0.14776
 Alpha virt. eigenvalues --    0.15691   0.16606   0.17360   0.18821   0.20126
 Alpha virt. eigenvalues --    0.20625   0.21625   0.22478   0.23414   0.24684
 Alpha virt. eigenvalues --    0.24996   0.26842   0.27606   0.28969   0.29334
 Alpha virt. eigenvalues --    0.31550   0.34065   0.34731   0.52351   0.53449
 Alpha virt. eigenvalues --    0.54317   0.54723   0.55852   0.57915   0.58516
 Alpha virt. eigenvalues --    0.60995   0.61735   0.62384   0.63993   0.66929
 Alpha virt. eigenvalues --    0.67915   0.69700   0.69878   0.71976   0.74630
 Alpha virt. eigenvalues --    0.75822   0.77729   0.79624   0.80106   0.80727
 Alpha virt. eigenvalues --    0.82472   0.83076   0.84155   0.84385   0.85532
 Alpha virt. eigenvalues --    0.87376   0.87451   0.87822   0.88667   0.90321
 Alpha virt. eigenvalues --    0.91481   0.92115   0.92796   0.95070   0.97364
 Alpha virt. eigenvalues --    0.98344   0.99368   0.99985   1.01984   1.03931
 Alpha virt. eigenvalues --    1.04386   1.05158   1.06826   1.08427   1.10032
 Alpha virt. eigenvalues --    1.10793   1.13123   1.14746   1.15939   1.17470
 Alpha virt. eigenvalues --    1.19472   1.21927   1.22896   1.25302   1.26587
 Alpha virt. eigenvalues --    1.28386   1.30870   1.33810   1.35510   1.35898
 Alpha virt. eigenvalues --    1.41494   1.43487   1.45919   1.48164   1.50152
 Alpha virt. eigenvalues --    1.51944   1.55282   1.57405   1.58263   1.59336
 Alpha virt. eigenvalues --    1.61685   1.63107   1.64089   1.68242   1.69736
 Alpha virt. eigenvalues --    1.70839   1.71617   1.71879   1.73287   1.73733
 Alpha virt. eigenvalues --    1.76051   1.76952   1.79475   1.80596   1.81277
 Alpha virt. eigenvalues --    1.81927   1.82509   1.84451   1.85513   1.86773
 Alpha virt. eigenvalues --    1.88462   1.89270   1.90715   1.92962   1.94760
 Alpha virt. eigenvalues --    1.96646   1.97644   2.01441   2.04178   2.05689
 Alpha virt. eigenvalues --    2.07761   2.08700   2.09336   2.12288   2.16096
 Alpha virt. eigenvalues --    2.16994   2.22532   2.23306   2.26083   2.31133
 Alpha virt. eigenvalues --    2.31937   2.32659   2.36117   2.36430   2.38830
 Alpha virt. eigenvalues --    2.42587   2.44258   2.46962   2.48005   2.51938
 Alpha virt. eigenvalues --    2.52368   2.54851   2.55861   2.59046   2.61488
 Alpha virt. eigenvalues --    2.62323   2.63230   2.63851   2.70736   2.71310
 Alpha virt. eigenvalues --    2.73987   2.77173   2.83967   2.87512   2.92697
 Alpha virt. eigenvalues --    2.93779   2.95106   3.00470   3.05170   3.13692
 Alpha virt. eigenvalues --    3.73059   3.75469   3.76228   3.88386   3.91134
 Alpha virt. eigenvalues --    3.97887   4.01901   4.15269   4.24429   4.35885
 Alpha virt. eigenvalues --    4.54949   4.58890   4.67601   4.92893
          Condensed to atoms (all electrons):
               1          2          3          4          5          6
     1  C    4.983837  -0.023018  -0.027712   0.003184   0.291382   0.272259
     2  C   -0.023018   4.934559  -0.012562   0.300438  -0.022671   0.298606
     3  O   -0.027712  -0.012562   8.527159   0.132065   0.141267  -0.011777
     4  C    0.003184   0.300438   0.132065   4.802355  -0.013640  -0.023453
     5  C    0.291382  -0.022671   0.141267  -0.013640   5.076235  -0.020206
     6  C    0.272259   0.298606  -0.011777  -0.023453  -0.020206   5.035795
     7  H   -0.055875  -0.048517   0.000204  -0.003148   0.006678   0.352145
     8  H    0.001082   0.349556   0.003744  -0.050645   0.000585  -0.053149
     9  H   -0.044444   0.000313  -0.037477   0.002108   0.360792   0.005063
    10  H    0.363633   0.004810   0.003091   0.000065  -0.051710  -0.040195
    11  C   -0.035032  -0.001169  -0.034800   0.000646   0.289638  -0.001975
    12  H    0.005033  -0.000104   0.005803  -0.000110  -0.044186  -0.000234
    13  H   -0.009148  -0.002849   0.001580   0.000449  -0.033238   0.001401
    14  O   -0.001202   0.000064   0.001411  -0.000012  -0.034059  -0.000475
    15  H   -0.001114   0.000005   0.000013  -0.000001  -0.002445   0.000038
    16  O    0.003402   0.240358   0.000880  -0.042297   0.000019  -0.040532
    17  H    0.000320  -0.025290  -0.000078   0.007356  -0.000025  -0.004124
    18  O   -0.027159  -0.046187   0.000041   0.002926  -0.001536   0.203921
    19  H   -0.002073   0.005195  -0.000000  -0.000231  -0.000316  -0.021193
    20  O    0.246857   0.001627   0.000460   0.005227  -0.043300  -0.037643
    21  H   -0.038471  -0.003262   0.000674  -0.005051  -0.000361  -0.001232
    22  H   -0.000284  -0.047292  -0.042644   0.374111   0.004202   0.005940
    23  O    0.002914  -0.038822  -0.047535   0.232604   0.000514  -0.002691
    24  O   -0.001033   0.000260  -0.071881   0.019285   0.004212   0.000021
    25  H   -0.000253   0.005160   0.004924  -0.022593  -0.000366  -0.000244
    26  H    0.002386   0.001287   0.075185  -0.010653  -0.005825  -0.000055
    27  H    0.000033   0.000048   0.002766   0.000916  -0.000070  -0.000002
    28  O   -0.001856  -0.000028  -0.000000   0.000001  -0.000231  -0.000836
    29  H    0.000201   0.000002   0.000000  -0.000000  -0.000011  -0.000017
    30  H    0.001658   0.000001  -0.000003   0.000000  -0.000267  -0.000305
               7          8          9         10         11         12
     1  C   -0.055875   0.001082  -0.044444   0.363633  -0.035032   0.005033
     2  C   -0.048517   0.349556   0.000313   0.004810  -0.001169  -0.000104
     3  O    0.000204   0.003744  -0.037477   0.003091  -0.034800   0.005803
     4  C   -0.003148  -0.050645   0.002108   0.000065   0.000646  -0.000110
     5  C    0.006678   0.000585   0.360792  -0.051710   0.289638  -0.044186
     6  C    0.352145  -0.053149   0.005063  -0.040195  -0.001975  -0.000234
     7  H    0.624920   0.006983  -0.000244  -0.004380   0.000009   0.000012
     8  H    0.006983   0.639026   0.000049  -0.000392  -0.000620   0.000146
     9  H   -0.000244   0.000049   0.626415  -0.000701  -0.055381  -0.006338
    10  H   -0.004380  -0.000392  -0.000701   0.593356  -0.002705   0.000035
    11  C    0.000009  -0.000620  -0.055381  -0.002705   5.003704   0.352388
    12  H    0.000012   0.000146  -0.006338   0.000035   0.352388   0.612593
    13  H    0.000233   0.004932   0.004961  -0.000184   0.365854  -0.033697
    14  O   -0.000010   0.000013   0.001384   0.009054   0.208603  -0.031229
    15  H   -0.000001   0.000001   0.005888   0.000830  -0.030183  -0.004748
    16  O    0.002231  -0.037808   0.000004  -0.000048   0.000006  -0.000000
    17  H    0.000006  -0.004476  -0.000000  -0.000001   0.000002   0.000000
    18  O   -0.034965   0.000456  -0.000155  -0.002614  -0.001990   0.000291
    19  H   -0.002904  -0.000104  -0.000001   0.005525   0.000296  -0.000021
    20  O    0.007582  -0.000046   0.002821  -0.036708   0.003905  -0.000065
    21  H    0.000473   0.000071  -0.000709   0.005717  -0.000077   0.000004
    22  H   -0.000220  -0.005725  -0.000151   0.000005  -0.000086  -0.000008
    23  O    0.001279   0.003993  -0.000108  -0.000043   0.000005   0.000005
    24  O    0.000001   0.000019   0.002690   0.000003  -0.000026  -0.000012
    25  H   -0.000020  -0.000189  -0.000023   0.000004   0.000024  -0.000001
    26  H   -0.000001  -0.000012  -0.003847  -0.000058   0.000040   0.000240
    27  H   -0.000000  -0.000003  -0.000153   0.000000  -0.000003  -0.000000
    28  O    0.000002  -0.000006   0.000008   0.007264   0.001480  -0.000027
    29  H   -0.000000  -0.000000  -0.000000  -0.000260  -0.000010   0.000001
    30  H    0.000055   0.000003  -0.000096  -0.001769  -0.003743   0.000559
              13         14         15         16         17         18
     1  C   -0.009148  -0.001202  -0.001114   0.003402   0.000320  -0.027159
     2  C   -0.002849   0.000064   0.000005   0.240358  -0.025290  -0.046187
     3  O    0.001580   0.001411   0.000013   0.000880  -0.000078   0.000041
     4  C    0.000449  -0.000012  -0.000001  -0.042297   0.007356   0.002926
     5  C   -0.033238  -0.034059  -0.002445   0.000019  -0.000025  -0.001536
     6  C    0.001401  -0.000475   0.000038  -0.040532  -0.004124   0.203921
     7  H    0.000233  -0.000010  -0.000001   0.002231   0.000006  -0.034965
     8  H    0.004932   0.000013   0.000001  -0.037808  -0.004476   0.000456
     9  H    0.004961   0.001384   0.005888   0.000004  -0.000000  -0.000155
    10  H   -0.000184   0.009054   0.000830  -0.000048  -0.000001  -0.002614
    11  C    0.365854   0.208603  -0.030183   0.000006   0.000002  -0.001990
    12  H   -0.033697  -0.031229  -0.004748  -0.000000   0.000000   0.000291
    13  H    0.526020  -0.032503   0.006280   0.000010  -0.000004   0.016605
    14  O   -0.032503   8.236767   0.236387   0.000000  -0.000000  -0.000377
    15  H    0.006280   0.236387   0.384397   0.000000  -0.000000  -0.000025
    16  O    0.000010   0.000000   0.000000   8.264485   0.236148  -0.000036
    17  H   -0.000004  -0.000000  -0.000000   0.236148   0.378646   0.005273
    18  O    0.016605  -0.000377  -0.000025  -0.000036   0.005273   8.395681
    19  H   -0.001037   0.000196   0.000004  -0.000098  -0.000124   0.200553
    20  O    0.000013   0.000013  -0.000037  -0.000010  -0.000004   0.001604
    21  H    0.000002  -0.000001   0.000002  -0.000041  -0.000020  -0.000018
    22  H   -0.000072   0.000001  -0.000000   0.002399  -0.000379  -0.000084
    23  O    0.000007   0.000000  -0.000000   0.002552  -0.000083   0.000007
    24  O    0.000002   0.000000   0.000000   0.000000  -0.000000   0.000000
    25  H    0.000001  -0.000000   0.000000  -0.000088   0.000014   0.000001
    26  H   -0.000044  -0.000002  -0.000003  -0.000018   0.000001  -0.000002
    27  H   -0.000000  -0.000000  -0.000000  -0.000000   0.000000  -0.000000
    28  O    0.000854  -0.018002   0.000949   0.000000   0.000000  -0.021886
    29  H    0.000022   0.000492  -0.000016  -0.000000  -0.000000   0.001373
    30  H   -0.001310   0.054391  -0.003418  -0.000000  -0.000000   0.004198
              19         20         21         22         23         24
     1  C   -0.002073   0.246857  -0.038471  -0.000284   0.002914  -0.001033
     2  C    0.005195   0.001627  -0.003262  -0.047292  -0.038822   0.000260
     3  O   -0.000000   0.000460   0.000674  -0.042644  -0.047535  -0.071881
     4  C   -0.000231   0.005227  -0.005051   0.374111   0.232604   0.019285
     5  C   -0.000316  -0.043300  -0.000361   0.004202   0.000514   0.004212
     6  C   -0.021193  -0.037643  -0.001232   0.005940  -0.002691   0.000021
     7  H   -0.002904   0.007582   0.000473  -0.000220   0.001279   0.000001
     8  H   -0.000104  -0.000046   0.000071  -0.005725   0.003993   0.000019
     9  H   -0.000001   0.002821  -0.000709  -0.000151  -0.000108   0.002690
    10  H    0.005525  -0.036708   0.005717   0.000005  -0.000043   0.000003
    11  C    0.000296   0.003905  -0.000077  -0.000086   0.000005  -0.000026
    12  H   -0.000021  -0.000065   0.000004  -0.000008   0.000005  -0.000012
    13  H   -0.001037   0.000013   0.000002  -0.000072   0.000007   0.000002
    14  O    0.000196   0.000013  -0.000001   0.000001   0.000000   0.000000
    15  H    0.000004  -0.000037   0.000002  -0.000000  -0.000000   0.000000
    16  O   -0.000098  -0.000010  -0.000041   0.002399   0.002552   0.000000
    17  H   -0.000124  -0.000004  -0.000020  -0.000379  -0.000083  -0.000000
    18  O    0.200553   0.001604  -0.000018  -0.000084   0.000007   0.000000
    19  H    0.329421   0.000014   0.000024   0.000006   0.000001   0.000000
    20  O    0.000014   8.317447   0.221892  -0.000116  -0.027148  -0.000035
    21  H    0.000024   0.221892   0.336755   0.001194   0.061317   0.001102
    22  H    0.000006  -0.000116   0.001194   0.607638  -0.047230   0.001235
    23  O    0.000001  -0.027148   0.061317  -0.047230   8.360599  -0.079312
    24  O    0.000000  -0.000035   0.001102   0.001235  -0.079312   8.429335
    25  H   -0.000000   0.002474  -0.002585  -0.004829   0.180302   0.101727
    26  H   -0.000000   0.000033  -0.000317  -0.000751   0.012331   0.176877
    27  H    0.000000   0.000007  -0.000026   0.000431   0.002885   0.231941
    28  O    0.069381   0.000014  -0.000001  -0.000000   0.000000   0.000000
    29  H   -0.003060  -0.000001   0.000000   0.000000  -0.000000   0.000000
    30  H   -0.007334  -0.000003   0.000001  -0.000000  -0.000000  -0.000000
              25         26         27         28         29         30
     1  C   -0.000253   0.002386   0.000033  -0.001856   0.000201   0.001658
     2  C    0.005160   0.001287   0.000048  -0.000028   0.000002   0.000001
     3  O    0.004924   0.075185   0.002766  -0.000000   0.000000  -0.000003
     4  C   -0.022593  -0.010653   0.000916   0.000001  -0.000000   0.000000
     5  C   -0.000366  -0.005825  -0.000070  -0.000231  -0.000011  -0.000267
     6  C   -0.000244  -0.000055  -0.000002  -0.000836  -0.000017  -0.000305
     7  H   -0.000020  -0.000001  -0.000000   0.000002  -0.000000   0.000055
     8  H   -0.000189  -0.000012  -0.000003  -0.000006  -0.000000   0.000003
     9  H   -0.000023  -0.003847  -0.000153   0.000008  -0.000000  -0.000096
    10  H    0.000004  -0.000058   0.000000   0.007264  -0.000260  -0.001769
    11  C    0.000024   0.000040  -0.000003   0.001480  -0.000010  -0.003743
    12  H   -0.000001   0.000240  -0.000000  -0.000027   0.000001   0.000559
    13  H    0.000001  -0.000044  -0.000000   0.000854   0.000022  -0.001310
    14  O   -0.000000  -0.000002  -0.000000  -0.018002   0.000492   0.054391
    15  H    0.000000  -0.000003  -0.000000   0.000949  -0.000016  -0.003418
    16  O   -0.000088  -0.000018  -0.000000   0.000000  -0.000000  -0.000000
    17  H    0.000014   0.000001   0.000000   0.000000  -0.000000  -0.000000
    18  O    0.000001  -0.000002  -0.000000  -0.021886   0.001373   0.004198
    19  H   -0.000000  -0.000000   0.000000   0.069381  -0.003060  -0.007334
    20  O    0.002474   0.000033   0.000007   0.000014  -0.000001  -0.000003
    21  H   -0.002585  -0.000317  -0.000026  -0.000001   0.000000   0.000001
    22  H   -0.004829  -0.000751   0.000431  -0.000000   0.000000  -0.000000
    23  O    0.180302   0.012331   0.002885   0.000000  -0.000000  -0.000000
    24  O    0.101727   0.176877   0.231941   0.000000   0.000000  -0.000000
    25  H    0.305772  -0.016115  -0.004945   0.000000  -0.000000   0.000000
    26  H   -0.016115   0.327577  -0.005963  -0.000000  -0.000000  -0.000000
    27  H   -0.004945  -0.005963   0.374677   0.000000  -0.000000  -0.000000
    28  O    0.000000  -0.000000   0.000000   8.325723   0.238918   0.208599
    29  H   -0.000000  -0.000000  -0.000000   0.238918   0.377713  -0.012654
    30  H    0.000000  -0.000000  -0.000000   0.208599  -0.012654   0.325870
 Mulliken charges:
               1
     1  C    0.090490
     2  C    0.129483
     3  O   -0.614798
     4  C    0.288097
     5  C    0.098941
     6  C    0.085150
     7  H    0.147473
     8  H    0.142518
     9  H    0.137334
    10  H    0.148376
    11  C   -0.058800
    12  H    0.143672
    13  H    0.184861
    14  O   -0.630905
    15  H    0.407198
    16  O   -0.631516
    17  H    0.406841
    18  O   -0.695898
    19  H    0.427882
    20  O   -0.666875
    21  H    0.422944
    22  H    0.152712
    23  O   -0.618343
    24  O   -0.816412
    25  H    0.451849
    26  H    0.447707
    27  H    0.397460
    28  O   -0.810319
    29  H    0.397308
    30  H    0.435571
 Sum of Mulliken charges =  -0.00000
 Mulliken charges with hydrogens summed into heavy atoms:
               1
     1  C    0.238866
     2  C    0.272001
     3  O   -0.614798
     4  C    0.440809
     5  C    0.236274
     6  C    0.232622
    11  C    0.269733
    14  O   -0.223707
    16  O   -0.224675
    18  O   -0.268016
    20  O   -0.243931
    23  O   -0.166494
    24  O    0.028755
    28  O    0.022561
 Electronic spatial extent (au):  <R**2>=           2998.4176
 Charge=             -0.0000 electrons
 Dipole moment (field-independent basis, Debye):
    X=             -1.1819    Y=             -2.6765    Z=             -3.8859  Tot=              4.8642
 Quadrupole moment (field-independent basis, Debye-Ang):
   XX=            -71.9145   YY=            -77.5858   ZZ=            -90.8059
   XY=             -3.5264   XZ=             -3.0303   YZ=              2.4250
 Traceless Quadrupole moment (field-independent basis, Debye-Ang):
   XX=              8.1876   YY=              2.5163   ZZ=            -10.7039
   XY=             -3.5264   XZ=             -3.0303   YZ=              2.4250
 Octapole moment (field-independent basis, Debye-Ang**2):
  XXX=            -16.2279  YYY=            -14.7424  ZZZ=            -14.8169  XYY=            -23.7742
  XXY=            -25.5236  XXZ=            -27.9990  XZZ=              8.1999  YZZ=              5.3216
  YYZ=             -6.4302  XYZ=             12.8738
 Hexadecapole moment (field-independent basis, Debye-Ang**3):
 XXXX=          -1443.8250 YYYY=           -923.7496 ZZZZ=           -510.0947 XXXY=           -164.7302
 XXXZ=              1.3141 YYYX=              1.1871 YYYZ=             -1.4159 ZZZX=             10.6631
 ZZZY=              4.3443 XXYY=           -475.7033 XXZZ=           -421.6065 YYZZ=           -256.7248
 XXYZ=             18.5369 YYXZ=            -30.9621 ZZXY=             -4.0069
 N-N= 1.129523894169D+03 E-N=-4.231673364849D+03  KE= 8.329191721430D+02
 Calling FoFJK, ICntrl=      2127 FMM=F ISym2X=0 I1Cent= 0 IOpClX= 0 NMat=1 NMatS=1 NMatT=0.
 ***** Axes restored to original set *****
 -------------------------------------------------------------------
 Center     Atomic                   Forces (Hartrees/Bohr)
 Number     Number              X              Y              Z
 -------------------------------------------------------------------
      1        6          -0.001027767    0.000366983    0.000722366
      2        6          -0.000073521   -0.000200422    0.000113015
      3        8          -0.000543516    0.027554961   -0.002441563
      4        6          -0.018571887   -0.023865643   -0.009621085
      5        6           0.002126462    0.005880713   -0.000928222
      6        6          -0.000282882    0.000369668    0.000487757
      7        1          -0.000047904    0.000010155    0.000053587
      8        1          -0.000409044    0.000478927    0.000088374
      9        1           0.001075011    0.000444578   -0.000476442
     10        1          -0.000072980   -0.000018289    0.000036792
     11        6           0.000350856    0.000798732    0.000151660
     12        1           0.000050114    0.000027879    0.000052699
     13        1          -0.000087010   -0.000002731   -0.000056619
     14        8           0.000277085   -0.000309955    0.000130999
     15        1           0.000020037    0.000003684    0.000069426
     16        8           0.001742204   -0.001044134    0.000777792
     17        1          -0.000001285   -0.000160540    0.000202537
     18        8           0.000189080    0.000272412    0.000023454
     19        1          -0.000008029   -0.000035583   -0.000077857
     20        8          -0.002146250   -0.000297966    0.001417548
     21        1           0.000034719   -0.000349794    0.000090689
     22        1          -0.000405094   -0.000319786    0.000062580
     23        8          -0.005627427    0.013787847    0.004243576
     24        8           0.019232115   -0.021483364    0.003771899
     25        1           0.001710134    0.003695147    0.001099251
     26        1           0.001573390   -0.002897139   -0.000060524
     27        1           0.000709465   -0.002616798    0.000193497
     28        8           0.000200723   -0.000038032   -0.000147258
     29        1           0.000006965   -0.000038907   -0.000019987
     30        1           0.000006237   -0.000012602    0.000040062
 -------------------------------------------------------------------
 Cartesian Forces:  Max     0.027554961 RMS     0.005726470

 GradGradGradGradGradGradGradGradGradGradGradGradGradGradGradGradGradGrad
 Berny optimization.
 FormGI is forming the generalized inverse of G from B-inverse, IUseBI=4.
 Internal  Forces:  Max     0.021912833 RMS     0.003369598
 Search for a local minimum.
 Step number   1 out of a maximum of  180
 All quantities printed in internal units (Hartrees-Bohrs-Radians)
 Mixed Optimization -- RFO/linear search
 Second derivative matrix not updated -- first step.
 ITU=  0
     Eigenvalues ---    0.00386   0.00438   0.00495   0.00559   0.00647
     Eigenvalues ---    0.00997   0.01133   0.01327   0.01449   0.01488
     Eigenvalues ---    0.01834   0.02502   0.02771   0.03091   0.03548
     Eigenvalues ---    0.03822   0.04103   0.04277   0.04508   0.04576
     Eigenvalues ---    0.04737   0.04983   0.05196   0.05484   0.05553
     Eigenvalues ---    0.05994   0.06020   0.06085   0.06555   0.06725
     Eigenvalues ---    0.07104   0.07173   0.07374   0.07754   0.08029
     Eigenvalues ---    0.08666   0.09463   0.09599   0.09626   0.10090
     Eigenvalues ---    0.10791   0.11384   0.11615   0.12736   0.12934
     Eigenvalues ---    0.14114   0.16000   0.16000   0.16047   0.16916
     Eigenvalues ---    0.17126   0.18009   0.19036   0.19458   0.19912
     Eigenvalues ---    0.20523   0.21706   0.24960   0.25920   0.27766
     Eigenvalues ---    0.28170   0.29309   0.33601   0.33681   0.33784
     Eigenvalues ---    0.33914   0.34185   0.34344   0.34783   0.36029
     Eigenvalues ---    0.39174   0.40990   0.42551   0.42708   0.43162
     Eigenvalues ---    0.45397   0.49197   0.49729   0.51515   0.51690
     Eigenvalues ---    0.53193   0.53277   0.53546   0.53551
 RFO step:  Lambda=-1.17981571D-02 EMin= 3.85967088D-03
 Linear search not attempted -- first point.
 Iteration  1 RMS(Cart)=  0.04206087 RMS(Int)=  0.00072445
 Iteration  2 RMS(Cart)=  0.00110210 RMS(Int)=  0.00023950
 Iteration  3 RMS(Cart)=  0.00000128 RMS(Int)=  0.00023950
 Iteration  4 RMS(Cart)=  0.00000000 RMS(Int)=  0.00023950
 Variable       Old X    -DE/DX   Delta X   Delta X   Delta X     New X
                                 (Linear)    (Quad)   (Total)
    R1        2.90224  -0.00041   0.00000   0.00244   0.00250   2.90474
    R2        2.93247  -0.00221   0.00000  -0.00422  -0.00429   2.92818
    R3        2.06754   0.00008   0.00000   0.00023   0.00023   2.06777
    R4        2.67471   0.00001   0.00000   0.00003   0.00003   2.67474
    R5        2.86979  -0.00128   0.00000  -0.00282  -0.00266   2.86713
    R6        2.92072  -0.00102   0.00000  -0.00061  -0.00059   2.92014
    R7        2.07697   0.00002   0.00000   0.00005   0.00005   2.07702
    R8        2.68031  -0.00040   0.00000  -0.00091  -0.00091   2.67940
    R9        3.04423  -0.02191   0.00000  -0.10736  -0.10823   2.93600
   R10        2.74878   0.00072   0.00000  -0.00158  -0.00167   2.74712
   R11        2.83757   0.02086   0.00000   0.16364   0.16368   3.00125
   R12        2.07019  -0.00028   0.00000  -0.00080  -0.00080   2.06938
   R13        2.56726   0.00412   0.00000   0.00713   0.00674   2.57400
   R14        2.08009  -0.00048   0.00000  -0.00138  -0.00138   2.07870
   R15        2.90597  -0.00039   0.00000  -0.00259  -0.00264   2.90333
   R16        2.07871   0.00004   0.00000   0.00011   0.00011   2.07882
   R17        2.68888  -0.00059   0.00000  -0.00056  -0.00053   2.68834
   R18        2.07475  -0.00005   0.00000  -0.00013  -0.00013   2.07462
   R19        2.06029   0.00004   0.00000   0.00010   0.00010   2.06039
   R20        2.71341   0.00020   0.00000  -0.00019  -0.00022   2.71318
   R21        1.83396   0.00003   0.00000   0.00006   0.00006   1.83401
   R22        3.51636   0.00014   0.00000   0.00219   0.00222   3.51858
   R23        1.83474  -0.00014   0.00000  -0.00025  -0.00025   1.83449
   R24        1.86083  -0.00046   0.00000  -0.00049  -0.00047   1.86036
   R25        3.48334  -0.00041   0.00000  -0.00175  -0.00171   3.48163
   R26        1.84897  -0.00010   0.00000  -0.00019  -0.00019   1.84878
   R27        1.92195   0.01260   0.00000   0.02991   0.03020   1.95215
   R28        2.81331   0.01367   0.00000   0.11977   0.12036   2.93367
   R29        1.89412   0.01558   0.00000   0.03291   0.03328   1.92741
   R30        1.83143   0.00100   0.00000   0.00183   0.00183   1.83326
   R31        1.83147  -0.00001   0.00000  -0.00002  -0.00002   1.83145
   R32        1.85643   0.00005   0.00000   0.00026   0.00029   1.85672
    A1        1.95785  -0.00303   0.00000  -0.00981  -0.00990   1.94794
    A2        1.88464   0.00217   0.00000   0.00305   0.00297   1.88760
    A3        1.94175  -0.00007   0.00000   0.00741   0.00757   1.94932
    A4        1.88579   0.00025   0.00000  -0.00028  -0.00013   1.88567
    A5        1.95113   0.00234   0.00000   0.01110   0.01101   1.96214
    A6        1.83644  -0.00151   0.00000  -0.01210  -0.01210   1.82434
    A7        1.97987   0.00221   0.00000   0.01074   0.01059   1.99046
    A8        1.82076  -0.00071   0.00000   0.00537   0.00543   1.82619
    A9        1.91034  -0.00158   0.00000  -0.01709  -0.01706   1.89328
   A10        1.85414  -0.00056   0.00000  -0.00264  -0.00271   1.85143
   A11        1.97006  -0.00017   0.00000  -0.00027  -0.00015   1.96992
   A12        1.92151   0.00082   0.00000   0.00507   0.00507   1.92658
   A13        2.07830  -0.00125   0.00000  -0.00898  -0.00942   2.06888
   A14        1.67032   0.00347   0.00000   0.01664   0.01591   1.68623
   A15        1.93803  -0.00052   0.00000   0.03022   0.03078   1.96881
   A16        1.81345   0.00247   0.00000   0.02754   0.02812   1.84157
   A17        1.95199   0.00017   0.00000  -0.00564  -0.00602   1.94597
   A18        2.03926  -0.00423   0.00000  -0.02033  -0.02019   2.01907
   A19        1.71981  -0.00167   0.00000  -0.00285  -0.00270   1.71710
   A20        1.93129   0.00331   0.00000   0.01084   0.01000   1.94129
   A21        1.97333   0.00082   0.00000  -0.00248  -0.00264   1.97069
   A22        1.95394   0.00350   0.00000   0.03011   0.03011   1.98405
   A23        1.86760  -0.00056   0.00000  -0.00130  -0.00139   1.86621
   A24        1.99737  -0.00111   0.00000  -0.01089  -0.01085   1.98653
   A25        1.86763  -0.00127   0.00000  -0.00965  -0.00960   1.85803
   A26        1.86453  -0.00147   0.00000  -0.00892  -0.00900   1.85554
   A27        1.90872   0.00089   0.00000   0.00026   0.00022   1.90894
   A28        1.98313  -0.00240   0.00000  -0.00635  -0.00662   1.97651
   A29        1.85017  -0.00083   0.00000   0.00208   0.00221   1.85238
   A30        1.97914   0.00219   0.00000  -0.00158  -0.00171   1.97744
   A31        1.88550   0.00266   0.00000   0.01246   0.01244   1.89794
   A32        1.82375  -0.00124   0.00000  -0.00793  -0.00774   1.81601
   A33        1.94218  -0.00028   0.00000   0.00221   0.00221   1.94440
   A34        1.90666  -0.00034   0.00000  -0.00020  -0.00016   1.90650
   A35        1.92464   0.00044   0.00000   0.00194   0.00190   1.92654
   A36        1.96812  -0.00010   0.00000  -0.00318  -0.00318   1.96494
   A37        1.89954  -0.00001   0.00000   0.00040   0.00040   1.89994
   A38        1.92650   0.00004   0.00000   0.00044   0.00046   1.92696
   A39        1.83656   0.00000   0.00000   0.00075   0.00073   1.83729
   A40        1.89768  -0.00029   0.00000   0.00038   0.00047   1.89814
   A41        2.03979   0.00032   0.00000  -0.00112  -0.00123   2.03856
   A42        2.05248   0.00014   0.00000  -0.00003  -0.00004   2.05245
   A43        1.85091  -0.00020   0.00000  -0.00116  -0.00116   1.84975
   A44        1.91686  -0.00128   0.00000  -0.00290  -0.00297   1.91389
   A45        2.74158  -0.00152   0.00000  -0.00326  -0.00322   2.73836
   A46        1.86976   0.00031   0.00000   0.00182   0.00182   1.87158
   A47        1.83658   0.00128   0.00000   0.01129   0.01072   1.84730
   A48        1.57199  -0.01324   0.00000  -0.06781  -0.06632   1.50567
   A49        1.94761   0.00446   0.00000   0.02706   0.02678   1.97439
   A50        1.86000   0.00307   0.00000   0.01222   0.01238   1.87238
   A51        2.61345   0.00237   0.00000   0.01005   0.01028   2.62373
   A52        2.63231   0.00278   0.00000   0.00642   0.00678   2.63908
   A53        1.88825   0.00003   0.00000   0.00036   0.00039   1.88865
   A54        1.64722  -0.00080   0.00000   0.00078   0.00087   1.64809
   A55        1.83275   0.00006   0.00000  -0.00015  -0.00016   1.83259
   A56        2.91447   0.00006   0.00000   0.00400   0.00399   2.91846
   A57        3.08343  -0.00077   0.00000  -0.00134  -0.00128   3.08215
    D1        0.90974   0.00018   0.00000  -0.01726  -0.01754   0.89220
    D2        2.95072   0.00022   0.00000  -0.01322  -0.01334   2.93738
    D3       -1.21504   0.00023   0.00000  -0.02074  -0.02083  -1.23587
    D4        2.98581   0.00008   0.00000  -0.02148  -0.02168   2.96412
    D5       -1.25640   0.00012   0.00000  -0.01744  -0.01748  -1.27388
    D6        0.86103   0.00013   0.00000  -0.02496  -0.02498   0.83605
    D7       -1.29049  -0.00052   0.00000  -0.03024  -0.03042  -1.32091
    D8        0.75049  -0.00048   0.00000  -0.02620  -0.02622   0.72427
    D9        2.86791  -0.00047   0.00000  -0.03372  -0.03371   2.83420
   D10       -0.65478   0.00315   0.00000   0.04412   0.04394  -0.61084
   D11       -2.72277   0.00178   0.00000   0.03104   0.03097  -2.69180
   D12        1.42453   0.00137   0.00000   0.02781   0.02772   1.45225
   D13       -2.73017   0.00213   0.00000   0.04639   0.04625  -2.68392
   D14        1.48503   0.00076   0.00000   0.03331   0.03328   1.51831
   D15       -0.65086   0.00035   0.00000   0.03007   0.03003  -0.62083
   D16        1.54034   0.00252   0.00000   0.05509   0.05494   1.59528
   D17       -0.52764   0.00115   0.00000   0.04200   0.04197  -0.48568
   D18       -2.66353   0.00074   0.00000   0.03877   0.03871  -2.62482
   D19        1.29378  -0.00149   0.00000  -0.00638  -0.00634   1.28744
   D20       -0.91017   0.00078   0.00000  -0.00777  -0.00777  -0.91794
   D21       -2.95284   0.00017   0.00000  -0.00598  -0.00602  -2.95887
   D22        1.05164   0.00151   0.00000  -0.00441  -0.00481   1.04683
   D23        2.88957   0.00086   0.00000   0.00359   0.00345   2.89302
   D24       -1.08074  -0.00199   0.00000  -0.02658  -0.02616  -1.10690
   D25       -0.95830   0.00153   0.00000  -0.00969  -0.01009  -0.96840
   D26        0.87963   0.00088   0.00000  -0.00169  -0.00183   0.87780
   D27       -3.09068  -0.00197   0.00000  -0.03186  -0.03144  -3.12212
   D28       -3.01413   0.00170   0.00000  -0.01034  -0.01074  -3.02487
   D29       -1.17619   0.00106   0.00000  -0.00234  -0.00248  -1.17868
   D30        1.13668  -0.00180   0.00000  -0.03251  -0.03209   1.10459
   D31       -0.37144   0.00138   0.00000   0.00091   0.00088  -0.37056
   D32        1.67612   0.00068   0.00000   0.00796   0.00789   1.68401
   D33       -2.53750   0.00097   0.00000   0.01232   0.01230  -2.52520
   D34        1.61858   0.00131   0.00000   0.01128   0.01125   1.62983
   D35       -2.61704   0.00061   0.00000   0.01833   0.01826  -2.59879
   D36       -0.54749   0.00091   0.00000   0.02269   0.02267  -0.52481
   D37       -2.55719   0.00186   0.00000   0.01563   0.01563  -2.54156
   D38       -0.50962   0.00116   0.00000   0.02268   0.02263  -0.48699
   D39        1.55994   0.00145   0.00000   0.02705   0.02705   1.58698
   D40        3.05322  -0.00084   0.00000   0.00386   0.00388   3.05709
   D41       -1.00703   0.00071   0.00000   0.00424   0.00423  -1.00280
   D42        1.06153   0.00045   0.00000   0.00417   0.00416   1.06569
   D43       -0.80937   0.00164   0.00000   0.02777   0.02750  -0.78187
   D44       -2.81881   0.00134   0.00000   0.02701   0.02684  -2.79196
   D45        1.39299   0.00002   0.00000   0.02719   0.02745   1.42044
   D46       -2.86762   0.00041   0.00000  -0.01663  -0.01697  -2.88460
   D47        1.40612   0.00011   0.00000  -0.01739  -0.01763   1.38849
   D48       -0.66526  -0.00120   0.00000  -0.01721  -0.01703  -0.68229
   D49       -0.15258  -0.00147   0.00000  -0.01493  -0.01484  -0.16742
   D50       -2.19354  -0.00193   0.00000  -0.02399  -0.02381  -2.21735
   D51        2.04678  -0.00160   0.00000  -0.01506  -0.01503   2.03176
   D52        1.76059   0.00189   0.00000   0.02316   0.02273   1.78332
   D53       -0.28037   0.00142   0.00000   0.01410   0.01376  -0.26661
   D54       -2.32323   0.00175   0.00000   0.02302   0.02255  -2.30069
   D55        0.37944   0.00059   0.00000  -0.00189  -0.00194   0.37750
   D56       -1.78781   0.00036   0.00000  -0.01208  -0.01257  -1.80038
   D57        2.84694   0.00493   0.00000   0.05921   0.05874   2.90569
   D58        0.77714   0.00205   0.00000   0.02861   0.02812   0.80526
   D59       -1.13308   0.00171   0.00000   0.02711   0.02703  -1.10605
   D60        3.07675   0.00122   0.00000   0.01087   0.01085   3.08760
   D61        0.98985   0.00118   0.00000   0.00931   0.00929   0.99914
   D62       -1.05744   0.00095   0.00000   0.00909   0.00913  -1.04831
   D63        0.90372  -0.00143   0.00000  -0.01385  -0.01379   0.88992
   D64       -1.18319  -0.00147   0.00000  -0.01540  -0.01535  -1.19853
   D65        3.05271  -0.00170   0.00000  -0.01562  -0.01551   3.03720
   D66       -1.11179   0.00040   0.00000   0.00210   0.00206  -1.10973
   D67        3.08449   0.00036   0.00000   0.00055   0.00051   3.08500
   D68        1.03720   0.00013   0.00000   0.00033   0.00035   1.03755
   D69        0.76056   0.00038   0.00000  -0.01163  -0.01157   0.74899
   D70        2.92917  -0.00215   0.00000  -0.02606  -0.02614   2.90303
   D71       -1.32342   0.00014   0.00000  -0.01480  -0.01482  -1.33824
   D72       -1.02666   0.00051   0.00000   0.00229   0.00222  -1.02445
   D73        1.34820   0.00073   0.00000   0.00151   0.00142   1.34962
   D74        1.11125   0.00002   0.00000   0.00010   0.00010   1.11135
   D75       -2.79707   0.00025   0.00000  -0.00067  -0.00070  -2.79777
   D76       -3.12532   0.00003   0.00000   0.00121   0.00121  -3.12411
   D77       -0.75045   0.00025   0.00000   0.00044   0.00041  -0.75004
   D78       -0.00024   0.00031   0.00000  -0.00315  -0.00324  -0.00349
   D79        1.88733  -0.00006   0.00000  -0.00201  -0.00203   1.88530
   D80        2.24779   0.00043   0.00000  -0.00273  -0.00282   2.24497
   D81       -2.14783   0.00005   0.00000  -0.00159  -0.00160  -2.14943
   D82       -1.78420   0.00038   0.00000   0.01170   0.01175  -1.77245
   D83       -1.49324   0.00010   0.00000   0.00121   0.00119  -1.49205
   D84        0.38072  -0.00012   0.00000   0.00140   0.00141   0.38214
   D85       -0.64866   0.00086   0.00000  -0.00707  -0.00713  -0.65578
   D86        0.22167   0.00051   0.00000  -0.00047  -0.00022   0.22145
   D87        2.10468  -0.00110   0.00000  -0.01197  -0.01213   2.09256
   D88       -0.08059   0.00065   0.00000   0.01469   0.01459  -0.06600
   D89       -2.04579  -0.00015   0.00000   0.00661   0.00633  -2.03947
         Item               Value     Threshold  Converged?
 Maximum Force            0.021913     0.000450     NO 
 RMS     Force            0.003370     0.000300     NO 
 Maximum Displacement     0.224374     0.001800     NO 
 RMS     Displacement     0.042384     0.001200     NO 
 Predicted change in Energy=-6.483980D-03
 GradGradGradGradGradGradGradGradGradGradGradGradGradGradGradGradGradGrad

                          Input orientation:                          
 ---------------------------------------------------------------------
 Center     Atomic      Atomic             Coordinates (Angstroms)
 Number     Number       Type             X           Y           Z
 ---------------------------------------------------------------------
      1          6           0       -0.516168   -0.182254    0.950130
      2          6           0        0.663807    1.442309   -0.676950
      3          8           0        1.061201   -0.965056   -0.830293
      4          6           0        1.765551    0.401566   -0.606446
      5          6           0       -0.181099   -1.230120   -0.123393
      6          6           0       -0.445063    1.258164    0.383408
      7          1           0       -0.227410    1.913253    1.239930
      8          1           0        0.184254    1.273421   -1.651397
      9          1           0       -0.044875   -2.189567    0.397094
     10          1           0       -1.539602   -0.361194    1.293455
     11          6           0       -1.266057   -1.384006   -1.200257
     12          1           0       -0.927208   -2.106259   -1.954436
     13          1           0       -1.455146   -0.427491   -1.688218
     14          8           0       -2.531475   -1.786705   -0.654415
     15          1           0       -2.416781   -2.631790   -0.191186
     16          8           0        1.257845    2.729070   -0.635248
     17          1           0        0.532864    3.362365   -0.760679
     18          8           0       -1.634134    1.658279   -0.287292
     19          1           0       -2.419777    1.371432    0.231986
     20          8           0        0.280690   -0.346693    2.108300
     21          1           0        1.180551   -0.032260    1.888041
     22          1           0        2.385309    0.411508   -1.509209
     23          8           0        2.499782    0.395921    0.540814
     24          8           0        3.120444   -2.005776    0.208111
     25          1           0        3.031033   -0.489990    0.531281
     26          1           0        2.262032   -1.874382   -0.326812
     27          1           0        3.824243   -2.219611   -0.424401
     28          8           0       -3.867668    0.321390    0.674091
     29          1           0       -4.631414    0.627421    0.161924
     30          1           0       -3.538319   -0.468846    0.191975
 ---------------------------------------------------------------------
                    Distance matrix (angstroms):
                    1          2          3          4          5
     1  C    0.000000
     2  C    2.584363   0.000000
     3  O    2.504152   2.444758   0.000000
     4  C    2.823122   1.517221   1.553664   0.000000
     5  C    1.537123   2.856951   1.453711   2.585573   0.000000
     6  C    1.549527   1.545271   2.946966   2.569122   2.553054
     7  H    2.135068   2.165753   3.772401   3.109051   3.426601
     8  H    3.062274   1.099110   2.540477   2.086278   2.955672
     9  H    2.134777   3.853093   2.056529   3.316430   1.100001
    10  H    1.094216   3.462677   3.411618   3.887862   2.146631
    11  C    2.575015   3.462121   2.393434   3.568127   1.536376
    12  H    3.508170   4.093365   2.553392   3.918828   2.162641
    13  H    2.811174   3.001463   2.712382   3.497207   2.171655
    14  O    3.034845   4.542782   3.689629   4.822371   2.473062
    15  H    3.303809   5.130718   3.909325   5.183202   2.639611
    16  O    3.759834   1.417876   3.704494   2.382409   4.243553
    17  H    4.073286   1.926336   4.360109   3.210863   4.691140
    18  O    2.483671   2.340728   3.800206   3.638550   3.237441
    19  H    2.559960   3.215537   4.324907   4.377280   3.450514
    20  O    1.415409   3.332405   3.102725   3.183480   2.444207
    21  H    1.944488   3.003423   2.876402   2.598632   2.708288
    22  H    3.849606   2.172274   2.027095   1.095070   3.346920
    23  O    3.098029   2.438991   2.408673   1.362105   3.205043
    24  O    4.135308   4.325238   2.530190   2.880023   3.407597
    25  H    3.585076   3.285933   2.441272   1.921129   3.360682
    26  H    3.494606   3.698291   1.588195   2.346193   2.534826
    27  H    4.987918   4.843737   3.061544   3.337951   4.136721
    28  O    3.400353   4.859633   5.311484   5.777487   4.078474
    29  H    4.267562   5.422833   5.993859   6.446904   4.830856
    30  H    3.128950   4.697383   4.737811   5.433796   3.456867
                    6          7          8          9         10
     6  C    0.000000
     7  H    1.100066   0.000000
     8  H    2.129954   2.989754   0.000000
     9  H    3.470906   4.192473   4.030025   0.000000
    10  H    2.156043   2.626371   3.783623   2.525990   0.000000
    11  C    3.187960   4.231456   3.060857   2.166044   2.709165
    12  H    4.125206   5.181715   3.570632   2.512996   3.737523
    13  H    2.855405   3.944677   2.362645   3.072833   2.983606
    14  O    3.834242   4.752573   4.211119   2.729680   2.609615
    15  H    4.398814   5.243935   4.914088   2.483460   2.851177
    16  O    2.470045   2.527416   2.074626   5.191897   4.592966
    17  H    2.587071   2.584643   2.297519   5.700717   4.730694
    18  O    1.422610   2.091959   2.305522   4.219010   2.566314
    19  H    1.983747   2.473054   3.215231   4.283473   2.214366
    20  O    2.465266   2.473780   4.095044   2.535824   1.994404
    21  H    2.563539   2.487453   3.901926   2.894575   2.803741
    22  H    3.508537   4.079130   2.368069   4.037992   4.884355
    23  O    3.072515   3.198223   3.307183   3.630521   4.178076
    24  O    4.837032   5.256574   4.778296   3.176277   5.059511
    25  H    3.893732   4.110378   3.997230   3.516785   4.635537
    26  H    4.200669   4.795642   3.997543   2.438279   4.400844
    27  H    5.565469   6.022163   5.191946   3.955480   5.930900
    28  O    3.560374   4.013188   4.767843   4.582071   2.503881
    29  H    4.239390   4.712824   5.186146   5.387678   3.437590
[...]
 ,0.00013819,-0.00040256,0.00006101,0.00008452,0.00015050,0.00004524,0.
 00107346,0.00005574,-0.00002188,-0.00040282,-0.00018792,0.00008176,0.0
 0128589,0.00087493,-0.00067908,-0.00163402,-0.00102096,0.00180564,0.00
 029147,0.00055148,-0.00029979,0.01371197,-0.01252713,-0.00303040,-0.02
 047727,0.03222849,-0.00094707,-0.00017340,-0.00063138,0.00010843,-0.00
 007191,0.00082711,-0.00230559,0.00121162,0.00395807,-0.00149930,-0.001
 75095,-0.00546335,0.00031011,0.00162317,-0.00092272,-0.00005395,0.0000
 9008,-0.00012925,-0.00002967,0.00006472,0.00006919,0.00020124,-0.00017
 955,0.00009224,-0.00033824,-0.00025473,0.00004050,0.00002131,0.0001040
 2,0.00016237,0.00006008,-0.00013792,0.00017348,0.00004891,0.00007175,0
 .00008124,0.00005829,0.00000488,0.00003373,-0.00033108,-0.00003496,0.0
 0009884,0.00000658,0.00001462,-0.00006575,-0.00005134,0.00026323,0.000
 12880,0.00002644,0.00003496,-0.00001715,-0.00000083,-0.00001083,0.0001
 5491,-0.00001378,-0.00000151,-0.00003028,0.00079089,-0.00025786,0.0004
 1432,-0.00060167,0.00034839,0.00014490,-0.00024228,-0.00038087,0.00134
 283,0.00473878,-0.00709562,0.00384392,-0.06217299,0.04500537,0.4527401
 1,-0.00050821,0.00029469,-0.00055655,0.00047888,-0.00018286,-0.0034809
 9,0.00396701,0.00416542,0.00368018,-0.02416435,0.01566311,-0.01076221,
 -0.00225956,-0.00026882,0.00096739,-0.00016259,-0.00000675,0.00002588,
 0.00004256,-0.00000758,0.00000774,-0.00009782,0.00032422,0.00002481,0.
 00027058,0.00003818,-0.00021179,0.00016440,-0.00009873,-0.00000645,-0.
 00032451,-0.00012114,-0.00039502,0.00000707,0.00004409,0.00005857,0.00
 002111,-0.00000031,0.00000770,0.00076794,0.00023555,0.00016247,-0.0001
 4265,-0.00016638,-0.00006903,0.00001645,-0.00048317,0.00033758,0.00016
 944,0.00015565,0.00014339,0.00062499,-0.00027722,0.00011377,-0.0002498
 3,0.00000492,0.00005580,0.00136692,-0.00082619,0.00002766,-0.00319622,
 0.00171733,0.00192136,0.00175866,-0.00085677,0.00168132,-0.19800261,0.
 18844606,-0.00197973,-0.00814781,-0.00401660,-0.00142899,0.22447346,0.
 00093694,0.00058642,0.00060303,-0.00058791,0.00005481,-0.00135437,-0.0
 0080612,-0.00521984,-0.00116065,0.00328270,0.00748516,0.00682974,-0.00
 038393,0.00002481,0.00000129,0.00095606,0.00008880,-0.00024241,-0.0000
 8188,-0.00016703,0.00000700,-0.00054767,0.00059009,-0.00055235,-0.0003
 7594,-0.00024232,0.00010626,-0.00008356,-0.00012472,-0.00003754,0.0000
 7130,0.00001699,0.00008441,-0.00004979,-0.00006819,-0.00011048,0.00010
 895,0.00004065,0.00008466,-0.00009628,-0.00018026,-0.00010426,-0.00000
 455,0.00009051,0.00004654,-0.00016316,0.00028927,-0.00003821,-0.000059
 35,-0.00007414,0.00001735,-0.00077356,-0.00016262,-0.00003581,0.000293
 14,0.00018612,-0.00005535,-0.00246462,-0.00196705,0.00133831,0.0020310
 9,0.00275324,-0.00297323,-0.00054500,-0.00028767,-0.00298388,0.2066703
 8,-0.24292195,-0.01160995,-0.00418367,-0.00120212,0.00411999,-0.200046
 30,0.24000950,-0.00006698,0.00003542,0.00040869,-0.00257559,-0.0021015
 1,-0.00658395,0.00198431,-0.00184499,0.00020370,-0.03321856,0.03382105
 ,-0.00231880,-0.00049366,-0.00050666,0.00056876,0.00002677,-0.00027731
 ,-0.00045982,-0.00003870,0.00005681,0.00012691,-0.00131803,0.00138462,
 -0.00001425,0.00003914,0.00012870,-0.00001264,-0.00002690,-0.00007457,
 -0.00010897,-0.00004049,0.00010538,-0.00015124,-0.00002938,-0.00004456
 ,-0.00004338,0.00001925,0.00001772,0.00000888,0.00023118,-0.00000245,-
 0.00003160,-0.00002207,-0.00000719,0.00003465,0.00055870,-0.00033292,0
 .00038687,0.00004331,-0.00008800,0.00000824,-0.00016772,0.00000012,0.0
 0013611,0.00003270,0.00004651,0.00006724,0.00068153,0.00155863,-0.0015
 0272,0.00121109,-0.00341148,0.00181162,0.00015050,0.00035733,-0.000021
 50,0.02401862,-0.04100785,-0.04949537,-0.00007600,0.00777014,-0.004030
 78,0.01133164,0.01099085,0.06292412,0.00113866,0.00067378,0.00091795,-
 0.00125309,-0.00045821,-0.00044739,-0.00042730,-0.00723631,0.00025977,
 0.00956488,0.00728842,0.00276962,-0.00514618,-0.00184925,0.00228754,-0
 .00031022,0.00053113,-0.00008981,-0.00000294,-0.00020222,-0.00002542,-
 0.00028422,0.00015492,-0.00013102,-0.00001220,0.00028823,-0.00007249,0
 .00008517,-0.00031190,-0.00034182,-0.00058021,-0.00032425,-0.00068853,
 -0.00009362,-0.00000942,-0.00007462,0.00006468,0.00002262,0.00001501,0
 .00127695,0.00033121,0.00011650,-0.00024079,-0.00020740,-0.00005176,0.
 00012627,-0.00137203,0.00001942,-0.00005447,-0.00011438,-0.00009790,0.
 00030178,-0.00035748,-0.00001841,-0.00021276,0.00012632,0.00005204,-0.
 00063596,-0.00046998,-0.00068490,0.00060649,0.00044245,0.00013262,-0.0
 0047681,-0.00066937,0.00054893,-0.00542428,0.00172838,-0.00182498,-0.3
 8947059,-0.00611510,-0.12436481,0.00403289,-0.00569262,-0.00271675,0.4
 1193848,-0.00075898,-0.00045254,-0.00007495,0.00001805,-0.00057630,0.0
 0043116,-0.00540472,-0.00172841,0.00006884,0.00141052,-0.00753981,0.00
 061380,0.00300295,0.00333054,-0.00281271,0.00050925,-0.00013961,-0.000
 22139,-0.00006414,0.00003348,0.00006475,0.00000802,0.00009017,0.000018
 50,-0.00068242,-0.00053211,0.00069142,-0.00012032,0.00021562,0.0002728
 6,0.00014361,0.00019947,0.00100942,0.00000063,-0.00005547,-0.00017136,
 0.00012431,-0.00001048,0.00006114,-0.00101086,-0.00046964,-0.00027659,
 0.00006743,0.00023522,0.00008873,-0.00001365,0.00076026,0.00003569,-0.
 00001771,-0.00002979,0.00000625,-0.00065395,0.00009776,0.00004255,0.00
 026975,0.00005649,-0.00005457,-0.00024124,-0.00019243,0.00054268,0.000
 54315,0.00007472,-0.00088752,-0.00016644,-0.00024196,0.00036984,0.0011
 7075,0.00149623,0.00109170,-0.01085070,-0.01097268,-0.00944112,-0.0056
 8519,-0.00363484,-0.00444792,0.01514718,0.02051607,0.00126160,0.000203
 68,0.00044272,-0.00029172,-0.00004838,-0.00018007,-0.00087869,0.001518
 70,-0.00514104,0.00191323,0.00028340,0.00321462,0.00038561,-0.00266340
 ,0.00075057,-0.00004195,0.00000444,0.00010505,0.00002039,-0.00002495,-
 0.00003821,-0.00007666,0.00007057,-0.00004105,0.00062266,0.00037502,-0
 .00000847,-0.00000740,-0.00014085,-0.00019895,-0.00008502,0.00026628,-
 0.00010130,-0.00007114,-0.00009677,-0.00011090,-0.00008106,-0.00002720
 ,-0.00006028,0.00026808,0.00001462,-0.00011979,0.00002333,-0.00001367,
 0.00007355,0.00010873,-0.00019636,-0.00008113,-0.00002957,-0.00004082,
 0.00001926,-0.00001970,0.00004687,-0.00012254,0.00001263,-0.00000592,0
 .00001225,-0.00079336,0.00053101,-0.00030929,0.00036170,-0.00068179,-0
 .00023114,0.00012846,0.00033067,-0.00043308,-0.00048632,0.00148573,-0.
 00168709,-0.18527203,-0.01164973,-0.12661448,-0.00261964,-0.00336834,-
 0.00053498,0.14287886,0.01195136,0.11920644,0.00008418,0.00003147,0.00
 005178,0.00013893,0.00036619,-0.00014122,-0.00035745,0.00067112,-0.001
 20497,-0.00057903,-0.00002231,0.00040924,-0.00021927,-0.00023270,0.000
 10409,-0.00011703,-0.00002235,0.00005330,0.00001923,-0.00001691,-0.000
 02615,0.00000904,-0.00004317,0.00000153,0.00007649,0.00001466,0.000018
 68,0.00002471,-0.00002309,-0.00003062,-0.00017074,0.00000427,0.0000200
 3,-0.00001522,-0.00002417,-0.00003894,-0.00000134,-0.00000453,-0.00000
 854,0.00023149,0.00003525,-0.00004405,-0.00004607,-0.00002719,0.000008
 67,-0.00005675,-0.00020976,-0.00000599,0.00001915,0.00003634,0.0000020
 3,0.00019219,-0.00006306,-0.00002752,-0.00007568,-0.00000287,0.0000244
 7,0.00008712,-0.00000466,-0.00013953,-0.00016375,0.00000468,0.00018903
 ,0.00015465,0.00029292,-0.00029080,0.00102231,-0.00118779,-0.00011439,
 -0.22032835,0.01667668,0.18798146,-0.00097360,0.00276736,0.00051360,-0
 .02447650,0.00334245,0.04278499,0.24551240,-0.00010821,0.00002709,-0.0
 0007027,-0.00006894,-0.00015061,0.00039365,-0.00024499,-0.00022540,0.0
 0051963,0.00092624,0.00022999,-0.00179437,0.00032488,0.00013187,-0.000
 14007,0.00011090,0.00010949,-0.00008824,-0.00002599,0.00000178,0.00002
 674,0.00002302,-0.00001514,-0.00000742,-0.00004440,-0.00005849,0.00003
 777,-0.00001602,0.00000676,0.00003484,0.00005970,0.00008618,0.00011243
 ,-0.00000035,-0.00000968,-0.00003273,0.00001541,-0.00000483,0.00000284
 ,-0.00013503,-0.00008687,-0.00004279,0.00001887,0.00004978,0.00002680,
 -0.00007945,0.00004575,0.00004399,-0.00000277,-0.00001291,-0.00000725,
 -0.00021344,-0.00003366,0.00003356,0.00007271,0.00004749,-0.00002011,-
 0.00002611,-0.00008036,0.00009748,0.00002991,0.00008994,-0.00009183,-0
 .00000437,-0.00033991,0.00074040,0.00041856,-0.00340500,0.00085840,0.0
 2094105,-0.00764711,-0.03313279,0.00189293,0.00407943,-0.00213388,-0.0
 0143775,-0.00046322,0.00185373,-0.02239048,0.00764460,-0.00001023,0.00
 000155,-0.00002512,0.00008561,0.00006946,0.00005205,-0.00085049,0.0009
 1659,-0.00064797,-0.00015355,-0.00054983,0.00043556,0.00010692,0.00001
 195,-0.00007558,-0.00001198,-0.00001397,0.00002465,0.00000747,0.000000
 11,-0.00001194,-0.00000259,-0.00000492,-0.00000862,0.00004798,-0.00000
 654,-0.00001665,0.00000462,0.00000498,0.00000734,-0.00003949,0.0000179
 0,0.00006775,-0.00000047,-0.00002053,-0.00000852,-0.00000932,0.0000035
 6,0.00000027,0.00002194,-0.00000440,-0.00004182,0.00000010,-0.00000082
 ,0.00001062,-0.00001760,-0.00002118,-0.00003803,-0.00000075,0.00001236
 ,0.00001354,0.00002651,-0.00000839,-0.00001937,-0.00001207,-0.00000206
 ,0.00000665,0.00002957,-0.00003763,0.00000078,-0.00006041,0.00007078,0
 .00001417,0.00007640,0.00010553,-0.00002665,-0.00054940,0.00029618,0.0
 0021821,0.24879618,-0.03494904,-0.32639152,0.00098254,0.00033685,-0.00
 139046,-0.01838094,0.00099864,0.01218229,-0.23008751,0.03276638,0.3156
 6806,0.00167686,0.00057300,0.00004752,-0.00028563,0.00103299,-0.000822
 26,-0.00086758,0.00027877,0.00034051,0.00050990,-0.00034791,0.00037745
 ,0.00052971,-0.00071259,-0.00034328,0.00354800,-0.00176521,0.00331168,
 -0.00079634,0.00004274,-0.00046441,0.00010676,-0.00004306,-0.00018846,
 -0.00008521,0.00021893,0.00003559,-0.00188443,0.00014776,0.00015622,0.
 00111998,0.00008883,-0.00038282,-0.00034877,0.00014927,0.00024367,0.00
 008626,-0.00022357,-0.00053183,-0.00113463,0.00668008,0.00247337,-0.00
 126463,0.00014873,0.00105609,-0.00073304,-0.00074828,0.00032750,0.0003
 5043,0.00042084,-0.00015478,-0.01382477,-0.00816332,0.00330150,-0.0011
 7171,0.00559979,0.00155322,-0.00158870,0.00044334,-0.00105335,0.000383
 34,-0.00005448,-0.00012780,-0.00026523,0.00014146,0.00004096,-0.000788
 69,0.00018208,-0.00018782,-0.00040558,0.00043008,-0.00003585,0.0003407
 0,-0.00025994,-0.00001664,0.00036229,-0.00034045,0.00002163,0.00011117
 ,-0.00008130,0.00001916,0.38630400,-0.00085493,-0.00142915,0.00005706,
 -0.00086045,0.00068065,-0.00069251,0.00162973,0.00131783,-0.00010451,-
 0.00054405,-0.00191494,0.00010413,-0.00071322,-0.00001391,-0.00048917,
 0.00326543,-0.00291600,0.00372963,-0.00056443,0.00024418,-0.00043904,0
 .00014489,-0.00009712,-0.00014617,-0.00008530,0.00031447,-0.00003242,0
 .00018856,0.00012917,-0.00052654,-0.00390752,-0.00430695,0.00160842,0.
 00140384,0.00054015,-0.00052916,0.00021478,-0.00006517,-0.00052063,0.0
 0986006,-0.00513247,-0.00448853,0.00073819,-0.00007072,-0.00126072,-0.
 00026978,0.00019113,0.00018448,0.00033194,0.00018615,-0.00011579,-0.01
 364073,0.00111821,0.00076130,0.00902994,-0.00545252,0.00181275,0.00050
 299,0.00132311,0.00002471,0.00004085,-0.00038908,0.00016461,-0.0001100
 5,0.00030409,-0.00001581,0.00002118,0.00060729,0.00005770,0.00010221,0
 .00018048,0.00003035,-0.00001975,-0.00019808,-0.00005621,-0.00014833,-
 0.00004930,-0.00001166,-0.00001734,-0.00004361,-0.00000101,-0.24170855
 ,0.40175787,0.00090248,0.00049438,-0.00082252,0.00023287,-0.00053362,0
 .00016791,0.00036961,0.00034226,0.00043139,-0.00024370,0.00002136,-0.0
 0044111,-0.00059488,-0.00040985,-0.00052388,-0.00116535,0.00153225,-0.
 00167512,0.00059828,-0.00001930,0.00033885,-0.00011121,0.00000780,0.00
 019009,0.00010852,-0.00003586,0.00005474,-0.00072374,-0.00032234,0.000
 14924,-0.00159291,-0.00055831,0.00027775,0.00042038,-0.00001748,-0.000
 01715,-0.00049588,0.00001787,0.00034504,0.00282182,-0.00355750,0.00287
 469,0.00168213,-0.00089834,-0.00170474,0.00015287,0.00023250,0.0000731
 7,-0.00011902,-0.00013335,-0.00004535,0.00564346,0.00171304,0.00417712
 ,-0.00160087,-0.00065134,-0.00766947,-0.00045665,-0.00019552,0.0006206
 8,0.00003644,0.00009251,-0.00024993,0.00007703,-0.00002690,0.00001697,
 0.00022845,-0.00007810,0.00038194,0.00012806,-0.00010348,0.00005674,-0
 .00007899,0.00005063,-0.00002469,-0.00012927,0.00009112,-0.00003931,-0
 .00004293,0.00002246,-0.00001426,0.16253729,0.10174301,0.31583422,0.00
 068991,0.00037454,-0.00034681,0.00001466,-0.00020366,0.00003108,0.0001
 1462,0.00004666,0.00009958,-0.00010481,0.00008729,-0.00013239,-0.00019
 153,-0.00015770,-0.00005798,-0.00073000,0.00044893,-0.00050729,0.00018
 869,-0.00001991,0.00014332,-0.00003208,0.00001087,0.00006338,0.0000464
 3,-0.00002049,0.00002324,-0.00075746,-0.00007499,0.00020102,-0.0002306
 5,0.00015411,-0.00003604,0.00007696,-0.00008879,0.00001459,-0.00017286
 ,-0.00000084,0.00011862,0.00020018,-0.00011112,0.00026123,0.00024618,-
 0.00002941,0.00000141,0.00010199,0.00009249,0.00000304,-0.00006813,-0.
 00006426,0.00000560,0.00159218,-0.00083271,0.00132967,-0.00353964,0.00
 089307,-0.00265203,-0.00015454,-0.00018544,0.00016482,-0.00003203,0.00
 004569,-0.00008398,0.00003619,-0.00002269,-0.00000254,0.00012959,-0.00
 005873,0.00011082,0.00007038,-0.00007480,0.00001328,-0.00005214,0.0000
 4549,-0.00000102,-0.00006285,0.00005601,-0.00000801,-0.00002222,0.0000
 1594,-0.00000551,-0.28843538,0.13450163,-0.19652077,0.30352169,0.00018
 562,0.00034108,0.00001159,0.00004480,0.00006680,-0.00000136,-0.0002217
 5,-0.00011957,0.00007024,0.00008190,0.00019717,0.00000692,0.00002892,-
 0.00007210,-0.00003394,0.00013354,0.00017012,-0.00013816,0.00001189,-0
 .00000959,0.00001209,-0.00001608,0.00000938,-0.00000355,-0.00000790,-0
 .00001763,0.00000302,0.00008253,-0.00030199,0.00012741,0.00019697,0.00
 006555,-0.00020858,0.00001062,0.00001960,-0.00000823,0.00003919,0.0000
 4922,0.00000886,-0.00001325,-0.00111729,-0.00117535,0.00004391,0.00007
 287,0.00004282,-0.00004165,-0.00012697,0.00001479,-0.00002203,0.000032
 62,-0.00000565,-0.00067799,-0.00182990,0.00151900,-0.00043763,0.003328
 02,-0.00275657,-0.00014974,-0.00011990,-0.00003939,0.00002481,0.000044
 91,-0.00003084,-0.00001156,-0.00001819,0.00000534,-0.00005669,-0.00006
 965,-0.00000377,-0.00003725,-0.00000758,-0.00000440,0.00002369,0.00001
 522,0.00000461,0.00003775,-0.00000720,0.00000048,0.00000983,0.00000479
 ,0.00000138,0.10410995,-0.08030640,0.04805791,-0.13559534,0.08950374,0
 .00031330,0.00006324,0.00014058,0.00008283,0.00006443,0.00000085,-0.00
 010720,0.00001781,0.00003072,0.00010879,0.00000789,0.00004860,-0.00003
 587,-0.00001985,-0.00003568,0.00008088,-0.00005493,0.00007318,-0.00008
 733,0.00000243,-0.00006168,0.00001207,-0.00000919,-0.00002557,-0.00003
 513,0.00001609,-0.00002632,0.00005487,-0.00013486,-0.00010373,-0.00013
 716,-0.00030076,0.00014136,0.00006558,0.00005701,-0.00004229,0.0001398
 1,0.00004650,-0.00001510,0.00067924,-0.00082546,-0.00111843,-0.0001358
 0,-0.00003244,0.00001781,-0.00007524,-0.00009803,-0.00001390,0.0000183
 9,0.00003906,0.00002417,0.00029086,0.00053203,-0.00081514,-0.00001508,
 -0.00061376,0.00078123,-0.00009637,0.00003120,-0.00015080,0.00004531,0
 .00001183,0.00001768,-0.00001287,0.00000244,0.00000058,-0.00009190,0.0
 0001237,-0.00005206,-0.00004796,0.00004351,-0.00001296,0.00003627,-0.0
 0002336,0.00000419,0.00004368,-0.00003661,0.00000894,0.00001529,-0.000
 00863,0.00000555,-0.23198489,0.08565371,-0.18394531,0.21264998,-0.0740
 8952,0.17436766,-0.00155022,-0.00057099,-0.00052904,-0.00040490,-0.000
 13954,0.00000423,0.00166074,0.00075629,-0.00012013,-0.00072354,-0.0010
 4528,-0.00025315,-0.00152587,0.00031031,-0.00013574,0.00014398,-0.0010
 7935,0.00028150,0.00009455,0.00022634,0.00004020,0.00002948,-0.0000382
 2,0.00003248,0.00005388,0.00005532,-0.00004987,-0.00048868,-0.00046818
 ,-0.00171017,-0.00552294,-0.00108129,0.00280786,0.00119353,-0.00005307
 ,-0.00055212,0.00015747,0.00007166,0.00014397,-0.00173930,-0.00265401,
 0.00008855,0.00201133,-0.00012279,-0.00207210,0.00026509,0.00054857,-0
 .00005824,0.00001420,-0.00010519,0.00002094,-0.00274865,0.00163056,0.0
 0120057,0.00531295,-0.00310536,-0.00271050,0.00119165,0.00057891,0.000
 77892,-0.00017091,-0.00020739,0.00015789,0.00008460,0.00012515,-0.0000
 3016,0.00049244,0.00026039,0.00023341,0.00032206,-0.00017084,0.0000516
 5,-0.00022115,0.00004245,-0.00003385,-0.00033357,0.00019673,-0.0000296
 1,-0.00008003,0.00002949,-0.00001269,-0.08154909,0.10146820,0.02793649
 ,-0.01244333,0.03222294,0.01822564,0.09647421,-0.00094733,0.00037512,0
 .00059553,0.00011780,-0.00005386,0.00035951,-0.00173991,-0.00158894,-0
 .00043658,0.00048427,0.00158679,0.00029275,0.00087528,0.00039647,0.001
 27385,-0.00274657,0.00100123,-0.00140426,0.00037424,-0.00021057,0.0002
 7522,-0.00009624,0.00006141,-0.00001895,0.00013786,-0.00029845,0.00008
 676,0.00008920,0.00110663,-0.00005612,0.00545447,0.00740867,-0.0022433
 3,-0.00242566,-0.00069063,0.00088749,-0.00075462,-0.00009711,0.0007635
 8,-0.00536944,-0.00673030,0.00236182,-0.00068035,-0.00107569,0.0006662
 6,0.00020079,-0.00018945,-0.00017572,-0.00017752,-0.00011035,0.0000729
 6,0.00474778,0.00133509,0.00005945,-0.00482594,-0.00619522,-0.00107255
 ,0.00048820,-0.00091350,-0.00028469,-0.00008602,0.00020663,0.00015543,
 0.00002715,-0.00023063,0.00000301,-0.00013386,-0.00045655,-0.00036009,
 -0.00016059,-0.00009259,-0.00005872,0.00005790,0.00013979,0.00005962,0
 .00020359,-0.00001024,0.00003329,0.00003913,0.00002185,0.00000610,0.13
 376003,-0.30650936,-0.14687780,0.00076816,-0.00979714,-0.01035414,-0.1
 2768181,0.32161089,-0.00150721,0.00003100,0.00077261,-0.00004482,0.000
 22398,0.00023833,-0.00065894,-0.00071969,-0.00054183,0.00024173,0.0004
 8325,0.00032603,0.00051464,0.00052388,0.00101902,0.00051520,-0.0003283
 9,-0.00000342,-0.00010113,-0.00004031,-0.00008113,0.00002918,0.0000138
 3,-0.00014418,-0.00008062,-0.00003921,-0.00004482,-0.00087499,0.000072
 19,-0.00055577,0.00307623,0.00116862,-0.00158598,-0.00066111,-0.000005
 85,0.00009076,0.00044263,0.00004524,-0.00022969,0.00119289,-0.00040474
 ,-0.00702055,-0.00337878,0.00201950,0.00286300,0.00006817,-0.00007938,
 -0.00017557,-0.00001337,0.00000256,0.00006372,0.00047230,-0.00025199,-
 0.00109656,-0.00165651,0.00006048,0.00130946,0.00070963,-0.00010391,-0
 .00031264,-0.00012021,-0.00001991,0.00023881,-0.00000498,-0.00007219,-
 0.00001768,-0.00009323,-0.00008369,-0.00035457,-0.00007739,-0.00000335
 ,-0.00005367,0.00002331,0.00003328,0.00003517,0.00009888,-0.00002570,0
 .00003742,0.00002497,-0.00000070,0.00000902,0.06045080,-0.18650200,-0.
 12881769,-0.01488032,0.02861285,0.01075589,-0.04370695,0.15539034,0.12
 327654\\0.00001192,0.00000440,0.00002149,0.00000476,-0.00000346,-0.000
 01113,0.00001010,-0.00005037,0.00002666,-0.00002250,0.00002593,-0.0000
 1607,-0.00003819,0.00000964,-0.00001043,0.00000674,-0.00000463,0.00000
 503,0.00000099,0.00000873,-0.00000805,-0.00000181,-0.00000493,-0.00000
 693,0.00000177,-0.00000015,-0.00000007,-0.00000015,0.00001010,0.000002
 98,0.00002834,-0.00000046,-0.00000547,-0.00000343,-0.00000515,0.000006
 98,-0.00000881,-0.00000778,0.00000034,-0.00001304,0.00000505,0.0000247
 4,0.00000586,-0.00000238,-0.00000322,-0.00000351,-0.00000715,-0.000016
 27,0.00000068,-0.00000205,-0.00000205,0.00000506,0.00001593,-0.0000062
 5,0.00000946,-0.00000865,-0.00000934,-0.00001516,-0.00000673,-0.000012
 33,-0.00000175,0.00001114,0.00000124,0.00000205,-0.00001051,0.00000411
 ,0.00002032,0.00003963,0.00001697,0.00004830,0.00000281,0.00000431,-0.
 00001304,-0.00003088,0.00000123,-0.00003027,0.00001711,-0.00001221,-0.
 00000125,-0.00001832,0.00000585,0.00001048,0.00000941,-0.00000701,-0.0
 0000122,0.,-0.00000020,-0.00001270,0.00000371,0.00000507\\\@


 ... THIS SEEMS PLAINLY ABSURD; BUT WHOEVER WISHES TO BECOME A 
 PHILOSOPHER MUST LEARN NOT TO BE FRIGHTENED BY ABSURDITIES.

                          -- BERTRAND RUSSELL
 Job cpu time:       0 days  0 hours 36 minutes 41.3 seconds.
 File lengths (MBytes):  RWF=    221 Int=      0 D2E=      0 Chk=      6 Scr=      1
 Normal termination of Gaussian 09 at Sun Jan 15 12:42:40 2017.
