 Entering Gaussian System, Link 0=g09
 Initial command:
 /global/software/gaussian/g09.e01/l1.exe "/scratch/10462930.yak.local/Gau-7760.inp" -scrdir="/scratch/10462930.yak.local/"
 Entering Link 1 = /global/software/gaussian/g09.e01/l1.exe PID=      7767.
  
 Copyright (c) 1988,1990,1992,1993,1995,1998,2003,2009,2015,
            Gaussian, Inc.  All Rights Reserved.
  
 This is part of the Gaussian(R) 09 program.  It is based on
 the Gaussian(R) 03 system (copyright 2003, Gaussian, Inc.),
 the Gaussian(R) 98 system (copyright 1998, Gaussian, Inc.),
 the Gaussian(R) 94 system (copyright 1995, Gaussian, Inc.),
 the Gaussian 92(TM) system (copyright 1992, Gaussian, Inc.),
 the Gaussian 90(TM) system (copyright 1990, Gaussian, Inc.),
 the Gaussian 88(TM) system (copyright 1988, Gaussian, Inc.),
 the Gaussian 86(TM) system (copyright 1986, Carnegie Mellon
 University), and the Gaussian 82(TM) system (copyright 1983,
 Carnegie Mellon University). Gaussian is a federally registered
 trademark of Gaussian, Inc.
  
 This software contains proprietary and confidential information,
 including trade secrets, belonging to Gaussian, Inc.
  
 This software is provided under written license and may be
 used, copied, transmitted, or stored only in accord with that
 written license.
  
 The following legend is applicable only to US Government
 contracts under FAR:
  
                    RESTRICTED RIGHTS LEGEND
  
 Use, reproduction and disclosure by the US Government is
 subject to restrictions as set forth in subparagraphs (a)
 and (c) of the Commercial Computer Software - Restricted
 Rights clause in FAR 52.227-19.
  
 Gaussian, Inc.
 340 Quinnipiac St., Bldg. 40, Wallingford CT 06492
  
  
 ---------------------------------------------------------------
 Warning -- This program may not be used in any manner that
 competes with the business of Gaussian, Inc. or will provide
 assistance to any competitor of Gaussian, Inc.  The licensee
 of this program is prohibited from giving any competitor of
 Gaussian, Inc. access to this program.  By using this program,
 the user acknowledges that Gaussian, Inc. is engaged in the
 business of creating and licensing software in the field of
 computational chemistry and represents and warrants to the
 licensee that it is not a competitor of Gaussian, Inc. and that
 it will not use this program in any manner prohibited above.
 ---------------------------------------------------------------
  

 Cite this work as:
 Gaussian 09, Revision E.01,
 M. J. Frisch, G. W. Trucks, H. B. Schlegel, G. E. Scuseria, 
 M. A. Robb, J. R. Cheeseman, G. Scalmani, V. Barone, B. Mennucci, 
 G. A. Petersson, H. Nakatsuji, M. Caricato, X. Li, H. P. Hratchian, 
 A. F. Izmaylov, J. Bloino, G. Zheng, J. L. Sonnenberg, M. Hada, 
 M. Ehara, K. Toyota, R. Fukuda, J. Hasegawa, M. Ishida, T. Nakajima, 
 Y. Honda, O. Kitao, H. Nakai, T. Vreven, J. A. Montgomery, Jr., 
 J. E. Peralta, F. Ogliaro, M. Bearpark, J. J. Heyd, E. Brothers, 
 K. N. Kudin, V. N. Staroverov, T. Keith, R. Kobayashi, J. Normand, 
 K. Raghavachari, A. Rendell, J. C. Burant, S. S. Iyengar, J. Tomasi, 
 M. Cossi, N. Rega, J. M. Millam, M. Klene, J. E. Knox, J. B. Cross, 
 V. Bakken, C. Adamo, J. Jaramillo, R. Gomperts, R. E. Stratmann, 
 O. Yazyev, A. J. Austin, R. Cammi, C. Pomelli, J. W. Ochterski, 
 R. L. Martin, K. Morokuma, V. G. Zakrzewski, G. A. Voth, 
 P. Salvador, J. J. Dannenberg, S. Dapprich, A. D. Daniels, 
 O. Farkas, J. B. Foresman, J. V. Ortiz, J. Cioslowski, 
 and D. J. Fox, Gaussian, Inc., Wallingford CT, 2013.
 
 ******************************************
 Gaussian 09:  ES64L-G09RevE.01 30-Nov-2015
                15-Jan-2017 
 ******************************************
 %NPROCS=4
 Will use up to    4 processors via shared memory.
 -----------------------------------------
 # opt=(MaxCycle=1000) freq B3LYP/6-31G(d)
 -----------------------------------------
 1/6=1000,14=-1,18=20,19=15,26=3,38=1/1,3;
 2/9=110,12=2,17=6,18=5,40=1/2;
 3/5=1,6=6,7=1,11=2,16=1,25=1,30=1,71=1,74=-5/1,2,3;
 4//1;
 5/5=2,38=5/2;
 6/7=2,8=2,9=2,10=2,28=1/1;
 7//1,2,3,16;
 1/6=1000,14=-1,18=20,19=15,26=3/3(2);
 2/9=110/2;
 99//99;
 2/9=110/2;
 3/5=1,6=6,7=1,11=2,16=1,25=1,30=1,71=1,74=-5/1,2,3;
 4/5=5,16=3,69=1/1;
 5/5=2,38=5/2;
 7//1,2,3,16;
 1/6=1000,14=-1,18=20,19=15,26=3/3(-5);
 2/9=110/2;
 6/7=2,8=2,9=2,10=2,19=2,28=1/1;
 99/9=1/99;
 -----------------------------------------------
 ./boats/3/glo_1w_alpha_ts_boat3_B3LYP_631Gd.out
 -----------------------------------------------
 Symbolic Z-matrix:
 Charge =  0 Multiplicity = 1
 C                    -0.48101  -0.1981    0.93722 
 C                     0.68602   1.45881  -0.67899 
 O                     1.02863  -1.03599  -0.85543 
 C                     1.88672   0.53856  -0.53784 
 C                    -0.20178  -1.27411  -0.12997 
 C                    -0.42601   1.24534   0.37067 
 H                    -0.21516   1.89784   1.23027 
 H                     0.23485   1.26569  -1.66306 
 H                    -0.08476  -2.22946   0.39953 
 H                    -1.49519  -0.37614   1.30903 
 C                    -1.28323  -1.40574  -1.20589 
 H                    -0.95117  -2.12738  -1.96365 
 H                    -1.46165  -0.44415  -1.68871 
 O                    -2.54576  -1.79643  -0.65591 
 H                    -2.43715  -2.64562  -0.19908 
 O                     1.23862   2.76623  -0.63562 
 H                     0.50166   3.38017  -0.78658 
 O                    -1.6219    1.63801  -0.29469 
 H                    -2.40497   1.35893   0.2325 
 O                     0.36354  -0.35595   2.06007 
 H                     1.24725  -0.01868   1.79337 
 H                     2.45989   0.43829  -1.47496 
 O                     2.49622   0.42633   0.56256 
 O                     3.02156  -1.97031   0.24221 
 H                     3.12467  -1.00845   0.52843 
 H                     1.78171  -1.63353  -0.48991 
 H                     3.77282  -2.16396  -0.33922 
 O                    -3.85869   0.31595   0.68309 
 H                    -4.62448   0.63075   0.17936 
 H                    -3.54149  -0.47513   0.19556 
 
 Add virtual bond connecting atoms O23        and H25        Dist= 2.96D+00.
 Add virtual bond connecting atoms H26        and O24        Dist= 2.79D+00.
 Add virtual bond connecting atoms O28        and H19        Dist= 3.49D+00.
 Add virtual bond connecting atoms H30        and O14        Dist= 3.52D+00.

 GradGradGradGradGradGradGradGradGradGradGradGradGradGradGradGradGradGrad
 Berny optimization.
 Initialization pass.
                           ----------------------------
                           !    Initial Parameters    !
                           ! (Angstroms and Degrees)  !
 --------------------------                            --------------------------
 ! Name  Definition              Value          Derivative Info.                !
 --------------------------------------------------------------------------------
 ! R1    R(1,5)                  1.541          estimate D2E/DX2                !
 ! R2    R(1,6)                  1.5516         estimate D2E/DX2                !
 ! R3    R(1,10)                 1.0948         estimate D2E/DX2                !
 ! R4    R(1,20)                 1.4139         estimate D2E/DX2                !
 ! R5    R(2,4)                  1.5194         estimate D2E/DX2                !
 ! R6    R(2,6)                  1.544          estimate D2E/DX2                !
 ! R7    R(2,8)                  1.0997         estimate D2E/DX2                !
 ! R8    R(2,16)                 1.4201         estimate D2E/DX2                !
 ! R9    R(3,5)                  1.4481         estimate D2E/DX2                !
 ! R10   R(3,26)                 1.0285         estimate D2E/DX2                !
 ! R11   R(4,22)                 1.1031         estimate D2E/DX2                !
 ! R12   R(4,23)                 1.2629         estimate D2E/DX2                !
 ! R13   R(5,9)                  1.0985         estimate D2E/DX2                !
 ! R14   R(5,11)                 1.5312         estimate D2E/DX2                !
 ! R15   R(6,7)                  1.0996         estimate D2E/DX2                !
 ! R16   R(6,18)                 1.4237         estimate D2E/DX2                !
 ! R17   R(11,12)                1.0978         estimate D2E/DX2                !
 ! R18   R(11,13)                1.0907         estimate D2E/DX2                !
 ! R19   R(11,14)                1.4315         estimate D2E/DX2                !
 ! R20   R(14,15)                0.9704         estimate D2E/DX2                !
 ! R21   R(14,30)                1.8607         estimate D2E/DX2                !
 ! R22   R(16,17)                0.971          estimate D2E/DX2                !
 ! R23   R(18,19)                0.9844         estimate D2E/DX2                !
 ! R24   R(19,28)                1.845          estimate D2E/DX2                !
 ! R25   R(20,21)                0.9828         estimate D2E/DX2                !
 ! R26   R(23,25)                1.5668         estimate D2E/DX2                !
 ! R27   R(24,25)                1.0088         estimate D2E/DX2                !
 ! R28   R(24,26)                1.4787         estimate D2E/DX2                !
 ! R29   R(24,27)                0.9695         estimate D2E/DX2                !
 ! R30   R(28,29)                0.9692         estimate D2E/DX2                !
 ! R31   R(28,30)                0.9819         estimate D2E/DX2                !
 ! A1    A(5,1,6)              112.9721         estimate D2E/DX2                !
 ! A2    A(5,1,10)             106.8286         estimate D2E/DX2                !
 ! A3    A(5,1,20)             111.3337         estimate D2E/DX2                !
 ! A4    A(6,1,10)             107.947          estimate D2E/DX2                !
 ! A5    A(6,1,20)             111.8804         estimate D2E/DX2                !
 ! A6    A(10,1,20)            105.3962         estimate D2E/DX2                !
 ! A7    A(4,2,6)              114.978          estimate D2E/DX2                !
 ! A8    A(4,2,8)              107.5176         estimate D2E/DX2                !
 ! A9    A(4,2,16)             104.3164         estimate D2E/DX2                !
 ! A10   A(6,2,8)              106.7738         estimate D2E/DX2                !
 ! A11   A(6,2,16)             112.755          estimate D2E/DX2                !
 ! A12   A(8,2,16)             110.4062         estimate D2E/DX2                !
 ! A13   A(5,3,26)             110.4002         estimate D2E/DX2                !
 ! A14   A(2,4,22)             112.7533         estimate D2E/DX2                !
 ! A15   A(2,4,23)             121.0751         estimate D2E/DX2                !
 ! A16   A(22,4,23)            118.7755         estimate D2E/DX2                !
 ! A17   A(1,5,3)              112.7116         estimate D2E/DX2                !
 ! A18   A(1,5,9)              107.0224         estimate D2E/DX2                !
 ! A19   A(1,5,11)             114.751          estimate D2E/DX2                !
 ! A20   A(3,5,9)              107.096          estimate D2E/DX2                !
 ! A21   A(3,5,11)             105.2027         estimate D2E/DX2                !
 ! A22   A(9,5,11)             109.8266         estimate D2E/DX2                !
 ! A23   A(1,6,2)              113.7268         estimate D2E/DX2                !
 ! A24   A(1,6,7)              105.8656         estimate D2E/DX2                !
 ! A25   A(1,6,18)             113.418          estimate D2E/DX2                !
 ! A26   A(2,6,7)              108.1377         estimate D2E/DX2                !
 ! A27   A(2,6,18)             104.4256         estimate D2E/DX2                !
 ! A28   A(7,6,18)             111.2682         estimate D2E/DX2                !
 ! A29   A(5,11,12)            109.1409         estimate D2E/DX2                !
 ! A30   A(5,11,13)            110.5366         estimate D2E/DX2                !
 ! A31   A(5,11,14)            112.1125         estimate D2E/DX2                !
 ! A32   A(12,11,13)           108.8722         estimate D2E/DX2                !
 ! A33   A(12,11,14)           110.644          estimate D2E/DX2                !
 ! A34   A(13,11,14)           105.4516         estimate D2E/DX2                !
 ! A35   A(11,14,15)           108.7238         estimate D2E/DX2                !
 ! A36   A(11,14,30)           116.9994         estimate D2E/DX2                !
 ! A37   A(15,14,30)           117.7677         estimate D2E/DX2                !
 ! A38   A(2,16,17)            106.3815         estimate D2E/DX2                !
 ! A39   A(6,18,19)            109.8592         estimate D2E/DX2                !
 ! A40   A(18,19,28)           156.6112         estimate D2E/DX2                !
 ! A41   A(1,20,21)            106.4571         estimate D2E/DX2                !
 ! A42   A(4,23,25)            104.8319         estimate D2E/DX2                !
 ! A43   A(25,24,26)            90.5167         estimate D2E/DX2                !
 ! A44   A(25,24,27)           106.3432         estimate D2E/DX2                !
 ! A45   A(26,24,27)           113.4706         estimate D2E/DX2                !
 ! A46   A(23,25,24)           146.9629         estimate D2E/DX2                !
 ! A47   A(3,26,24)            157.2512         estimate D2E/DX2                !
 ! A48   A(19,28,29)           108.1811         estimate D2E/DX2                !
 ! A49   A(19,28,30)            94.5681         estimate D2E/DX2                !
 ! A50   A(29,28,30)           105.0038         estimate D2E/DX2                !
 ! A51   L(14,30,28,1,-1)      166.8241         estimate D2E/DX2                !
 ! A52   L(14,30,28,1,-2)      176.7583         estimate D2E/DX2                !
 ! D1    D(6,1,5,3)             52.527          estimate D2E/DX2                !
 ! D2    D(6,1,5,9)            170.0062         estimate D2E/DX2                !
 ! D3    D(6,1,5,11)           -67.8705         estimate D2E/DX2                !
 ! D4    D(10,1,5,3)           171.0732         estimate D2E/DX2                !
 ! D5    D(10,1,5,9)           -71.4475         estimate D2E/DX2                !
 ! D6    D(10,1,5,11)           50.6758         estimate D2E/DX2                !
 ! D7    D(20,1,5,3)           -74.3505         estimate D2E/DX2                !
 ! D8    D(20,1,5,9)            43.1287         estimate D2E/DX2                !
 ! D9    D(20,1,5,11)          165.252          estimate D2E/DX2                !
 ! D10   D(5,1,6,2)            -38.2623         estimate D2E/DX2                !
 ! D11   D(5,1,6,7)           -156.8451         estimate D2E/DX2                !
 ! D12   D(5,1,6,18)            80.8758         estimate D2E/DX2                !
 ! D13   D(10,1,6,2)          -156.1559         estimate D2E/DX2                !
 ! D14   D(10,1,6,7)            85.2613         estimate D2E/DX2                !
 ! D15   D(10,1,6,18)          -37.0178         estimate D2E/DX2                !
 ! D16   D(20,1,6,2)            88.3251         estimate D2E/DX2                !
 ! D17   D(20,1,6,7)           -30.2577         estimate D2E/DX2                !
 ! D18   D(20,1,6,18)         -152.5369         estimate D2E/DX2                !
 ! D19   D(5,1,20,21)           76.1193         estimate D2E/DX2                !
 ! D20   D(6,1,20,21)          -51.3524         estimate D2E/DX2                !
 ! D21   D(10,1,20,21)        -168.4178         estimate D2E/DX2                !
 ! D22   D(6,2,4,22)           158.1543         estimate D2E/DX2                !
 ! D23   D(6,2,4,23)           -52.2793         estimate D2E/DX2                !
 ! D24   D(8,2,4,22)            39.4107         estimate D2E/DX2                !
 ! D25   D(8,2,4,23)          -171.0229         estimate D2E/DX2                !
 ! D26   D(16,2,4,22)          -77.841          estimate D2E/DX2                !
 ! D27   D(16,2,4,23)           71.7254         estimate D2E/DX2                !
 ! D28   D(4,2,6,1)            -27.0195         estimate D2E/DX2                !
 ! D29   D(4,2,6,7)             90.2526         estimate D2E/DX2                !
 ! D30   D(4,2,6,18)          -151.1671         estimate D2E/DX2                !
 ! D31   D(8,2,6,1)             92.1389         estimate D2E/DX2                !
 ! D32   D(8,2,6,7)           -150.589          estimate D2E/DX2                !
 ! D33   D(8,2,6,18)           -32.0086         estimate D2E/DX2                !
 ! D34   D(16,2,6,1)          -146.4394         estimate D2E/DX2                !
 ! D35   D(16,2,6,7)           -29.1673         estimate D2E/DX2                !
 ! D36   D(16,2,6,18)           89.413          estimate D2E/DX2                !
 ! D37   D(4,2,16,17)          176.1013         estimate D2E/DX2                !
 ! D38   D(6,2,16,17)          -58.4742         estimate D2E/DX2                !
 ! D39   D(8,2,16,17)           60.8628         estimate D2E/DX2                !
 ! D40   D(26,3,5,1)           100.5062         estimate D2E/DX2                !
 ! D41   D(26,3,5,9)           -16.9296         estimate D2E/DX2                !
 ! D42   D(26,3,5,11)         -133.7568         estimate D2E/DX2                !
 ! D43   D(5,3,26,24)         -106.9195         estimate D2E/DX2                !
 ! D44   D(2,4,23,25)          152.9676         estimate D2E/DX2                !
 ! D45   D(22,4,23,25)         -59.236          estimate D2E/DX2                !
 ! D46   D(1,5,11,12)          174.895          estimate D2E/DX2                !
 ! D47   D(1,5,11,13)           55.1828         estimate D2E/DX2                !
 ! D48   D(1,5,11,14)          -62.1593         estimate D2E/DX2                !
 ! D49   D(3,5,11,12)           50.4338         estimate D2E/DX2                !
 ! D50   D(3,5,11,13)          -69.2784         estimate D2E/DX2                !
 ! D51   D(3,5,11,14)          173.3795         estimate D2E/DX2                !
 ! D52   D(9,5,11,12)          -64.5149         estimate D2E/DX2                !
 ! D53   D(9,5,11,13)          175.7729         estimate D2E/DX2                !
 ! D54   D(9,5,11,14)           58.4308         estimate D2E/DX2                !
 ! D55   D(1,6,18,19)           43.8403         estimate D2E/DX2                !
 ! D56   D(2,6,18,19)          168.1857         estimate D2E/DX2                !
 ! D57   D(7,6,18,19)          -75.3875         estimate D2E/DX2                !
 ! D58   D(5,11,14,15)         -58.7283         estimate D2E/DX2                !
 ! D59   D(5,11,14,30)          77.7232         estimate D2E/DX2                !
 ! D60   D(12,11,14,15)         63.3643         estimate D2E/DX2                !
 ! D61   D(12,11,14,30)       -160.1843         estimate D2E/DX2                !
 ! D62   D(13,11,14,15)       -179.0707         estimate D2E/DX2                !
 ! D63   D(13,11,14,30)        -42.6193         estimate D2E/DX2                !
 ! D64   D(11,14,28,19)         -0.0541         estimate D2E/DX2                !
 ! D65   D(11,14,28,29)        108.1488         estimate D2E/DX2                !
 ! D66   D(15,14,28,19)        129.0123         estimate D2E/DX2                !
 ! D67   D(15,14,28,29)       -122.7848         estimate D2E/DX2                !
 ! D68   D(6,18,19,28)        -102.3694         estimate D2E/DX2                !
 ! D69   D(18,19,28,29)        -85.7017         estimate D2E/DX2                !
 ! D70   D(18,19,28,30)         21.7316         estimate D2E/DX2                !
 ! D71   D(4,23,25,24)         -35.9937         estimate D2E/DX2                !
 ! D72   D(26,24,25,23)          6.4967         estimate D2E/DX2                !
 ! D73   D(27,24,25,23)        121.1868         estimate D2E/DX2                !
 ! D74   D(25,24,26,3)           1.22           estimate D2E/DX2                !
 ! D75   D(27,24,26,3)        -106.8814         estimate D2E/DX2                !
 --------------------------------------------------------------------------------
 Trust Radius=3.00D-01 FncErr=1.00D-07 GrdErr=1.00D-06
 Number of steps in this run=    180 maximum allowed number of steps=    180.
 GradGradGradGradGradGradGradGradGradGradGradGradGradGradGradGradGradGrad

                          Input orientation:                          
 ---------------------------------------------------------------------
 Center     Atomic      Atomic             Coordinates (Angstroms)
 Number     Number       Type             X           Y           Z
 ---------------------------------------------------------------------
      1          6           0       -0.481010   -0.198100    0.937220
      2          6           0        0.686020    1.458810   -0.678990
      3          8           0        1.028630   -1.035990   -0.855430
      4          6           0        1.886720    0.538560   -0.537840
      5          6           0       -0.201780   -1.274110   -0.129970
      6          6           0       -0.426010    1.245340    0.370670
      7          1           0       -0.215160    1.897840    1.230270
      8          1           0        0.234850    1.265690   -1.663060
      9          1           0       -0.084760   -2.229460    0.399530
     10          1           0       -1.495190   -0.376140    1.309030
     11          6           0       -1.283230   -1.405740   -1.205890
     12          1           0       -0.951170   -2.127380   -1.963650
     13          1           0       -1.461650   -0.444150   -1.688710
     14          8           0       -2.545760   -1.796430   -0.655910
     15          1           0       -2.437150   -2.645620   -0.199080
     16          8           0        1.238620    2.766230   -0.635620
     17          1           0        0.501660    3.380170   -0.786580
     18          8           0       -1.621900    1.638010   -0.294690
     19          1           0       -2.404970    1.358930    0.232500
     20          8           0        0.363540   -0.355950    2.060070
     21          1           0        1.247250   -0.018680    1.793370
     22          1           0        2.459890    0.438290   -1.474960
     23          8           0        2.496220    0.426330    0.562560
     24          8           0        3.021560   -1.970310    0.242210
     25          1           0        3.124670   -1.008450    0.528430
     26          1           0        1.781710   -1.633530   -0.489910
     27          1           0        3.772820   -2.163960   -0.339220
     28          8           0       -3.858690    0.315950    0.683090
     29          1           0       -4.624480    0.630750    0.179360
     30          1           0       -3.541490   -0.475130    0.195560
 ---------------------------------------------------------------------
                    Distance matrix (angstroms):
                    1          2          3          4          5
     1  C    0.000000
     2  C    2.592189   0.000000
     3  O    2.488909   2.524389   0.000000
     4  C    2.885241   1.519363   1.821096   0.000000
     5  C    1.540994   2.925485   1.448068   2.795347   0.000000
     6  C    1.551619   1.544010   2.970482   2.583341   2.578478
     7  H    2.132960   2.156420   3.808480   3.064597   3.451333
     8  H    3.068647   1.099656   2.565167   2.126855   2.998599
     9  H    2.138352   3.919266   2.058867   3.525242   1.098525
    10  H    1.094761   3.475190   3.389684   3.960419   2.133068
    11  C    2.587445   3.515852   2.367326   3.778250   1.531164
    12  H    3.515426   4.146264   2.517716   4.146540   2.156858
    13  H    2.813841   3.041920   2.691863   3.674480   2.169280
    14  O    3.058744   4.587104   3.659828   5.011287   2.458388
    15  H    3.332869   5.179850   3.877284   5.380484   2.623489
    16  O    3.770704   1.420069   3.814353   2.322091   4.319118
    17  H    4.091594   1.933181   4.448023   3.170964   4.752714
    18  O    2.488078   2.346549   3.806575   3.684878   3.244120
    19  H    2.573440   3.224129   4.325372   4.436782   3.452293
    20  O    1.413851   3.301484   3.066747   3.141554   2.441082
    21  H    1.937025   2.934369   2.845849   2.480721   2.715700
    22  H    3.856488   2.195824   2.146118   1.103074   3.438866
    23  O    3.064993   2.425755   2.510557   1.262920   3.263479
    24  O    3.986448   4.249967   2.459581   2.861952   3.318604
    25  H    3.718159   3.673180   2.511814   2.250043   3.401373
    26  H    3.035961   3.286161   1.028488   2.175155   2.047675
    27  H    4.856848   4.771608   3.011539   3.301581   4.078365
    28  O    3.426011   4.880141   5.299121   5.877922   4.069686
    29  H    4.292981   5.442780   5.983850   6.551229   4.825397
    30  H    3.161225   4.730413   4.722832   5.570539   3.449348
                    6          7          8          9         10
     6  C    0.000000
     7  H    1.099603   0.000000
     8  H    2.138506   2.995577   0.000000
     9  H    3.491636   4.212094   4.070934   0.000000
    10  H    2.157050   2.610683   3.810769   2.500260   0.000000
    11  C    3.201342   4.241378   3.106463   2.166153   2.725771
    12  H    4.135225   5.190880   3.606927   2.519069   3.751431
    13  H    2.857967   3.944502   2.408801   3.073094   2.998699
    14  O    3.847021   4.757836   4.257079   2.712561   2.642330
    15  H    4.416885   5.255788   4.957940   2.462775   2.883093
    16  O    2.469153   2.519747   2.077211   5.270654   4.596724
    17  H    2.599480   2.603616   2.304437   5.763566   4.742242
    18  O    1.423744   2.090917   2.336360   4.219249   2.577746
    19  H    1.987027   2.466016   3.251229   4.276426   2.235416
    20  O    2.457965   2.470431   4.063001   2.543306   2.004831
    21  H    2.534092   2.475636   3.823803   2.933358   2.807729
    22  H    3.519389   4.074856   2.381339   4.135921   4.904748
    23  O    3.040893   3.156384   3.282027   3.706920   4.139146
    24  O    4.716211   5.139572   4.676270   3.121079   4.907190
    25  H    4.208537   4.482585   4.280818   3.436266   4.727818
    26  H    3.728608   4.406482   3.489202   2.151731   3.944019
    27  H    5.455038   5.904702   5.102184   3.928227   5.802151
    28  O    3.569967   4.009625   4.812847   4.560928   2.541047
    29  H    4.247525   4.706594   5.235528   5.370133   3.475980
    30  H    3.563270   4.214983   4.554741   3.881786   2.331729
                   11         12         13         14         15
    11  C    0.000000
    12  H    1.097829   0.000000
    13  H    1.090690   1.780294   0.000000
    14  O    1.431467   2.088643   2.017581   0.000000
    15  H    1.970406   2.364406   2.831443   0.970368   0.000000
    16  O    4.908184   5.523247   4.325159   5.927884   6.556674
    17  H    5.125094   5.816297   4.392476   6.008413   6.729926
    18  O    3.195215   4.172945   2.510849   3.574825   4.361566
    19  H    3.312200   4.369321   2.798571   3.281066   4.027868
    20  O    3.805313   4.588763   4.170426   4.232677   4.264998
    21  H    4.162070   4.836824   4.432160   4.852452   4.944236
    22  H    4.181363   4.296139   4.025278   5.542684   5.926160
    23  O    4.557207   4.978722   4.635805   5.643305   5.861323
    24  O    4.576784   4.546765   5.114371   5.641977   5.517997
    25  H    4.753450   4.906622   5.125278   5.846140   5.843239
    26  H    3.155689   3.143951   3.656656   4.333715   4.348297
    27  H    5.185524   4.995617   5.672614   6.337178   6.230198
    28  O    3.628423   4.629122   3.456731   2.824687   3.401455
    29  H    4.150923   5.068824   3.827348   3.303022   3.957554
    30  H    2.815996   3.755246   2.806629   1.860729   2.467050
                   16         17         18         19         20
    16  O    0.000000
    17  H    0.970990   0.000000
    18  O    3.093815   2.790445   0.000000
    19  H    4.001234   3.684078   0.984385   0.000000
    20  O    4.216695   4.699052   3.669161   3.734364   0.000000
    21  H    3.695374   4.331770   3.916202   4.203907   0.982763
    22  H    2.759583   3.600443   4.415130   5.237352   4.185921
    23  O    2.914159   3.810987   4.377437   5.000035   2.720813
    24  O    5.136562   6.002994   5.905079   6.366409   3.602200
    25  H    4.377260   5.279149   5.496472   6.022373   3.224208
    26  H    4.435546   5.183023   4.725002   5.196632   3.185250
    27  H    5.551288   6.452751   6.599997   7.134613   4.544082
    28  O    5.807361   5.528293   2.776171   1.845031   4.491631
    29  H    6.292886   5.896581   3.202309   2.336513   5.421346
    30  H    5.834957   5.672301   2.896641   2.157966   4.328956
                   21         22         23         24         25
    21  H    0.000000
    22  H    3.515864   0.000000
    23  O    1.809103   2.037879   0.000000
    24  O    3.059924   3.010897   2.474366   0.000000
    25  H    2.470713   2.559016   1.566751   1.008825   0.000000
    26  H    2.847236   2.392214   2.421000   1.478732   1.797577
    27  H    3.940643   3.128162   3.025313   0.969512   1.583704
    28  O    5.235964   6.678069   6.357011   7.263553   7.109520
    29  H    6.124051   7.277507   7.133933   8.076595   7.928313
    30  H    5.068863   6.296152   6.115657   6.731372   6.695739
                   26         27         28         29         30
    26  H    0.000000
    27  H    2.066055   0.000000
    28  O    6.081983   8.089191   0.000000
    29  H    6.827456   8.865324   0.969163   0.000000
    30  H    5.490739   7.525774   0.981890   1.547934   0.000000
 Stoichiometry    C6H16O8
 Framework group  C1[X(C6H16O8)]
 Deg. of freedom    84
 Full point group                 C1      NOp   1
 Largest Abelian subgroup         C1      NOp   1
 Largest concise Abelian subgroup C1      NOp   1
                         Standard orientation:                         
 ---------------------------------------------------------------------
 Center     Atomic      Atomic             Coordinates (Angstroms)
 Number     Number       Type             X           Y           Z
 ---------------------------------------------------------------------
      1          6           0       -0.462069   -0.180744    0.949529
      2          6           0        0.702020    1.476986   -0.667961
      3          8           0        1.045306   -1.017644   -0.845488
      4          6           0        1.903264    0.557151   -0.528756
      5          6           0       -0.183971   -1.256396   -0.118318
      6          6           0       -0.408421    1.262851    0.383245
      7          1           0       -0.196580    1.915225    1.242696
      8          1           0        0.249508    1.283932   -1.651428
      9          1           0       -0.065834   -2.211828    0.410786
     10          1           0       -1.475647   -0.359251    1.322753
     11          6           0       -1.266917   -1.388174   -1.192714
     12          1           0       -0.935677   -2.109509   -1.951122
     13          1           0       -1.446389   -0.426535   -1.675048
     14          8           0       -2.528510   -1.779466   -0.641014
     15          1           0       -2.418927   -2.628724   -0.184543
     16          8           0        1.254194    2.784602   -0.625074
     17          1           0        0.516789    3.398303   -0.774828
     18          8           0       -1.605412    1.655233   -0.280303
     19          1           0       -2.387620    1.375735    0.247945
     20          8           0        0.384153   -0.338546    2.071127
     21          1           0        1.267353   -0.000882    1.803238
     22          1           0        2.475125    0.457318   -1.466722
     23          8           0        2.514387    0.444886    0.570740
     24          8           0        3.040160   -1.951481    0.249065
     25          1           0        3.143322   -0.989651    0.535365
     26          1           0        1.799133   -1.614990   -0.481193
     27          1           0        3.790656   -2.144712   -0.333490
     28          8           0       -3.840302    0.332106    0.700375
     29          1           0       -4.606932    0.646739    0.197821
     30          1           0       -3.523508   -0.458740    0.212201
 ---------------------------------------------------------------------
 Rotational constants (GHZ):      0.8350684      0.5053799      0.3971965
 Standard basis: 6-31G(d) (6D, 7F)
 There are   242 symmetry adapted cartesian basis functions of A   symmetry.
 There are   242 symmetry adapted basis functions of A   symmetry.
   242 basis functions,   456 primitive gaussians,   242 cartesian basis functions
    58 alpha electrons       58 beta electrons
       nuclear repulsion energy      1126.4798475024 Hartrees.
 NAtoms=   30 NActive=   30 NUniq=   30 SFac= 1.00D+00 NAtFMM=   60 NAOKFM=F Big=F
 Integral buffers will be    131072 words long.
 Raffenetti 2 integral format.
 Two-electron integral symmetry is turned on.
 One-electron integrals computed using PRISM.
 NBasis=   242 RedAO= T EigKep=  1.21D-03  NBF=   242
 NBsUse=   242 1.00D-06 EigRej= -1.00D+00 NBFU=   242
 ExpMin= 1.61D-01 ExpMax= 5.48D+03 ExpMxC= 8.25D+02 IAcc=1 IRadAn=         1 AccDes= 0.00D+00
 Harris functional with IExCor=  402 and IRadAn=       1 diagonalized for initial guess.
 HarFok:  IExCor=  402 AccDes= 0.00D+00 IRadAn=         1 IDoV= 1 UseB2=F ITyADJ=14
 ICtDFT=  3500011 ScaDFX=  1.000000  1.000000  1.000000  1.000000
 FoFCou: FMM=F IPFlag=           0 FMFlag=      100000 FMFlg1=           0
         NFxFlg=           0 DoJE=T BraDBF=F KetDBF=T FulRan=T
         wScrn=  0.000000 ICntrl=     500 IOpCl=  0 I1Cent=   200000004 NGrid=           0
         NMat0=    1 NMatS0=      1 NMatT0=    0 NMatD0=    1 NMtDS0=    0 NMtDT0=    0
 Petite list used in FoFCou.
 Requested convergence on RMS density matrix=1.00D-08 within 128 cycles.
 Requested convergence on MAX density matrix=1.00D-06.
 Requested convergence on             energy=1.00D-06.
 No special actions if energy rises.
 Integral accuracy reduced to 1.0D-05 until final iterations.
 Initial convergence to 1.0D-05 achieved.  Increase integral accuracy.
 SCF Done:  E(RB3LYP) =  -839.965029591     A.U. after   14 cycles
            NFock= 14  Conv=0.43D-08     -V/T= 2.0083

 **********************************************************************

            Population analysis using the SCF density.

 **********************************************************************

 Orbital symmetries:
       Occupied  (A) (A) (A) (A) (A) (A) (A) (A) (A) (A) (A) (A)
                 (A) (A) (A) (A) (A) (A) (A) (A) (A) (A) (A) (A)
                 (A) (A) (A) (A) (A) (A) (A) (A) (A) (A) (A) (A)
                 (A) (A) (A) (A) (A) (A) (A) (A) (A) (A) (A) (A)
                 (A) (A) (A) (A) (A) (A) (A) (A) (A) (A)
       Virtual   (A) (A) (A) (A) (A) (A) (A) (A) (A) (A) (A) (A)
                 (A) (A) (A) (A) (A) (A) (A) (A) (A) (A) (A) (A)
                 (A) (A) (A) (A) (A) (A) (A) (A) (A) (A) (A) (A)
                 (A) (A) (A) (A) (A) (A) (A) (A) (A) (A) (A) (A)
                 (A) (A) (A) (A) (A) (A) (A) (A) (A) (A) (A) (A)
                 (A) (A) (A) (A) (A) (A) (A) (A) (A) (A) (A) (A)
                 (A) (A) (A) (A) (A) (A) (A) (A) (A) (A) (A) (A)
                 (A) (A) (A) (A) (A) (A) (A) (A) (A) (A) (A) (A)
                 (A) (A) (A) (A) (A) (A) (A) (A) (A) (A) (A) (A)
                 (A) (A) (A) (A) (A) (A) (A) (A) (A) (A) (A) (A)
                 (A) (A) (A) (A) (A) (A) (A) (A) (A) (A) (A) (A)
                 (A) (A) (A) (A) (A) (A) (A) (A) (A) (A) (A) (A)
                 (A) (A) (A) (A) (A) (A) (A) (A) (A) (A) (A) (A)
                 (A) (A) (A) (A) (A) (A) (A) (A) (A) (A) (A) (A)
                 (A) (A) (A) (A) (A) (A) (A) (A) (A) (A) (A) (A)
                 (A) (A) (A) (A)
 The electronic state is 1-A.
 Alpha  occ. eigenvalues --  -19.19083 -19.18697 -19.16621 -19.15218 -19.14509
 Alpha  occ. eigenvalues --  -19.12979 -19.12481 -19.12032 -10.28944 -10.25493
 Alpha  occ. eigenvalues --  -10.24994 -10.23504 -10.23286 -10.22915  -1.07630
 Alpha  occ. eigenvalues --   -1.05312  -1.02896  -1.02318  -1.01239  -1.00771
 Alpha  occ. eigenvalues --   -1.00264  -0.99179  -0.78053  -0.75382  -0.69334
 Alpha  occ. eigenvalues --   -0.64908  -0.62738  -0.57001  -0.55374  -0.55170
 Alpha  occ. eigenvalues --   -0.53662  -0.53141  -0.52365  -0.50374  -0.48865
 Alpha  occ. eigenvalues --   -0.47142  -0.45767  -0.45409  -0.44699  -0.42475
 Alpha  occ. eigenvalues --   -0.41329  -0.40575  -0.39888  -0.39405  -0.37493
 Alpha  occ. eigenvalues --   -0.37087  -0.36034  -0.35748  -0.34862  -0.32579
 Alpha  occ. eigenvalues --   -0.32116  -0.30738  -0.30255  -0.28912  -0.26796
 Alpha  occ. eigenvalues --   -0.26252  -0.25147  -0.24030
 Alpha virt. eigenvalues --    0.01493   0.03859   0.05694   0.07329   0.09754
 Alpha virt. eigenvalues --    0.10363   0.10604   0.11817   0.14572   0.14857
 Alpha virt. eigenvalues --    0.15298   0.16383   0.17605   0.18878   0.19548
 Alpha virt. eigenvalues --    0.21053   0.22056   0.22514   0.23380   0.24734
 Alpha virt. eigenvalues --    0.25046   0.27003   0.28353   0.28739   0.29636
 Alpha virt. eigenvalues --    0.31519   0.34380   0.36509   0.52242   0.53762
 Alpha virt. eigenvalues --    0.54326   0.55648   0.58549   0.59093   0.60514
 Alpha virt. eigenvalues --    0.61102   0.61956   0.62503   0.64445   0.66732
 Alpha virt. eigenvalues --    0.67808   0.68153   0.70776   0.73848   0.73960
 Alpha virt. eigenvalues --    0.75853   0.77981   0.79530   0.80139   0.80962
 Alpha virt. eigenvalues --    0.82276   0.83196   0.84250   0.84408   0.85840
 Alpha virt. eigenvalues --    0.86953   0.87119   0.88193   0.88756   0.89383
 Alpha virt. eigenvalues --    0.90720   0.91446   0.91896   0.94959   0.97392
 Alpha virt. eigenvalues --    0.98153   0.98715   1.00582   1.02446   1.03316
 Alpha virt. eigenvalues --    1.04797   1.05978   1.07017   1.08326   1.09367
 Alpha virt. eigenvalues --    1.12480   1.12878   1.15270   1.16740   1.17514
 Alpha virt. eigenvalues --    1.18841   1.21519   1.23053   1.24171   1.27286
 Alpha virt. eigenvalues --    1.27899   1.31446   1.32936   1.34928   1.36798
 Alpha virt. eigenvalues --    1.39395   1.43277   1.44900   1.48098   1.48986
 Alpha virt. eigenvalues --    1.51205   1.52487   1.54609   1.57674   1.58876
 Alpha virt. eigenvalues --    1.61255   1.62443   1.65617   1.67462   1.70181
 Alpha virt. eigenvalues --    1.70320   1.71744   1.72645   1.73393   1.74196
 Alpha virt. eigenvalues --    1.75883   1.78277   1.79489   1.80343   1.80821
 Alpha virt. eigenvalues --    1.82086   1.82373   1.83849   1.85153   1.87477
 Alpha virt. eigenvalues --    1.88112   1.89786   1.91748   1.92201   1.94195
 Alpha virt. eigenvalues --    1.96923   1.98130   2.01013   2.04098   2.05269
 Alpha virt. eigenvalues --    2.07950   2.08890   2.09468   2.15045   2.16764
 Alpha virt. eigenvalues --    2.18319   2.23187   2.24647   2.26849   2.30064
 Alpha virt. eigenvalues --    2.31901   2.33471   2.35838   2.37151   2.38608
 Alpha virt. eigenvalues --    2.42301   2.44732   2.47538   2.48536   2.51432
 Alpha virt. eigenvalues --    2.53089   2.54302   2.55941   2.59484   2.60115
 Alpha virt. eigenvalues --    2.61976   2.63458   2.65533   2.69706   2.72831
 Alpha virt. eigenvalues --    2.74371   2.76591   2.81530   2.87153   2.89414
 Alpha virt. eigenvalues --    2.94407   2.95386   3.02588   3.03593   3.10594
 Alpha virt. eigenvalues --    3.72606   3.74385   3.76960   3.88828   3.91774
 Alpha virt. eigenvalues --    3.97537   4.06469   4.15387   4.23273   4.36122
 Alpha virt. eigenvalues --    4.54263   4.58369   4.65440   4.86713
          Condensed to atoms (all electrons):
               1          2          3          4          5          6
     1  C    4.989588  -0.021346  -0.038456   0.006566   0.289138   0.270627
     2  C   -0.021346   5.001727  -0.011889   0.287341  -0.022061   0.294639
     3  O   -0.038456  -0.011889   8.545694   0.043526   0.148208  -0.007607
     4  C    0.006566   0.287341   0.043526   4.795642  -0.009292  -0.023777
     5  C    0.289138  -0.022061   0.148208  -0.009292   5.110891  -0.019567
     6  C    0.270627   0.294639  -0.007607  -0.023777  -0.019567   5.029286
     7  H   -0.056405  -0.047175   0.000094  -0.003049   0.006759   0.353153
     8  H    0.000023   0.333674   0.003150  -0.043423   0.001408  -0.053117
     9  H   -0.044171   0.000304  -0.030556   0.000806   0.361914   0.004974
    10  H    0.363939   0.004781   0.003178   0.000078  -0.054513  -0.039429
    11  C   -0.040597  -0.000999  -0.040034   0.000565   0.287335  -0.001437
    12  H    0.004994  -0.000067   0.006918   0.000015  -0.044881  -0.000271
    13  H   -0.008743  -0.002795   0.001407   0.000282  -0.034099   0.001270
    14  O   -0.000292   0.000062   0.001525  -0.000006  -0.035810  -0.000595
    15  H   -0.001156   0.000004  -0.000015  -0.000001  -0.002461   0.000036
    16  O    0.003424   0.246032   0.000591  -0.044619  -0.000002  -0.038589
    17  H    0.000332  -0.027503  -0.000049   0.007682  -0.000022  -0.004314
    18  O   -0.027231  -0.045114  -0.000007   0.002815  -0.001631   0.203524
    19  H   -0.002317   0.005122   0.000001  -0.000197  -0.000301  -0.020915
    20  O    0.245819   0.001787   0.001617   0.004749  -0.042450  -0.037353
    21  H   -0.038583  -0.004764   0.000519  -0.006000  -0.001003  -0.000597
    22  H   -0.000135  -0.074387  -0.031241   0.356227   0.003093   0.006012
    23  O    0.004492  -0.048729  -0.048175   0.336683   0.000781  -0.001605
    24  O   -0.000772   0.000003  -0.069146   0.012766   0.001276   0.000027
    25  H    0.000129   0.002834   0.006394  -0.010036  -0.000277  -0.000192
    26  H    0.003834   0.002584   0.152872  -0.008859  -0.006654  -0.000196
    27  H    0.000026   0.000045   0.002746   0.000978   0.000011  -0.000002
    28  O   -0.001769  -0.000027  -0.000000   0.000000  -0.000259  -0.000867
    29  H    0.000197   0.000002   0.000000  -0.000000  -0.000011  -0.000016
    30  H    0.001582   0.000002  -0.000003  -0.000000  -0.000199  -0.000285
               7          8          9         10         11         12
     1  C   -0.056405   0.000023  -0.044171   0.363939  -0.040597   0.004994
     2  C   -0.047175   0.333674   0.000304   0.004781  -0.000999  -0.000067
     3  O    0.000094   0.003150  -0.030556   0.003178  -0.040034   0.006918
     4  C   -0.003049  -0.043423   0.000806   0.000078   0.000565   0.000015
     5  C    0.006759   0.001408   0.361914  -0.054513   0.287335  -0.044881
     6  C    0.353153  -0.053117   0.004974  -0.039429  -0.001437  -0.000271
     7  H    0.621339   0.007050  -0.000235  -0.004438  -0.000017   0.000012
     8  H    0.007050   0.656160   0.000043  -0.000390  -0.000783   0.000106
     9  H   -0.000235   0.000043   0.604898  -0.001443  -0.047606  -0.006248
    10  H   -0.004438  -0.000390  -0.001443   0.594760  -0.001351   0.000045
    11  C   -0.000017  -0.000783  -0.047606  -0.001351   4.995542   0.350128
    12  H    0.000012   0.000106  -0.006248   0.000045   0.350128   0.611498
    13  H    0.000244   0.005078   0.004701  -0.000263   0.367323  -0.033204
    14  O   -0.000009   0.000007   0.000082   0.008767   0.214148  -0.030294
    15  H   -0.000002   0.000001   0.006023   0.000818  -0.029513  -0.004964
    16  O    0.002279  -0.038361   0.000003  -0.000055   0.000011  -0.000000
    17  H   -0.000119  -0.004835  -0.000000   0.000000   0.000001   0.000000
    18  O   -0.034878  -0.000120  -0.000160  -0.002594  -0.002056   0.000297
    19  H   -0.002941  -0.000065  -0.000001   0.005569   0.000322  -0.000022
    20  O    0.007408  -0.000061   0.003776  -0.036583   0.003903  -0.000067
    21  H    0.000557   0.000128  -0.000711   0.005680  -0.000080   0.000004
    22  H   -0.000174  -0.000657  -0.000104  -0.000001  -0.000133  -0.000000
    23  O    0.001492   0.004078  -0.000386  -0.000020   0.000004   0.000006
    24  O    0.000001   0.000024   0.002038   0.000003  -0.000015  -0.000010
    25  H   -0.000010  -0.000124  -0.000151  -0.000001   0.000017   0.000001
    26  H    0.000007   0.000139  -0.005032  -0.000122   0.000108   0.000437
    27  H   -0.000000  -0.000003  -0.000102   0.000000  -0.000001  -0.000000
    28  O    0.000002  -0.000006   0.000008   0.007212   0.001511  -0.000027
    29  H   -0.000000  -0.000000  -0.000000  -0.000256  -0.000008   0.000001
    30  H    0.000053   0.000003  -0.000095  -0.001733  -0.003683   0.000546
              13         14         15         16         17         18
     1  C   -0.008743  -0.000292  -0.001156   0.003424   0.000332  -0.027231
     2  C   -0.002795   0.000062   0.000004   0.246032  -0.027503  -0.045114
     3  O    0.001407   0.001525  -0.000015   0.000591  -0.000049  -0.000007
     4  C    0.000282  -0.000006  -0.000001  -0.044619   0.007682   0.002815
     5  C   -0.034099  -0.035810  -0.002461  -0.000002  -0.000022  -0.001631
     6  C    0.001270  -0.000595   0.000036  -0.038589  -0.004314   0.203524
     7  H    0.000244  -0.000009  -0.000002   0.002279  -0.000119  -0.034878
     8  H    0.005078   0.000007   0.000001  -0.038361  -0.004835  -0.000120
     9  H    0.004701   0.000082   0.006023   0.000003  -0.000000  -0.000160
    10  H   -0.000263   0.008767   0.000818  -0.000055   0.000000  -0.002594
    11  C    0.367323   0.214148  -0.029513   0.000011   0.000001  -0.002056
    12  H   -0.033204  -0.030294  -0.004964  -0.000000   0.000000   0.000297
    13  H    0.520440  -0.032611   0.006225   0.000004  -0.000002   0.017142
    14  O   -0.032611   8.231465   0.236683  -0.000000  -0.000000  -0.000372
    15  H    0.006225   0.236683   0.383470   0.000000   0.000000  -0.000026
    16  O    0.000004  -0.000000   0.000000   8.264354   0.236278  -0.000007
    17  H   -0.000002  -0.000000   0.000000   0.236278   0.383429   0.005253
    18  O    0.017142  -0.000372  -0.000026  -0.000007   0.005253   8.395394
    19  H   -0.001092   0.000185   0.000006  -0.000099  -0.000132   0.200620
    20  O    0.000023   0.000012  -0.000033  -0.000010  -0.000003   0.001585
    21  H    0.000003  -0.000000   0.000001  -0.000035  -0.000025  -0.000002
    22  H   -0.000055   0.000001  -0.000000   0.002859  -0.000567  -0.000082
    23  O    0.000003   0.000000  -0.000000   0.000446  -0.000048   0.000013
    24  O    0.000001   0.000000  -0.000000  -0.000000  -0.000000  -0.000000
    25  H    0.000000  -0.000000   0.000000  -0.000014   0.000003   0.000000
    26  H   -0.000119   0.000014  -0.000007  -0.000032   0.000003  -0.000008
    27  H   -0.000000  -0.000000  -0.000000  -0.000000  -0.000000   0.000000
    28  O    0.000863  -0.017890   0.000941   0.000000   0.000000  -0.021724
    29  H    0.000021   0.000487  -0.000016  -0.000000  -0.000000   0.001373
    30  H   -0.001288   0.053619  -0.003347  -0.000000  -0.000000   0.004193
              19         20         21         22         23         24
     1  C   -0.002317   0.245819  -0.038583  -0.000135   0.004492  -0.000772
     2  C    0.005122   0.001787  -0.004764  -0.074387  -0.048729   0.000003
     3  O    0.000001   0.001617   0.000519  -0.031241  -0.048175  -0.069146
     4  C   -0.000197   0.004749  -0.006000   0.356227   0.336683   0.012766
     5  C   -0.000301  -0.042450  -0.001003   0.003093   0.000781   0.001276
     6  C   -0.020915  -0.037353  -0.000597   0.006012  -0.001605   0.000027
     7  H   -0.002941   0.007408   0.000557  -0.000174   0.001492   0.000001
     8  H   -0.000065  -0.000061   0.000128  -0.000657   0.004078   0.000024
     9  H   -0.000001   0.003776  -0.000711  -0.000104  -0.000386   0.002038
    10  H    0.005569  -0.036583   0.005680  -0.000001  -0.000020   0.000003
    11  C    0.000322   0.003903  -0.000080  -0.000133   0.000004  -0.000015
    12  H   -0.000022  -0.000067   0.000004  -0.000000   0.000006  -0.000010
    13  H   -0.001092   0.000023   0.000003  -0.000055   0.000003   0.000001
    14  O    0.000185   0.000012  -0.000000   0.000001   0.000000   0.000000
    15  H    0.000006  -0.000033   0.000001  -0.000000  -0.000000  -0.000000
    16  O   -0.000099  -0.000010  -0.000035   0.002859   0.000446  -0.000000
    17  H   -0.000132  -0.000003  -0.000025  -0.000567  -0.000048  -0.000000
    18  O    0.200620   0.001585  -0.000002  -0.000082   0.000013  -0.000000
    19  H    0.330339   0.000011   0.000027   0.000006   0.000002   0.000000
    20  O    0.000011   8.325030   0.215231  -0.000181  -0.028103  -0.000087
    21  H    0.000027   0.215231   0.338481   0.001602   0.065963   0.001597
    22  H    0.000006  -0.000181   0.001602   0.664259  -0.052509   0.003006
    23  O    0.000002  -0.028103   0.065963  -0.052509   8.302801  -0.062812
    24  O    0.000000  -0.000087   0.001597   0.003006  -0.062812   8.400765
    25  H   -0.000000   0.001526  -0.002049  -0.005723   0.086678   0.173803
    26  H   -0.000000  -0.000233  -0.000057   0.000353   0.008501   0.113267
    27  H   -0.000000   0.000007  -0.000048   0.000165   0.002216   0.235122
    28  O    0.068597   0.000014  -0.000001  -0.000000  -0.000000   0.000000
    29  H   -0.003025  -0.000001   0.000000   0.000000  -0.000000   0.000000
    30  H   -0.007262  -0.000004   0.000000  -0.000000  -0.000000  -0.000000
              25         26         27         28         29         30
     1  C    0.000129   0.003834   0.000026  -0.001769   0.000197   0.001582
     2  C    0.002834   0.002584   0.000045  -0.000027   0.000002   0.000002
     3  O    0.006394   0.152872   0.002746  -0.000000   0.000000  -0.000003
     4  C   -0.010036  -0.008859   0.000978   0.000000  -0.000000  -0.000000
     5  C   -0.000277  -0.006654   0.000011  -0.000259  -0.000011  -0.000199
     6  C   -0.000192  -0.000196  -0.000002  -0.000867  -0.000016  -0.000285
     7  H   -0.000010   0.000007  -0.000000   0.000002  -0.000000   0.000053
     8  H   -0.000124   0.000139  -0.000003  -0.000006  -0.000000   0.000003
     9  H   -0.000151  -0.005032  -0.000102   0.000008  -0.000000  -0.000095
    10  H   -0.000001  -0.000122   0.000000   0.007212  -0.000256  -0.001733
    11  C    0.000017   0.000108  -0.000001   0.001511  -0.000008  -0.003683
    12  H    0.000001   0.000437  -0.000000  -0.000027   0.000001   0.000546
    13  H    0.000000  -0.000119  -0.000000   0.000863   0.000021  -0.001288
    14  O   -0.000000   0.000014  -0.000000  -0.017890   0.000487   0.053619
    15  H    0.000000  -0.000007  -0.000000   0.000941  -0.000016  -0.003347
    16  O   -0.000014  -0.000032  -0.000000   0.000000  -0.000000  -0.000000
    17  H    0.000003   0.000003  -0.000000   0.000000  -0.000000  -0.000000
    18  O    0.000000  -0.000008   0.000000  -0.021724   0.001373   0.004193
    19  H   -0.000000  -0.000000  -0.000000   0.068597  -0.003025  -0.007262
    20  O    0.001526  -0.000233   0.000007   0.000014  -0.000001  -0.000004
    21  H   -0.002049  -0.000057  -0.000048  -0.000001   0.000000   0.000000
    22  H   -0.005723   0.000353   0.000165  -0.000000   0.000000  -0.000000
    23  O    0.086678   0.008501   0.002216  -0.000000  -0.000000  -0.000000
    24  O    0.173803   0.113267   0.235122   0.000000   0.000000  -0.000000
    25  H    0.323852  -0.016107  -0.007195   0.000000  -0.000000  -0.000000
    26  H   -0.016107   0.299862  -0.005179  -0.000000  -0.000000  -0.000000
    27  H   -0.007195  -0.005179   0.366977   0.000000  -0.000000  -0.000000
    28  O    0.000000  -0.000000   0.000000   8.325480   0.239001   0.209063
    29  H   -0.000000  -0.000000  -0.000000   0.239001   0.377484  -0.012681
    30  H   -0.000000  -0.000000  -0.000000   0.209063  -0.012681   0.326293
 Mulliken charges:
               1
     1  C    0.097263
     2  C    0.125912
     3  O   -0.641261
     4  C    0.292540
     5  C    0.064676
     6  C    0.087181
     7  H    0.149003
     8  H    0.130873
     9  H    0.147430
    10  H    0.148362
    11  C   -0.052602
    12  H    0.145049
    13  H    0.189243
    14  O   -0.629180
    15  H    0.407335
    16  O   -0.634457
    17  H    0.404638
    18  O   -0.696198
    19  H    0.427565
    20  O   -0.667329
    21  H    0.424160
    22  H    0.128367
    23  O   -0.571772
    24  O   -0.810858
    25  H    0.446641
    26  H    0.460625
    27  H    0.404239
    28  O   -0.810121
    29  H    0.397450
    30  H    0.435226
 Sum of Mulliken charges =  -0.00000
 Mulliken charges with hydrogens summed into heavy atoms:
               1
     1  C    0.245625
     2  C    0.256784
     3  O   -0.180635
     4  C    0.420907
     5  C    0.212106
     6  C    0.236184
    11  C    0.281690
    14  O   -0.221845
    16  O   -0.229820
    18  O   -0.268633
    20  O   -0.243169
    23  O   -0.571772
    24  O    0.040022
    28  O    0.022554
 Electronic spatial extent (au):  <R**2>=           3013.8508
 Charge=             -0.0000 electrons
 Dipole moment (field-independent basis, Debye):
    X=             -1.4716    Y=             -3.1966    Z=             -3.9787  Tot=              5.3117
 Quadrupole moment (field-independent basis, Debye-Ang):
   XX=            -72.0356   YY=            -76.9525   ZZ=            -90.9925
   XY=             -4.4960   XZ=             -3.0826   YZ=              2.3219
 Traceless Quadrupole moment (field-independent basis, Debye-Ang):
   XX=              7.9579   YY=              3.0410   ZZ=            -10.9989
   XY=             -4.4960   XZ=             -3.0826   YZ=              2.3219
 Octapole moment (field-independent basis, Debye-Ang**2):
  XXX=            -15.3338  YYY=            -15.0346  ZZZ=            -14.6837  XYY=            -22.7405
  XXY=            -29.7195  XXZ=            -27.8605  XZZ=              7.0291  YZZ=              4.8453
  YYZ=             -6.0582  XYZ=             11.9314
 Hexadecapole moment (field-independent basis, Debye-Ang**3):
 XXXX=          -1436.0039 YYYY=           -935.8077 ZZZZ=           -510.4730 XXXY=           -183.5419
 XXXZ=              1.5440 YYYX=              2.2901 YYYZ=             -1.7401 ZZZX=             11.3012
 ZZZY=              5.2962 XXYY=           -471.4175 XXZZ=           -425.9838 YYZZ=           -258.4333
 XXYZ=             15.9885 YYXZ=            -29.5634 ZZXY=             -4.4966
 N-N= 1.126479847502D+03 E-N=-4.225711247600D+03  KE= 8.330197602647D+02
 Calling FoFJK, ICntrl=      2127 FMM=F ISym2X=0 I1Cent= 0 IOpClX= 0 NMat=1 NMatS=1 NMatT=0.
 ***** Axes restored to original set *****
 -------------------------------------------------------------------
 Center     Atomic                   Forces (Hartrees/Bohr)
 Number     Number              X              Y              Z
 -------------------------------------------------------------------
      1        6          -0.000144997   -0.000439009   -0.000556684
      2        6           0.000671097    0.001499198   -0.000341339
      3        8          -0.010101939   -0.008844767   -0.006252609
      4        6           0.008452731    0.014069941    0.002770630
      5        6          -0.003016953   -0.002664495    0.000224917
      6        6           0.000431162   -0.000494430   -0.000488073
      7        1           0.000028857   -0.000036301   -0.000029456
      8        1           0.000290163   -0.000145388   -0.000066748
      9        1          -0.000513379   -0.000170242    0.000172385
     10        1           0.000005258    0.000117739    0.000077389
     11        6          -0.002135276   -0.000885094    0.000648492
     12        1          -0.000127638   -0.000057024    0.000058286
     13        1          -0.000047175   -0.000041684    0.000054420
     14        8          -0.002527546   -0.000242104   -0.000162401
     15        1          -0.000148786   -0.000006691   -0.000015696
     16        8          -0.002091715    0.003293624   -0.000645273
     17        1          -0.000103307    0.000187409   -0.000182013
     18        8           0.000297983   -0.000116736   -0.000070184
     19        1           0.000021364   -0.000071614   -0.000013984
     20        8           0.000346890   -0.000292882   -0.000364434
     21        1          -0.000066413    0.000148768    0.000106063
     22        1           0.000483548    0.000257545    0.000263090
     23        8          -0.000139947    0.009394707    0.002368406
     24        8           0.009926765   -0.013059979    0.002346746
     25        1           0.000938930   -0.000898116    0.000477755
     26        1          -0.001496960    0.000299309   -0.000833255
     27        1           0.000791328   -0.000823505    0.000437888
     28        8          -0.000011853    0.000028881    0.000009336
     29        1          -0.000002557    0.000006492    0.000003985
     30        1          -0.000009633   -0.000013551    0.000002359
 -------------------------------------------------------------------
 Cartesian Forces:  Max     0.014069941 RMS     0.003198927

 GradGradGradGradGradGradGradGradGradGradGradGradGradGradGradGradGradGrad
 Berny optimization.
 FormGI is forming the generalized inverse of G from B-inverse, IUseBI=4.
 Internal  Forces:  Max     0.016842580 RMS     0.004575357
 Search for a local minimum.
 Step number   1 out of a maximum of  180
 All quantities printed in internal units (Hartrees-Bohrs-Radians)
 Mixed Optimization -- RFO/linear search
 Second derivative matrix not updated -- first step.
 ITU=  0
     Eigenvalues ---    0.00350   0.00386   0.00411   0.00492   0.00540
     Eigenvalues ---    0.00734   0.01030   0.01270   0.01426   0.01509
     Eigenvalues ---    0.01676   0.02046   0.02439   0.02807   0.03047
     Eigenvalues ---    0.03671   0.03895   0.04106   0.04462   0.04609
     Eigenvalues ---    0.04616   0.04863   0.05002   0.05442   0.05616
     Eigenvalues ---    0.05848   0.06191   0.06440   0.06863   0.07136
     Eigenvalues ---    0.07723   0.07816   0.08221   0.08467   0.09015
     Eigenvalues ---    0.09354   0.09537   0.09781   0.09955   0.10811
     Eigenvalues ---    0.11988   0.12367   0.12869   0.14861   0.15204
     Eigenvalues ---    0.16000   0.16000   0.16127   0.16177   0.17131
     Eigenvalues ---    0.17791   0.18255   0.19548   0.19830   0.20545
     Eigenvalues ---    0.21241   0.22272   0.26423   0.27462   0.27933
     Eigenvalues ---    0.28781   0.29925   0.33344   0.33720   0.33726
     Eigenvalues ---    0.33846   0.33923   0.34268   0.34733   0.37840
     Eigenvalues ---    0.39714   0.40971   0.41927   0.42450   0.43400
     Eigenvalues ---    0.45274   0.49319   0.49875   0.50852   0.53175
     Eigenvalues ---    0.53302   0.53477   0.53548   0.76522
 RFO step:  Lambda=-2.63317031D-02 EMin= 3.49778748D-03
 Linear search not attempted -- first point.
 Iteration  1 RMS(Cart)=  0.15661595 RMS(Int)=  0.00600356
 Iteration  2 RMS(Cart)=  0.01210517 RMS(Int)=  0.00108496
 Iteration  3 RMS(Cart)=  0.00013867 RMS(Int)=  0.00108376
 Iteration  4 RMS(Cart)=  0.00000033 RMS(Int)=  0.00108376
 Variable       Old X    -DE/DX   Delta X   Delta X   Delta X     New X
                                 (Linear)    (Quad)   (Total)
    R1        2.91206   0.00700   0.00000   0.01890   0.01827   2.93033
    R2        2.93214   0.00924   0.00000   0.03097   0.03178   2.96391
    R3        2.06880   0.00000   0.00000   0.00000   0.00000   2.06880
    R4        2.67179  -0.00002   0.00000  -0.00004  -0.00004   2.67175
    R5        2.87118   0.00363   0.00000   0.00848   0.00804   2.87922
    R6        2.91776   0.00484   0.00000   0.01839   0.01917   2.93692
    R7        2.07805  -0.00003   0.00000  -0.00008  -0.00008   2.07797
    R8        2.68354   0.00232   0.00000   0.00515   0.00515   2.68869
    R9        2.73645   0.00058   0.00000   0.00075   0.00015   2.73660
   R10        1.94356   0.00692   0.00000   0.01819   0.01894   1.96251
   R11        2.08451   0.00001   0.00000   0.00002   0.00002   2.08453
   R12        2.38657   0.00160   0.00000  -0.00108  -0.00229   2.38428
   R13        2.07591   0.00018   0.00000   0.00049   0.00049   2.07640
   R14        2.89348   0.00251   0.00000   0.00920   0.00893   2.90241
   R15        2.07795  -0.00004   0.00000  -0.00011  -0.00011   2.07784
   R16        2.69049   0.00088   0.00000   0.00128   0.00149   2.69197
   R17        2.07460  -0.00004   0.00000  -0.00012  -0.00012   2.07447
   R18        2.06110  -0.00006   0.00000  -0.00015  -0.00015   2.06095
   R19        2.70508   0.00130   0.00000   0.00201   0.00195   2.70703
   R20        1.83373  -0.00001   0.00000  -0.00003  -0.00003   1.83370
   R21        3.51627  -0.00108   0.00000  -0.01804  -0.01797   3.49830
   R22        1.83490   0.00023   0.00000   0.00040   0.00040   1.83531
   R23        1.86022   0.00089   0.00000   0.00284   0.00287   1.86309
   R24        3.48660   0.00068   0.00000   0.01323   0.01334   3.49995
   R25        1.85715  -0.00003   0.00000  -0.00006  -0.00006   1.85709
   R26        2.96073   0.01627   0.00000   0.13052   0.13019   3.09092
   R27        1.90640   0.01671   0.00000   0.03637   0.03633   1.94273
   R28        2.79440   0.01143   0.00000   0.09184   0.09255   2.88695
   R29        1.83211   0.00052   0.00000   0.00092   0.00092   1.83303
   R30        1.83145  -0.00000   0.00000  -0.00000  -0.00000   1.83145
   R31        1.85550  -0.00092   0.00000  -0.00234  -0.00222   1.85328
    A1        1.97174   0.01475   0.00000   0.09283   0.09288   2.06462
    A2        1.86451  -0.00751   0.00000  -0.04342  -0.04245   1.82206
    A3        1.94314  -0.00143   0.00000  -0.00875  -0.01028   1.93286
    A4        1.88403  -0.00112   0.00000  -0.01944  -0.01909   1.86494
    A5        1.95268  -0.00843   0.00000  -0.02437  -0.02505   1.92764
    A6        1.83951   0.00289   0.00000  -0.00582  -0.00676   1.83275
    A7        2.00674  -0.00081   0.00000   0.01602   0.01632   2.02306
    A8        1.87654   0.00094   0.00000   0.00232   0.00147   1.87801
    A9        1.82067   0.00157   0.00000   0.00604   0.00671   1.82737
   A10        1.86356   0.00070   0.00000   0.00785   0.00755   1.87110
   A11        1.96795  -0.00165   0.00000  -0.02158  -0.02177   1.94618
   A12        1.92695  -0.00070   0.00000  -0.01091  -0.01088   1.91607
   A13        1.92685   0.01684   0.00000   0.07185   0.07219   1.99903
   A14        1.96792  -0.00004   0.00000   0.01293   0.01053   1.97845
   A15        2.11316   0.00855   0.00000   0.04553   0.04390   2.15706
   A16        2.07302  -0.00510   0.00000   0.00100  -0.00215   2.07087
   A17        1.96719   0.00169   0.00000   0.01049   0.00811   1.97530
   A18        1.86789  -0.00109   0.00000  -0.01910  -0.01836   1.84953
   A19        2.00278  -0.00064   0.00000   0.00896   0.00883   2.01161
   A20        1.86918   0.00114   0.00000   0.00484   0.00487   1.87405
   A21        1.83613  -0.00125   0.00000  -0.00220  -0.00031   1.83582
   A22        1.91683   0.00032   0.00000  -0.00277  -0.00302   1.91381
   A23        1.98491   0.01258   0.00000   0.09467   0.09537   2.08028
   A24        1.84770  -0.00078   0.00000  -0.01983  -0.01916   1.82854
   A25        1.97952  -0.00497   0.00000  -0.01156  -0.01385   1.96567
   A26        1.88736  -0.00806   0.00000  -0.06165  -0.06026   1.82710
   A27        1.82257  -0.00067   0.00000   0.01038   0.00729   1.82986
   A28        1.94200   0.00174   0.00000  -0.01523  -0.01563   1.92637
   A29        1.90487   0.00039   0.00000  -0.00130  -0.00107   1.90380
   A30        1.92923  -0.00143   0.00000  -0.00568  -0.00574   1.92349
   A31        1.95673   0.00212   0.00000   0.01648   0.01610   1.97283
   A32        1.90018   0.00028   0.00000  -0.00085  -0.00092   1.89926
   A33        1.93110  -0.00126   0.00000  -0.00264  -0.00251   1.92860
   A34        1.84048  -0.00019   0.00000  -0.00658  -0.00651   1.83397
   A35        1.89759   0.00066   0.00000   0.00664   0.00698   1.90457
   A36        2.04202   0.00048   0.00000  -0.00828  -0.00881   2.03322
   A37        2.05543  -0.00121   0.00000   0.00143   0.00146   2.05689
   A38        1.85671   0.00012   0.00000   0.00063   0.00063   1.85734
   A39        1.91741   0.00296   0.00000   0.00083   0.00104   1.91844
   A40        2.73338   0.00740   0.00000   0.03059   0.03012   2.76350
   A41        1.85803   0.00007   0.00000   0.00038   0.00038   1.85841
   A42        1.82966   0.00360   0.00000   0.00928   0.00679   1.83645
   A43        1.57981   0.00978   0.00000   0.11056   0.10905   1.68886
   A44        1.85604   0.00107   0.00000   0.00978   0.01059   1.86663
   A45        1.98044   0.00150   0.00000   0.00419   0.00162   1.98205
   A46        2.56499   0.01231   0.00000   0.07212   0.06924   2.63423
   A47        2.74455  -0.00544   0.00000   0.00869   0.00792   2.75247
   A48        1.88812  -0.00039   0.00000   0.00283   0.00289   1.89100
   A49        1.65052   0.00398   0.00000   0.01922   0.01902   1.66955
   A50        1.83266   0.00025   0.00000   0.00142   0.00121   1.83387
   A51        2.91163  -0.00003   0.00000   0.01436   0.01424   2.92587
   A52        3.08501   0.00434   0.00000   0.03620   0.03594   3.12095
    D1        0.91677  -0.00408   0.00000  -0.01696  -0.01534   0.90143
    D2        2.96717  -0.00243   0.00000  -0.01720  -0.01650   2.95067
    D3       -1.18456  -0.00324   0.00000  -0.02898  -0.02817  -1.21273
    D4        2.98579  -0.00184   0.00000  -0.01558  -0.01506   2.97073
    D5       -1.24699  -0.00018   0.00000  -0.01582  -0.01622  -1.26321
    D6        0.88446  -0.00099   0.00000  -0.02760  -0.02789   0.85657
    D7       -1.29766  -0.00339   0.00000  -0.05163  -0.05082  -1.34849
    D8        0.75274  -0.00174   0.00000  -0.05187  -0.05198   0.70076
    D9        2.88419  -0.00255   0.00000  -0.06365  -0.06365   2.82054
   D10       -0.66780  -0.00760   0.00000  -0.12800  -0.12658  -0.79438
   D11       -2.73746  -0.00427   0.00000  -0.09254  -0.09178  -2.82924
   D12        1.41155  -0.00288   0.00000  -0.05277  -0.05188   1.35967
   D13       -2.72543  -0.00630   0.00000  -0.11650  -0.11561  -2.84105
   D14        1.48809  -0.00297   0.00000  -0.08105  -0.08081   1.40728
   D15       -0.64608  -0.00158   0.00000  -0.04127  -0.04091  -0.68700
   D16        1.54156  -0.00449   0.00000  -0.08438  -0.08361   1.45796
   D17       -0.52810  -0.00116   0.00000  -0.04892  -0.04881  -0.57691
   D18       -2.66227   0.00024   0.00000  -0.00915  -0.00891  -2.67118
   D19        1.32853   0.00672   0.00000   0.05497   0.05426   1.38279
   D20       -0.89627  -0.00518   0.00000  -0.04306  -0.04242  -0.93868
   D21       -2.93945  -0.00121   0.00000  -0.00387  -0.00380  -2.94325
   D22        2.76031  -0.00168   0.00000  -0.00569  -0.00674   2.75357
   D23       -0.91245   0.00292   0.00000   0.10552   0.10616  -0.80629
   D24        0.68785  -0.00272   0.00000  -0.02710  -0.02771   0.66014
   D25       -2.98491   0.00188   0.00000   0.08411   0.08519  -2.89972
   D26       -1.35858  -0.00311   0.00000  -0.01863  -0.01922  -1.37780
   D27        1.25184   0.00149   0.00000   0.09259   0.09368   1.34553
   D28       -0.47158  -0.00214   0.00000  -0.01617  -0.01388  -0.48546
   D29        1.57520  -0.00097   0.00000  -0.02540  -0.02504   1.55016
   D30       -2.63836  -0.00311   0.00000  -0.06669  -0.06631  -2.70467
   D31        1.60813  -0.00096   0.00000   0.00195   0.00360   1.61172
   D32       -2.62827   0.00021   0.00000  -0.00728  -0.00757  -2.63585
   D33       -0.55866  -0.00193   0.00000  -0.04857  -0.04884  -0.60749
   D34       -2.55585  -0.00237   0.00000  -0.01948  -0.01791  -2.57376
   D35       -0.50907  -0.00119   0.00000  -0.02870  -0.02908  -0.53814
   D36        1.56055  -0.00333   0.00000  -0.07000  -0.07034   1.49021
   D37        3.07355   0.00075   0.00000  -0.00568  -0.00610   3.06745
   D38       -1.02057  -0.00017   0.00000   0.00527   0.00545  -1.01512
   D39        1.06226  -0.00086   0.00000  -0.00659  -0.00635   1.05591
   D40        1.75416  -0.00479   0.00000  -0.12585  -0.12542   1.62874
   D41       -0.29548  -0.00512   0.00000  -0.11148  -0.11061  -0.40608
   D42       -2.33450  -0.00541   0.00000  -0.10948  -0.10924  -2.44374
   D43       -1.86610   0.00439   0.00000   0.04427   0.04971  -1.81638
   D44        2.66979  -0.01350   0.00000  -0.17108  -0.17313   2.49666
   D45       -1.03386  -0.00681   0.00000  -0.04878  -0.04995  -1.08381
   D46        3.05249   0.00032   0.00000   0.01306   0.01233   3.06482
   D47        0.96312   0.00060   0.00000   0.01840   0.01761   0.98073
   D48       -1.08488   0.00043   0.00000   0.01992   0.01938  -1.06551
   D49        0.88024  -0.00048   0.00000  -0.00449  -0.00365   0.87659
   D50       -1.20914  -0.00020   0.00000   0.00086   0.00164  -1.20750
   D51        3.02604  -0.00038   0.00000   0.00238   0.00340   3.02945
   D52       -1.12600  -0.00130   0.00000  -0.00766  -0.00773  -1.13372
   D53        3.06782  -0.00102   0.00000  -0.00231  -0.00244   3.06537
   D54        1.01981  -0.00119   0.00000  -0.00079  -0.00068   1.01913
   D55        0.76516  -0.00226   0.00000   0.02417   0.02424   0.78940
   D56        2.93539   0.00994   0.00000   0.14253   0.14174   3.07713
   D57       -1.31576   0.00093   0.00000   0.06856   0.06833  -1.24743
   D58       -1.02500  -0.00122   0.00000  -0.00788  -0.00813  -1.03313
   D59        1.35653  -0.00183   0.00000  -0.00695  -0.00734   1.34918
   D60        1.10592  -0.00014   0.00000   0.00008   0.00005   1.10596
   D61       -2.79574  -0.00075   0.00000   0.00102   0.00083  -2.79491
   D62       -3.12537  -0.00055   0.00000  -0.00601  -0.00597  -3.13134
   D63       -0.74385  -0.00116   0.00000  -0.00507  -0.00518  -0.74902
   D64       -0.00094  -0.00158   0.00000  -0.02804  -0.02836  -0.02931
   D65        1.88755   0.00024   0.00000  -0.00922  -0.00926   1.87829
   D66        2.25169  -0.00165   0.00000  -0.02525  -0.02558   2.22611
   D67       -2.14300   0.00017   0.00000  -0.00643  -0.00648  -2.14948
   D68       -1.78668   0.00104   0.00000   0.00271   0.00222  -1.78446
   D69       -1.49578   0.00024   0.00000   0.00675   0.00654  -1.48923
   D70        0.37929   0.00190   0.00000   0.01590   0.01554   0.39483
   D71       -0.62821  -0.01061   0.00000  -0.14167  -0.13983  -0.76804
   D72        0.11339  -0.00458   0.00000  -0.00960  -0.00855   0.10484
   D73        2.11511   0.00035   0.00000   0.03237   0.03514   2.15025
   D74        0.02129   0.00593   0.00000   0.09069   0.09514   0.11643
   D75       -1.86543   0.00003   0.00000   0.02846   0.02988  -1.83555
         Item               Value     Threshold  Converged?
 Maximum Force            0.016843     0.000450     NO 
 RMS     Force            0.004575     0.000300     NO 
 Maximum Displacement     0.682103     0.001800     NO 
 RMS     Displacement     0.159722     0.001200     NO 
 Predicted change in Energy=-1.761097D-02
 GradGradGradGradGradGradGradGradGradGradGradGradGradGradGradGradGradGrad

                          Input orientation:                          
 ---------------------------------------------------------------------
 Center     Atomic      Atomic             Coordinates (Angstroms)
 Number     Number       Type             X           Y           Z
 ---------------------------------------------------------------------
      1          6           0       -0.475436   -0.237896    0.856746
      2          6           0        0.786537    1.602331   -0.651272
      3          8           0        0.929609   -1.296545   -0.924921
      4          6           0        2.067346    0.792950   -0.490520
      5          6           0       -0.281279   -1.410739   -0.138893
      6          6           0       -0.378323    1.227813    0.306970
      7          1           0       -0.217552    1.851382    1.198213
      8          1           0        0.424244    1.450982   -1.678398
      9          1           0       -0.189306   -2.316928    0.475670
     10          1           0       -1.494397   -0.368039    1.235274
     11          6           0       -1.410411   -1.594057   -1.163789
     12          1           0       -1.134581   -2.394829   -1.862195
     13          1           0       -1.561202   -0.672421   -1.727066
     14          8           0       -2.678162   -1.871856   -0.557413
     15          1           0       -2.607131   -2.682929   -0.029489
     16          8           0        1.190339    2.955516   -0.477560
     17          1           0        0.403432    3.500184   -0.642941
     18          8           0       -1.559265    1.635811   -0.377281
     19          1           0       -2.355483    1.377387    0.143547
     20          8           0        0.358327   -0.397541    1.987348
     21          1           0        1.256163   -0.105047    1.715136
     22          1           0        2.704557    0.799243   -1.390922
     23          8           0        2.599832    0.543262    0.625732
     24          8           0        3.088901   -1.955869    0.193577
     25          1           0        3.188830   -0.976617    0.490163
     26          1           0        1.751208   -1.790483   -0.525535
     27          1           0        3.829008   -2.147454   -0.403446
     28          8           0       -3.849046    0.397231    0.632228
     29          1           0       -4.605831    0.717976    0.118738
     30          1           0       -3.571167   -0.431052    0.186661
 ---------------------------------------------------------------------
                    Distance matrix (angstroms):
                    1          2          3          4          5
     1  C    0.000000
     2  C    2.693163   0.000000
     3  O    2.503842   2.915275   0.000000
     4  C    3.056715   1.523617   2.418499   0.000000
     5  C    1.550663   3.237492   1.448147   3.239742   0.000000
     6  C    1.568435   1.554152   3.098487   2.608906   2.677718
     7  H    2.132647   2.119154   3.966499   3.031972   3.526095
     8  H    3.176269   1.099613   2.893445   2.131629   3.325250
     9  H    2.132947   4.193191   2.062719   3.961987   1.098783
    10  H    1.094761   3.555850   3.377036   4.124593   2.108842
    11  C    2.606898   3.912308   2.370921   4.271521   1.535890
    12  H    3.532629   4.597207   2.519046   4.721839   2.160168
    13  H    2.836156   3.441469   2.690187   4.103988   2.169241
    14  O    3.085721   4.907435   3.671792   5.442932   2.476456
    15  H    3.362696   5.501549   3.902870   5.843374   2.653304
    16  O    3.840971   1.422794   4.283472   2.333667   4.620016
    17  H    4.122464   1.936153   4.833734   3.181345   4.983981
    18  O    2.491643   2.361987   3.884985   3.724989   3.312332
    19  H    2.579219   3.248789   4.368451   4.506110   3.486509
    20  O    1.413828   3.338437   3.100949   3.236950   2.440608
    21  H    1.937244   2.955600   2.914825   2.515817   2.739705
    22  H    4.029890   2.206995   2.785663   1.103087   3.920053
    23  O    3.181328   2.457723   2.929003   1.261707   3.564208
    24  O    4.011948   4.321508   2.519581   3.011241   3.430134
    25  H    3.755920   3.704707   2.684939   2.313187   3.553285
    26  H    3.046173   3.529530   1.038513   2.602940   2.103497
    27  H    4.874703   4.835176   3.066349   3.428850   4.184160
    28  O    3.440210   4.958656   5.303691   6.034969   4.073371
    29  H    4.303314   5.518390   5.982359   6.701351   4.826961
    30  H    3.173307   4.881226   4.716108   5.809439   3.448063
                    6          7          8          9         10
     6  C    0.000000
     7  H    1.099545   0.000000
     8  H    2.153045   2.974409   0.000000
     9  H    3.553783   4.230564   4.383331   0.000000
    10  H    2.157339   2.560768   3.934400   2.465447   0.000000
    11  C    3.345339   4.344309   3.592082   2.168286   2.695492
    12  H    4.289608   5.313882   4.153791   2.522939   3.719093
    13  H    3.024466   4.090505   2.907440   3.072221   2.978685
    14  O    3.955296   4.795761   4.682178   2.731254   2.622306
    15  H    4.513833   5.270419   5.384919   2.497002   2.862956
    16  O    2.461939   2.451425   2.071843   5.532697   4.603002
    17  H    2.584017   2.548337   2.296047   5.953270   4.700276
    18  O    1.424530   2.080588   2.379365   4.269479   2.572927
    19  H    1.989533   2.430585   3.324422   4.295415   2.231557
    20  O    2.451143   2.451943   4.105980   2.503821   1.999768
    21  H    2.535940   2.503329   3.824838   2.918574   2.804463
    22  H    3.545512   4.043431   2.388981   4.644257   5.088287
    23  O    3.072398   3.158570   3.296385   3.997812   4.238481
    24  O    4.708538   5.141700   4.712889   3.310073   4.961145
    25  H    4.197339   4.483565   4.270694   3.634343   4.781022
    26  H    3.786565   4.484473   3.687414   2.246141   3.956987
    27  H    5.440473   5.910215   5.115336   4.116846   5.847253
    28  O    3.583515   3.952549   4.970955   4.559043   2.548269
    29  H    4.262299   4.659063   5.391535   5.370636   3.479526
    30  H    3.600078   4.180846   4.794143   3.882916   2.327345
                   11         12         13         14         15
    11  C    0.000000
    12  H    1.097765   0.000000
    13  H    1.090610   1.779594   0.000000
    14  O    1.432500   2.087726   2.013537   0.000000
    15  H    1.975959   2.368589   2.831585   0.970354   0.000000
    16  O    5.285209   5.995720   4.721671   6.186696   6.812754
    17  H    5.432551   6.213151   4.737694   6.193735   6.904397
    18  O    3.327582   4.316408   2.673922   3.686204   4.457633
    19  H    3.381090   4.443334   2.886484   3.339618   4.071785
    20  O    3.806541   4.586601   4.190110   4.227254   4.252596
    21  H    4.197139   4.874018   4.484218   4.874936   4.961273
    22  H    4.765757   5.016291   4.524985   6.066561   6.495617
    23  O    4.883910   5.363581   4.932317   5.923669   6.160365
    24  O    4.713509   4.717699   5.192260   5.816362   5.746578
    25  H    4.926440   5.122187   5.250852   6.026646   6.064215
    26  H    3.231376   3.237233   3.696728   4.430233   4.476343
    27  H    5.323146   5.179417   5.743001   6.514823   6.469194
    28  O    3.624618   4.624508   3.456104   2.816909   3.386386
    29  H    4.147419   5.065888   3.822298   3.298533   3.947522
    30  H    2.800922   3.740478   2.785779   1.851221   2.459072
                   16         17         18         19         20
    16  O    0.000000
    17  H    0.971204   0.000000
    18  O    3.051557   2.720045   0.000000
    19  H    3.930537   3.568816   0.985905   0.000000
    20  O    4.243938   4.702416   3.661031   3.730246   0.000000
    21  H    3.765541   4.391511   3.916047   4.208502   0.982732
    22  H    2.788655   3.626256   4.461781   5.319102   4.283665
    23  O    3.003814   3.895779   4.415630   5.048110   2.786298
    24  O    5.308170   6.138406   5.901821   6.383919   3.619674
    25  H    4.515765   5.392970   5.488319   6.033315   3.254019
    26  H    4.779266   5.460901   4.766623   5.229530   3.192959
    27  H    5.745291   6.609671   6.583864   7.139442   4.563301
    28  O    5.759502   5.416451   2.792183   1.852092   4.491103
    29  H    6.241614   5.780445   3.220251   2.345102   5.420235
    30  H    5.880644   5.651575   2.938997   2.179495   4.322559
                   21         22         23         24         25
    21  H    0.000000
    22  H    3.544457   0.000000
    23  O    1.847310   2.035531   0.000000
    24  O    3.016557   3.201406   2.582945   0.000000
    25  H    2.448550   2.631859   1.635644   1.028048   0.000000
    26  H    2.847168   2.892135   2.737141   1.527710   1.939272
    27  H    3.908881   3.304924   3.132097   0.970000   1.605996
    28  O    5.242913   6.870550   6.450535   7.339252   7.172123
    29  H    6.130972   7.465081   7.225590   8.146407   7.985383
    30  H    5.074015   6.586889   6.262851   6.832395   6.788764
                   26         27         28         29         30
    26  H    0.000000
    27  H    2.111773   0.000000
    28  O    6.122856   8.154788   0.000000
    29  H    6.864357   8.923557   0.969161   0.000000
[...]
 5871,0.00259824,-0.00028350,-0.00410929,0.00049941,0.00068103,-0.00015
 633,-0.00017286,0.00022909,0.00010627,-0.00010917,0.00006998,0.0003500
 0,-0.00039964,-0.00044079,0.00060509,0.00089169,-0.00012098,0.00085276
 ,-0.00002893,0.00006185,0.00065374,0.00025533,0.00013713,0.00018739,0.
 00014359,-0.00007198,0.00000744,-0.00072769,0.00017835,0.00047148,-0.0
 0005302,-0.00004346,-0.00014722,-0.00011251,0.00026601,0.00051513,0.00
 015454,0.00004792,-0.00011946,0.00041913,-0.00059063,0.00083691,-0.000
 16920,0.00002221,-0.00002820,0.00874766,-0.00405276,0.00335120,-0.0060
 0439,0.00306830,-0.00715803,0.00018910,0.00062153,-0.00033221,-0.00018
 260,-0.00014545,0.00555098,0.19254973,-0.14504745,0.14938899,-0.001412
 85,0.00008231,-0.00072971,-0.00088824,0.00124275,0.00085162,-0.0003042
 3,0.00167765,-0.00032658,-0.00029042,0.00606700,0.00258661,-0.00022919
 ,-0.00054625,0.00014819,-0.00047465,0.00031914,-0.00016007,0.00009803,
 -0.00000452,-0.00007687,-0.00010560,-0.00009562,-0.00077795,0.00012627
 ,0.00010691,-0.00012329,0.00026128,-0.00004404,0.00003417,-0.00016287,
 0.00006289,-0.00001621,0.00006813,0.00004021,0.00004847,-0.00002398,-0
 .00003090,-0.00002346,0.00021750,0.00006573,0.00005311,-0.00007999,-0.
 00006880,-0.00001901,0.00032045,-0.00095225,0.00011779,-0.00008934,-0.
 00000016,-0.00004081,0.00037034,-0.00022281,0.00018960,-0.00023932,0.0
 0000627,0.00006861,0.00158029,0.00080861,-0.00035649,-0.00410806,-0.00
 336018,0.00327045,-0.00003117,0.00045227,-0.00081396,-0.00788414,-0.00
 483554,-0.00191376,-0.09398088,-0.14395483,-0.00451903,0.09613718,-0.0
 0112409,0.00160600,-0.00139966,-0.00096258,0.00051701,0.00064679,0.003
 60593,-0.00204086,0.00037434,0.01907388,-0.00624462,0.00436100,-0.0013
 1764,0.00077508,0.00170288,0.00271902,0.00135308,-0.00144927,0.0000024
 4,-0.00013932,-0.00004464,0.00032814,0.00043573,0.00006120,-0.00005268
 ,-0.00040632,-0.00007654,0.00020554,-0.00057337,0.00018886,-0.00036497
 ,0.00000814,-0.00013050,-0.00006202,-0.00011022,-0.00004820,0.00017158
 ,0.00013609,0.00016751,0.00060523,-0.00027307,-0.00024092,-0.00008839,
 0.00000866,0.00002421,-0.00249600,0.00039554,-0.00110603,0.00089410,0.
 00032464,-0.00046461,-0.00247584,-0.00101982,0.00037835,0.00072009,0.0
 0019019,-0.00051141,0.00253194,-0.00461048,-0.00000045,-0.00574938,0.0
 0542736,0.00309121,-0.00381393,0.00218288,0.00133289,-0.01348973,0.006
 63277,-0.00330691,-0.09137304,-0.37678973,0.04109346,0.10890593,0.3863
 3513,0.00099568,-0.00021545,0.00115805,0.00026065,0.00183032,0.0006903
 5,0.00017000,0.00090366,-0.00117119,0.00152537,-0.00019567,0.00116745,
 -0.00056157,0.00034861,0.00053095,0.00014354,-0.00035232,-0.00001820,0
 .00018794,-0.00006659,-0.00011954,-0.00043703,-0.00007942,-0.00061215,
 0.00012211,0.00004091,-0.00009566,-0.00024497,0.00005093,-0.00017314,0
 .00004002,-0.00007102,-0.00006391,-0.00006770,-0.00004450,-0.00005020,
 -0.00002411,0.00002112,0.00001746,0.00004299,-0.00005927,-0.00011735,0
 .00003084,0.00003109,0.00003485,-0.00022244,-0.00033157,-0.00051977,-0
 .00004072,0.00001179,-0.00003463,-0.00024374,0.00019904,-0.00030365,0.
 00007652,-0.00002935,-0.00001400,-0.00200766,-0.00058577,-0.00059744,0
 .00452842,0.00265516,-0.00116334,-0.00080601,-0.00116662,0.00132573,-0
 .00062189,-0.00178261,-0.00967135,-0.01751689,0.01952621,-0.02436215,0
 .00590577,-0.04039878,0.03506110,0.00310960,0.00115994,0.00071245,-0.0
 0037475,-0.00010620,0.00004243,-0.35231867,0.09596542,-0.13006816,0.00
 340061,-0.00122738,0.00075841,-0.02963200,0.00649061,-0.00649173,0.000
 23679,0.00098873,-0.00028217,-0.00004326,-0.00042655,0.00000547,0.0008
 8873,0.00058582,-0.00013157,0.00303888,0.00021256,-0.00273822,-0.00019
 066,-0.00080047,-0.00086092,-0.00257451,-0.00044896,0.00423051,0.00002
 454,-0.00015982,-0.00010347,0.00021940,0.00021572,0.00003475,0.0007412
 4,-0.00000194,-0.00093927,-0.00042195,-0.00008420,-0.00005292,-0.00066
 588,-0.00039331,0.00002159,0.00026991,0.00025949,-0.00021178,-0.000442
 54,-0.00057995,-0.00017704,-0.00010850,0.00016785,-0.00003753,-0.00300
 793,0.00008402,-0.00016105,0.00509188,-0.00123537,-0.00106636,-0.00049
 305,0.00014360,0.00013984,-0.00234607,0.00351843,-0.00011203,-0.005116
 78,-0.00119567,-0.00038009,0.00085884,-0.00646412,0.00043050,0.3800666
 8,0.00211218,-0.00028944,0.00020456,0.00032749,-0.00169272,-0.00079446
 ,0.11026995,-0.03909523,0.04823756,-0.00040103,-0.00088759,-0.00057620
 ,-0.00391637,-0.00247580,0.00162878,0.00088949,-0.00014585,0.00019270,
 -0.00023128,0.00003426,0.00008821,0.00023411,-0.00075407,0.00089294,-0
 .00100046,0.00106377,-0.00068326,-0.00019624,0.00005538,0.00008967,-0.
 00083327,-0.00035386,0.00119025,0.00009592,0.00001886,0.00017334,-0.00
 011339,0.00012388,-0.00027358,-0.00180960,0.00058133,0.00004782,0.0000
 9267,0.00022177,-0.00008555,-0.00052605,0.00120974,-0.00003658,0.00024
 751,0.00006111,0.00006031,-0.00069455,-0.00002426,-0.00023573,0.000264
 66,0.00003263,-0.00012415,-0.00068526,-0.00054342,0.00053274,-0.000445
 79,0.00085599,-0.00247071,0.00010996,0.00019521,0.00010585,0.00049244,
 0.00000502,0.00050135,-0.00041216,-0.00949414,0.00094835,-0.00350710,0
 .00098706,-0.00296793,-0.10148154,0.04905806,0.00409318,-0.00076058,0.
 00103567,-0.00009923,0.00014810,0.00045257,-0.17675923,0.05860307,-0.1
 2331902,0.00129261,-0.00078546,0.00047349,0.03462441,-0.00970140,0.012
 07107,0.00020729,-0.00014240,-0.00011298,0.00004555,-0.00011590,-0.000
 04724,-0.00002119,0.00031173,0.00000395,0.00055099,0.00093129,-0.00013
 637,-0.00034251,-0.00007173,-0.00042293,0.00118326,-0.00025210,-0.0051
 6363,-0.00011243,0.00019015,-0.00005878,-0.00007375,-0.00022170,0.0000
 3466,0.00305827,-0.00003476,0.00004338,-0.00017174,-0.00017174,0.00021
 939,-0.00017802,-0.00014162,-0.00024024,0.00003659,0.00003280,-0.00000
 853,-0.00055459,0.00006639,-0.00028487,0.00017439,0.00011543,-0.000065
 12,-0.00260725,0.00146951,-0.00011548,0.00107798,-0.00280820,-0.004235
 05,-0.00026761,0.00002412,0.00009661,-0.00085458,0.00182135,-0.0003316
 4,-0.00293142,-0.00024794,-0.00402317,0.00134887,-0.00342144,0.0017198
 4,0.13608378,-0.04762982,0.12282085,-0.00020036,-0.00014681,-0.0004254
 4,0.00004555,0.00001822,-0.00007031,-0.00121220,-0.00040937,-0.0006991
 9,-0.00064176,0.00043950,-0.00013295,0.00080372,0.00023497,-0.00094637
 ,-0.00004926,0.00000979,0.00000523,-0.00000886,0.00001529,0.00000561,-
 0.00007915,-0.00003885,0.00000644,-0.00015537,-0.00017081,0.00022295,0
 .00004546,0.00003614,0.00008060,-0.00002349,-0.00008023,0.00018963,0.0
 0004226,0.00002572,0.00000870,0.00005038,-0.00001531,0.00001505,-0.000
 14847,0.00001178,0.00006105,-0.00002583,0.00000951,-0.00002921,0.00005
 533,-0.00004308,0.00008910,-0.00000936,0.00000632,-0.00000950,0.000132
 12,-0.00006173,0.00009375,-0.00004873,0.00000606,0.00001416,0.00049363
 ,-0.00035944,0.00138726,-0.00195962,0.00133930,-0.00214937,0.00015177,
 -0.00005432,-0.00008784,0.00004513,-0.00197987,-0.00042941,-0.28400340
 ,0.18127715,-0.18172496,0.01019572,-0.00943275,0.00835656,-0.00007238,
 0.00125618,0.00136123,0.27655798,0.00024426,-0.00009171,0.00037645,-0.
 00009632,0.00007281,0.00025466,-0.00350890,-0.00000775,-0.00120678,0.0
 0008717,-0.00003570,0.00010178,0.00057322,0.00028639,-0.00095136,0.000
 12539,-0.00012586,-0.00006059,0.00000671,0.00000113,-0.00000270,0.0000
 9670,-0.00012514,0.00005048,-0.00009377,-0.00012635,0.00020517,-0.0000
 9030,0.00004514,0.00002267,0.00014723,0.00001434,0.00015389,-0.0000259
 7,-0.00002115,-0.00003055,0.00002744,0.00000184,0.00001968,-0.00031135
 ,-0.00005879,0.00001242,0.00005238,0.00006827,0.00000381,-0.00010476,0
 .00008712,-0.00011707,0.00003147,-0.00001901,0.00001803,-0.00024861,0.
 00009018,-0.00006362,0.00013404,-0.00000998,-0.00004820,-0.00091623,0.
 00023214,0.00002432,0.00166368,-0.00074874,-0.00056032,0.00005643,-0.0
 0000184,-0.00005948,-0.00129206,-0.00172732,-0.00126701,0.13289796,-0.
 15656576,0.10405634,0.03777365,-0.01514793,0.02270707,0.00469629,0.001
 28011,0.00263641,-0.17188657,0.17264727,-0.00028504,0.00003695,-0.0000
 2441,-0.00006509,-0.00004082,0.00004242,-0.00070311,-0.00015698,0.0003
 2085,-0.00018658,0.00013513,0.00007514,-0.00017909,-0.00013818,-0.0004
 0963,-0.00004915,-0.00001770,0.00003069,0.00000789,0.00000047,-0.00001
 347,-0.00000970,-0.00004365,0.00000131,-0.00002148,0.00001355,0.000053
 17,0.00004390,0.00001532,0.00001649,-0.00001275,0.00004052,0.00019465,
 0.00000849,-0.00001775,-0.00000349,0.00000537,0.00000065,-0.00000440,-
 0.00011632,-0.00000599,-0.00003214,0.00002147,0.00001970,0.00001804,0.
 00006284,0.00003622,-0.00004374,-0.00002592,-0.00001442,0.00003322,0.0
 0001717,0.00004397,-0.00004192,-0.00000834,-0.00001000,0.00001601,0.00
 146864,-0.00034841,-0.00219334,-0.00095919,-0.00054157,0.00390129,0.00
 007588,-0.00003862,-0.00005076,0.00014698,-0.00064552,-0.00021396,-0.1
 7069196,0.12817409,-0.11706386,-0.00468030,-0.00110418,-0.00263227,0.0
 0130418,0.00091284,-0.00050366,0.17482009,-0.12630028,0.11853504,0.000
 72617,-0.00066974,0.00005573,-0.00138206,-0.00063141,-0.00100109,-0.00
 017108,0.00065539,0.00038734,0.00143731,-0.00018266,0.00147191,0.00018
 324,-0.00082995,-0.00045326,0.00490519,-0.00145715,0.00489086,-0.00027
 800,0.00002467,-0.00077427,-0.00000149,-0.00001753,-0.00002281,-0.0000
 1648,0.00030978,-0.00001113,-0.00055274,-0.00001564,0.00028954,0.00003
 239,-0.00073788,0.00019813,0.00002408,0.00028607,0.00007712,-0.0002454
 6,-0.00034085,-0.00052664,0.00260319,0.00561551,0.00074410,-0.00059452
 ,0.00030655,0.00070681,-0.00162879,-0.00040310,0.00000376,0.00139664,0
 .00165519,-0.00079371,-0.02188940,-0.00321247,0.00977590,0.00175484,0.
 00418464,-0.00164569,-0.00113847,0.00111127,-0.00059892,0.00026561,-0.
 00033498,-0.00016796,-0.00001849,-0.00004616,-0.00018221,-0.00124676,0
 .00064063,-0.00047627,-0.00034725,0.00050578,0.00012020,0.00019998,-0.
 00046171,-0.00006437,0.00022439,-0.00021855,-0.00004761,0.00003946,-0.
 00011917,-0.00000174,0.39866085,-0.00136888,-0.00126314,0.00025947,-0.
 00058300,-0.00045328,-0.00037878,0.00180922,0.00038987,-0.00011686,0.0
 0046321,-0.00048812,0.00046622,-0.00094127,-0.00014174,-0.00073503,0.0
 0172174,-0.00141180,0.00274594,0.00005689,0.00010883,-0.00020856,-0.00
 011386,-0.00005037,0.00006466,0.00001815,0.00025553,-0.00004258,0.0002
 0649,0.00008580,-0.00060703,-0.00503668,-0.00321848,0.00387243,0.00153
 835,0.00006968,-0.00101809,-0.00010232,-0.00010850,-0.00029235,0.00937
 391,-0.01269516,-0.00451103,0.00119377,-0.00133231,-0.00251780,-0.0005
 2522,0.00067606,-0.00020406,0.00071984,0.00015451,-0.00029380,-0.00843
 901,0.00592189,0.00089121,0.00736401,-0.01064161,0.00141077,0.00077123
 ,0.00094853,0.00004163,-0.00019840,-0.00011933,0.00001818,-0.00000568,
 0.00005925,-0.00000373,-0.00046856,0.00057730,-0.00016655,0.00036074,0
 .00030133,0.00005077,-0.00002391,-0.00048448,0.00000453,-0.00036826,-0
 .00002906,-0.00025327,-0.00000056,0.00000693,0.00002503,-0.14911545,0.
 51631480,0.00133097,0.00063417,-0.00103702,0.00119742,0.00046705,0.000
 84621,0.00017583,-0.00006430,0.00029894,-0.00073053,0.00011862,-0.0010
 4475,-0.00047487,-0.00021135,-0.00025774,-0.00206023,0.00131368,-0.004
 31697,0.00062349,0.00026432,0.00077319,-0.00009053,-0.00003505,0.00004
 192,0.00013929,-0.00012793,0.00009598,-0.00043882,-0.00040145,0.000389
 73,-0.00053685,0.00082173,-0.00011594,0.00003071,-0.00019764,0.0001189
 4,-0.00047311,0.00026794,0.00065193,0.00052126,-0.00307008,0.00458905,
 0.00121888,-0.00149516,-0.00156006,0.00087663,-0.00007333,0.00029831,-
 0.00095893,-0.00086468,0.00029680,0.01313243,0.00062822,0.00230967,-0.
 00653829,-0.00018407,-0.00923256,-0.00015117,-0.00033110,0.00071891,-0
 .00009940,-0.00000899,-0.00009014,0.00002214,0.00005573,0.00012342,0.0
 0068137,-0.00038099,0.00037592,0.00008450,-0.00020074,0.00011098,-0.00
 006584,0.00025543,-0.00002449,-0.00013252,0.00008016,-0.00005687,0.000
 00222,0.00004729,-0.00001934,0.20855583,0.03627868,0.19058384,0.000340
 68,0.00013206,-0.00021604,0.00006489,0.00002489,0.00010153,0.00011173,
 -0.00001583,0.00002930,-0.00015881,0.00001206,-0.00013112,-0.00014286,
 -0.00006702,-0.00002830,-0.00012559,0.00012551,-0.00052675,0.00010659,
 0.00004306,0.00009624,0.00000072,-0.00000973,0.00000223,0.00004072,-0.
 00001897,0.00002403,-0.00033749,0.00002530,0.00009470,-0.00020751,0.00
 015055,0.00000869,0.00006973,-0.00009059,-0.00000492,-0.00013518,0.000
 05336,0.00013552,0.00026505,-0.00057185,-0.00015510,0.00024748,-0.0000
 7843,-0.00001506,0.00008797,-0.00004419,0.00000954,-0.00016787,-0.0000
 0698,0.00003813,0.00063015,-0.00086588,0.00191642,-0.00374924,0.001667
 83,-0.00343790,-0.00000147,-0.00005836,0.00016009,-0.00005058,0.000000
 69,-0.00001717,0.00000258,0.00000909,0.00000970,0.00013974,-0.00006881
 ,0.00005475,0.00005154,-0.00005179,0.00001194,-0.00002354,0.00004871,0
 .00000046,-0.00005332,0.00002495,-0.00001598,-0.00000316,0.00001729,0.
 00000035,-0.33359002,0.12956895,-0.19872450,0.34171511,0.00008581,0.00
 004911,0.00006453,-0.00007841,0.00009504,-0.00008196,-0.00020926,-0.00
 000394,0.00004461,0.00009208,0.00005325,0.00012200,0.00007522,-0.00000
 203,0.00000898,0.00053671,-0.00006903,0.00011279,0.00005059,0.00003997
 ,-0.00005371,0.00000687,-0.00001378,-0.00000327,-0.00003136,0.00000059
 ,-0.00000142,0.00009039,-0.00020353,0.00008957,0.00018623,-0.00012609,
 -0.00022726,0.00002128,0.00004524,-0.00004012,0.00010886,0.00003570,-0
 .00006985,-0.00050569,-0.00159264,-0.00119062,-0.00004621,0.00004279,0
 .00001297,-0.00008870,-0.00023816,0.00005435,0.00002254,0.00025493,-0.
 00006201,-0.00184364,-0.00075421,0.00170531,0.00121871,0.00214892,-0.0
 0348729,-0.00013560,-0.00002308,-0.00005715,0.00006275,0.00000750,-0.0
 0001354,-0.00000157,-0.00001364,-0.00002913,-0.00006394,-0.00001994,-0
 .00003596,-0.00008254,-0.00000414,0.00000646,0.00002341,0.00002976,-0.
 00000706,0.00007156,-0.00000544,0.00002457,0.00000683,-0.00000834,-0.0
 0000462,0.08491475,-0.08409978,0.04277994,-0.12606054,0.09381645,0.000
 05884,0.00000563,0.00004082,-0.00000821,0.00000466,-0.00003158,-0.0000
 5374,0.00002793,-0.00000022,0.00008079,0.00004476,0.00007332,0.0000105
 6,0.00003788,-0.00001665,-0.00003939,-0.00005273,0.00011197,-0.0000495
 6,0.00000368,-0.00006107,0.00000246,0.00000145,0.00000247,-0.00004738,
 0.00002097,-0.00003618,0.00008724,-0.00010839,-0.00001574,-0.00009168,
 -0.00026896,0.00028314,0.00003928,0.00003243,-0.00005619,0.00017483,-0
 .00000016,-0.00005907,0.00031813,-0.00071982,-0.00075801,-0.00019948,-
 0.00001035,0.00005235,0.00000389,0.00000430,-0.00004165,0.00006365,-0.
 00000874,0.00005166,0.00134261,0.00080702,-0.00215615,0.00015040,-0.00
 186231,0.00295264,-0.00007953,0.00004144,-0.00011719,0.00003709,-0.000
 01721,0.00000717,-0.00000518,-0.00001581,-0.00000698,-0.00006383,0.000
 00467,-0.00003721,-0.00004429,0.00002266,-0.00001496,0.00001676,-0.000
 00996,0.00000497,0.00005033,-0.00001067,0.00001288,0.00000005,-0.00001
 068,0.00000501,-0.21577470,0.07674534,-0.13673740,0.20593627,-0.067990
 61,0.13279051,-0.00208649,-0.00032285,0.00028690,-0.00004634,0.0000125
 6,0.00014199,0.00098487,-0.00018257,-0.00040409,-0.00028782,-0.0002425
 1,-0.00018509,-0.00094887,0.00070537,0.00031570,-0.00060742,-0.0010041
 1,0.00006355,0.00017172,0.00014229,0.00011775,-0.00004233,-0.00003686,
 0.00003356,0.00006195,-0.00004373,-0.00002480,-0.00019279,0.00003220,-
 0.00119132,-0.00344483,0.00146535,0.00268624,0.00056057,-0.00036747,-0
 .00050368,0.00011817,0.00011830,0.00040812,-0.00363481,-0.00341031,0.0
 0045405,0.00080517,-0.00058136,-0.00180663,0.00016173,0.00049620,-0.00
 025783,-0.00005169,-0.00028075,0.00014858,-0.00161201,0.00260785,0.000
 78808,0.00327203,-0.00701838,-0.00183438,0.00137958,-0.00003358,0.0002
 5978,-0.00021318,0.00016572,0.00016630,0.00000280,0.00004807,0.0000400
 0,0.00021206,0.00008884,0.00005391,0.00037341,-0.00006943,-0.00006518,
 -0.00010555,-0.00008370,0.00004173,-0.00030924,0.00005512,-0.00010126,
 -0.00001709,0.00006273,0.00001251,-0.04935233,0.01212456,-0.01711739,-
 0.00512804,0.04157285,0.00808381,0.05997676,-0.00005078,0.00115999,0.0
 0050080,0.00043149,0.00043579,0.00022753,-0.00247209,-0.00064799,-0.00
 026543,-0.00048374,0.00041164,-0.00044063,0.00128422,0.00047123,0.0016
 8442,-0.00263663,0.00126072,-0.00171613,0.00000691,-0.00037952,0.00016
 885,0.00017594,0.00009676,-0.00010083,0.00005623,-0.00032892,0.0000825
 8,0.00023766,0.00072192,0.00017963,0.00795575,0.00578918,-0.00671233,-
 0.00261695,0.00011966,0.00175109,-0.00047547,0.00026868,0.00088270,-0.
 00550482,-0.00589461,0.00303113,-0.00175869,0.00027892,0.00253846,0.00
 066449,-0.00043982,0.00013534,-0.00069886,-0.00033473,0.00030964,0.006
 24844,-0.00052318,-0.00142405,-0.00946334,-0.00414429,0.00338942,-0.00
 029824,-0.00126783,-0.00036558,0.00023096,0.00025066,0.00012849,-0.000
 00094,-0.00006209,-0.00000056,0.00045640,-0.00055336,0.00013841,-0.000
 36918,-0.00033827,-0.00016653,0.00001217,0.00049509,0.00002347,0.00041
 368,0.00000669,0.00038513,-0.00001307,-0.00001229,-0.00002576,0.058584
 19,-0.40933316,-0.07636612,-0.00389531,-0.00944148,-0.00671843,-0.0460
 2043,0.42193460,-0.00111257,0.00004772,0.00097247,-0.00013541,0.000004
 53,-0.00002475,-0.00065835,-0.00023250,-0.00037041,0.00007875,0.000021
 12,0.00013549,0.00066159,0.00045882,0.00066572,0.00091719,-0.00029783,
 0.00057658,-0.00019329,-0.00013318,-0.00020494,0.00006370,0.00002783,-
 0.00003098,-0.00012685,-0.00000767,-0.00006096,-0.00035088,0.00036551,
 -0.00039277,0.00218164,-0.00152791,-0.00219433,-0.00015996,0.00023801,
 -0.00003775,0.00049755,-0.00008806,-0.00056431,0.00187836,-0.00064900,
 -0.00882508,-0.00256575,0.00354702,0.00319298,-0.00013613,-0.00002305,
 -0.00011203,0.00015401,0.00017498,-0.00000848,-0.00044244,-0.00116488,
 -0.00114023,-0.00015351,0.00386393,0.00165796,0.00025438,-0.00027500,-
 0.00035965,0.00006233,0.00015801,0.00011700,-0.00000872,-0.00002985,-0
 .00002081,-0.00006043,-0.00000843,-0.00006871,-0.00006324,-0.00004430,
 -0.00013693,0.00000333,0.00003535,0.00003366,0.00013261,0.00000121,0.0
 0014120,-0.00001512,-0.00001182,0.00000704,-0.00473484,-0.11152533,-0.
 04813045,-0.00535704,0.02832951,0.00375733,0.00938912,0.07874526,0.051
 42615\\0.00005569,-0.00003269,-0.00001997,0.00006063,-0.00009859,-0.00
 002439,-0.00001858,-0.00002075,-0.00003275,0.00003031,-0.00001252,0.00
 001158,-0.00001741,0.00002907,0.00001639,-0.00001494,0.00003599,0.0000
 1122,-0.00000357,-0.00001191,0.00000317,-0.00002045,0.00001836,0.00001
 179,-0.00000457,0.00000367,0.00000095,-0.00000108,0.00000736,0.0000094
 0,0.00000254,-0.00000458,-0.00000992,0.00000001,-0.00000256,0.00000576
 ,0.00000091,-0.00000696,0.00000473,-0.00000005,0.00000476,0.00003310,0
 .00000006,-0.00000929,-0.00001233,-0.00000316,0.00002866,-0.00002639,0
 .00000990,-0.00000325,0.00000237,-0.00003202,-0.00001633,-0.00002718,0
 .00003247,0.00000794,0.00004922,0.00000481,-0.00000803,-0.00004631,-0.
 00000977,0.00002096,0.00002026,0.00000042,-0.00000721,-0.00000306,-0.0
 0006398,0.00000863,-0.00000264,0.00002150,-0.00005386,0.00001989,0.000
 00068,0.00005634,-0.00003095,-0.00001242,0.00004720,0.00004890,-0.0000
 0902,-0.00000758,0.00000803,-0.00000922,0.00002412,-0.00001877,-0.0000
 0631,-0.00000420,0.00000780,0.00000663,0.00000724,-0.00000990\\\@


 THE VALUE OF PHILOSOPHY IS, IN FACT, TO BE SOUGHT LARGELY IN ITS
 VERY UNCERTAINTY.  THE MAN WHO HAS NO TINCTURE OF PHILOSOPHY GOES
 THROUGH LIFE IMPRISONED IN THE PREJUDICES DERIVED FROM COMMON SENSE,
 FROM THE HABITUAL BELIEFS OF HIS AGE OR HIS NATION, AND FROM
 CONVICTIONS WHICH HAVE GROWN UP IN HIS MIND WITHOUT THE CO-OPERATION
 OR CONSENT OF HIS DELIBERATE REASON.  TO SUCH A MAN THE WORLD TENDS
 TO BE DEFINITE, FINITE, OBVIOUS; COMMON OBJECTS ROUSE NO QUESTIONS,
 AND UNFAMILIAR POSSIBILITIES ARE CONTEMPTUOUSLY REJECTED.

                             -- BERTRAND RUSSELL
 Job cpu time:       0 days  0 hours 36 minutes 26.2 seconds.
 File lengths (MBytes):  RWF=    221 Int=      0 D2E=      0 Chk=      6 Scr=      1
 Normal termination of Gaussian 09 at Sun Jan 15 14:39:16 2017.
