 Entering Gaussian System, Link 0=g09
 Initial command:
 /global/software/gaussian/g09.e01/l1.exe "/scratch/10462926.yak.local/Gau-10889.inp" -scrdir="/scratch/10462926.yak.local/"
 Entering Link 1 = /global/software/gaussian/g09.e01/l1.exe PID=     10890.
  
 Copyright (c) 1988,1990,1992,1993,1995,1998,2003,2009,2015,
            Gaussian, Inc.  All Rights Reserved.
  
 This is part of the Gaussian(R) 09 program.  It is based on
 the Gaussian(R) 03 system (copyright 2003, Gaussian, Inc.),
 the Gaussian(R) 98 system (copyright 1998, Gaussian, Inc.),
 the Gaussian(R) 94 system (copyright 1995, Gaussian, Inc.),
 the Gaussian 92(TM) system (copyright 1992, Gaussian, Inc.),
 the Gaussian 90(TM) system (copyright 1990, Gaussian, Inc.),
 the Gaussian 88(TM) system (copyright 1988, Gaussian, Inc.),
 the Gaussian 86(TM) system (copyright 1986, Carnegie Mellon
 University), and the Gaussian 82(TM) system (copyright 1983,
 Carnegie Mellon University). Gaussian is a federally registered
 trademark of Gaussian, Inc.
  
 This software contains proprietary and confidential information,
 including trade secrets, belonging to Gaussian, Inc.
  
 This software is provided under written license and may be
 used, copied, transmitted, or stored only in accord with that
 written license.
  
 The following legend is applicable only to US Government
 contracts under FAR:
  
                    RESTRICTED RIGHTS LEGEND
  
 Use, reproduction and disclosure by the US Government is
 subject to restrictions as set forth in subparagraphs (a)
 and (c) of the Commercial Computer Software - Restricted
 Rights clause in FAR 52.227-19.
  
 Gaussian, Inc.
 340 Quinnipiac St., Bldg. 40, Wallingford CT 06492
  
  
 ---------------------------------------------------------------
 Warning -- This program may not be used in any manner that
 competes with the business of Gaussian, Inc. or will provide
 assistance to any competitor of Gaussian, Inc.  The licensee
 of this program is prohibited from giving any competitor of
 Gaussian, Inc. access to this program.  By using this program,
 the user acknowledges that Gaussian, Inc. is engaged in the
 business of creating and licensing software in the field of
 computational chemistry and represents and warrants to the
 licensee that it is not a competitor of Gaussian, Inc. and that
 it will not use this program in any manner prohibited above.
 ---------------------------------------------------------------
  

 Cite this work as:
 Gaussian 09, Revision E.01,
 M. J. Frisch, G. W. Trucks, H. B. Schlegel, G. E. Scuseria, 
 M. A. Robb, J. R. Cheeseman, G. Scalmani, V. Barone, B. Mennucci, 
 G. A. Petersson, H. Nakatsuji, M. Caricato, X. Li, H. P. Hratchian, 
 A. F. Izmaylov, J. Bloino, G. Zheng, J. L. Sonnenberg, M. Hada, 
 M. Ehara, K. Toyota, R. Fukuda, J. Hasegawa, M. Ishida, T. Nakajima, 
 Y. Honda, O. Kitao, H. Nakai, T. Vreven, J. A. Montgomery, Jr., 
 J. E. Peralta, F. Ogliaro, M. Bearpark, J. J. Heyd, E. Brothers, 
 K. N. Kudin, V. N. Staroverov, T. Keith, R. Kobayashi, J. Normand, 
 K. Raghavachari, A. Rendell, J. C. Burant, S. S. Iyengar, J. Tomasi, 
 M. Cossi, N. Rega, J. M. Millam, M. Klene, J. E. Knox, J. B. Cross, 
 V. Bakken, C. Adamo, J. Jaramillo, R. Gomperts, R. E. Stratmann, 
 O. Yazyev, A. J. Austin, R. Cammi, C. Pomelli, J. W. Ochterski, 
 R. L. Martin, K. Morokuma, V. G. Zakrzewski, G. A. Voth, 
 P. Salvador, J. J. Dannenberg, S. Dapprich, A. D. Daniels, 
 O. Farkas, J. B. Foresman, J. V. Ortiz, J. Cioslowski, 
 and D. J. Fox, Gaussian, Inc., Wallingford CT, 2013.
 
 ******************************************
 Gaussian 09:  ES64L-G09RevE.01 30-Nov-2015
                15-Jan-2017 
 ******************************************
 %NPROCS=4
 Will use up to    4 processors via shared memory.
 -----------------------------------------
 # opt=(MaxCycle=1000) freq B3LYP/6-31G(d)
 -----------------------------------------
 1/6=1000,14=-1,18=20,19=15,26=3,38=1/1,3;
 2/9=110,12=2,17=6,18=5,40=1/2;
 3/5=1,6=6,7=1,11=2,16=1,25=1,30=1,71=1,74=-5/1,2,3;
 4//1;
 5/5=2,38=5/2;
 6/7=2,8=2,9=2,10=2,28=1/1;
 7//1,2,3,16;
 1/6=1000,14=-1,18=20,19=15,26=3/3(2);
 2/9=110/2;
 99//99;
 2/9=110/2;
 3/5=1,6=6,7=1,11=2,16=1,25=1,30=1,71=1,74=-5/1,2,3;
 4/5=5,16=3,69=1/1;
 5/5=2,38=5/2;
 7//1,2,3,16;
 1/6=1000,14=-1,18=20,19=15,26=3/3(-5);
 2/9=110/2;
 6/7=2,8=2,9=2,10=2,19=2,28=1/1;
 99/9=1/99;
 -----------------------------------------------
 ./boats/3/glo_2w_alpha_ts_boat3_B3LYP_631Gd.out
 -----------------------------------------------
 Symbolic Z-matrix:
 Charge =  0 Multiplicity = 1
 C                     1.02453   0.22745   1.09137 
 C                     0.46809  -1.50584  -0.74938 
 O                    -0.52557   0.67911  -0.78844 
 C                    -0.89649  -0.83423  -0.6566 
 C                     0.51508   1.24214   0.06007 
 C                     1.35137  -1.15381   0.45942 
 H                     1.16772  -1.9022    1.24192 
 H                     0.94428  -1.07479  -1.64095 
 H                     0.05777   2.06996   0.62104 
 H                     1.94561   0.64331   1.51573 
 C                     1.62252   1.80705  -0.84739 
 H                     1.15906   2.41059  -1.64224 
 H                     2.17964   0.9942   -1.31832 
 O                     2.58311   2.55224  -0.10744 
 H                     2.13993   3.33881   0.24845 
 O                     0.30525  -2.90394  -0.90999 
 H                     1.19835  -3.26824  -1.02067 
 O                     2.69324  -1.25613  -0.0304 
 H                     3.2959   -1.15335   0.72305 
 O                     0.11807   0.08637   2.17089 
 H                    -0.65242  -0.40141   1.81147 
 H                    -1.47613  -0.96902  -1.57589 
 O                    -1.60341  -1.11903   0.46045 
 O                    -2.64043   1.9001   -0.5448 
 H                    -1.74447   1.46048  -0.6979 
 H                    -2.98003   2.13361  -1.42134 
 O                    -3.81109  -0.05507   0.32744 
 H                    -2.57309  -0.7701    0.39554 
 H                    -3.44888   0.84153   0.01151 
 H                    -4.1337    0.07811   1.23131 
 
 Add virtual bond connecting atoms H28        and O27        Dist= 2.70D+00.
 Add virtual bond connecting atoms O3         and H25        Dist= 2.74D+00.
 Add virtual bond connecting atoms H29        and O24        Dist= 2.73D+00.

 GradGradGradGradGradGradGradGradGradGradGradGradGradGradGradGradGradGrad
 Berny optimization.
 Initialization pass.
                           ----------------------------
                           !    Initial Parameters    !
                           ! (Angstroms and Degrees)  !
 --------------------------                            --------------------------
 ! Name  Definition              Value          Derivative Info.                !
 --------------------------------------------------------------------------------
 ! R1    R(1,5)                  1.5339         estimate D2E/DX2                !
 ! R2    R(1,6)                  1.5537         estimate D2E/DX2                !
 ! R3    R(1,10)                 1.0961         estimate D2E/DX2                !
 ! R4    R(1,20)                 1.4167         estimate D2E/DX2                !
 ! R5    R(2,4)                  1.5237         estimate D2E/DX2                !
 ! R6    R(2,6)                  1.538          estimate D2E/DX2                !
 ! R7    R(2,8)                  1.0988         estimate D2E/DX2                !
 ! R8    R(2,16)                 1.4167         estimate D2E/DX2                !
 ! R9    R(3,4)                  1.5637         estimate D2E/DX2                !
 ! R10   R(3,5)                  1.456          estimate D2E/DX2                !
 ! R11   R(3,25)                 1.4507         estimate D2E/DX2                !
 ! R12   R(4,22)                 1.0951         estimate D2E/DX2                !
 ! R13   R(4,23)                 1.3523         estimate D2E/DX2                !
 ! R14   R(5,9)                  1.0996         estimate D2E/DX2                !
 ! R15   R(5,11)                 1.5392         estimate D2E/DX2                !
 ! R16   R(6,7)                  1.0982         estimate D2E/DX2                !
 ! R17   R(6,18)                 1.4321         estimate D2E/DX2                !
 ! R18   R(11,12)                1.1004         estimate D2E/DX2                !
 ! R19   R(11,13)                1.0922         estimate D2E/DX2                !
 ! R20   R(11,14)                1.4232         estimate D2E/DX2                !
 ! R21   R(14,15)                0.9704         estimate D2E/DX2                !
 ! R22   R(16,17)                0.9709         estimate D2E/DX2                !
 ! R23   R(18,19)                0.9703         estimate D2E/DX2                !
 ! R24   R(20,21)                0.9802         estimate D2E/DX2                !
 ! R25   R(23,28)                1.0326         estimate D2E/DX2                !
 ! R26   R(24,25)                1.0097         estimate D2E/DX2                !
 ! R27   R(24,26)                0.9686         estimate D2E/DX2                !
 ! R28   R(24,29)                1.4435         estimate D2E/DX2                !
 ! R29   R(27,28)                1.4313         estimate D2E/DX2                !
 ! R30   R(27,29)                1.0173         estimate D2E/DX2                !
 ! R31   R(27,30)                0.9689         estimate D2E/DX2                !
 ! A1    A(5,1,6)              112.6125         estimate D2E/DX2                !
 ! A2    A(5,1,10)             106.7639         estimate D2E/DX2                !
 ! A3    A(5,1,20)             111.4511         estimate D2E/DX2                !
 ! A4    A(6,1,10)             108.5413         estimate D2E/DX2                !
 ! A5    A(6,1,20)             110.855          estimate D2E/DX2                !
 ! A6    A(10,1,20)            106.2873         estimate D2E/DX2                !
 ! A7    A(4,2,6)              111.4437         estimate D2E/DX2                !
 ! A8    A(4,2,8)              105.3429         estimate D2E/DX2                !
 ! A9    A(4,2,16)             109.8129         estimate D2E/DX2                !
 ! A10   A(6,2,8)              107.4003         estimate D2E/DX2                !
 ! A11   A(6,2,16)             112.3965         estimate D2E/DX2                !
 ! A12   A(8,2,16)             110.1791         estimate D2E/DX2                !
 ! A13   A(4,3,5)              119.6465         estimate D2E/DX2                !
 ! A14   A(4,3,25)             108.464          estimate D2E/DX2                !
 ! A15   A(5,3,25)             110.8476         estimate D2E/DX2                !
 ! A16   A(2,4,3)              102.0642         estimate D2E/DX2                !
 ! A17   A(2,4,22)             111.6326         estimate D2E/DX2                !
 ! A18   A(2,4,23)             115.1907         estimate D2E/DX2                !
 ! A19   A(3,4,22)             100.0145         estimate D2E/DX2                !
 ! A20   A(3,4,23)             113.4204         estimate D2E/DX2                !
 ! A21   A(22,4,23)            113.0051         estimate D2E/DX2                !
 ! A22   A(1,5,3)              111.9259         estimate D2E/DX2                !
 ! A23   A(1,5,9)              107.0465         estimate D2E/DX2                !
 ! A24   A(1,5,11)             113.5926         estimate D2E/DX2                !
 ! A25   A(3,5,9)              106.9285         estimate D2E/DX2                !
 ! A26   A(3,5,11)             108.2156         estimate D2E/DX2                !
 ! A27   A(9,5,11)             108.8872         estimate D2E/DX2                !
 ! A28   A(1,6,2)              113.7256         estimate D2E/DX2                !
 ! A29   A(1,6,7)              106.3097         estimate D2E/DX2                !
 ! A30   A(1,6,18)             113.5611         estimate D2E/DX2                !
 ! A31   A(2,6,7)              107.9385         estimate D2E/DX2                !
 ! A32   A(2,6,18)             104.652          estimate D2E/DX2                !
 ! A33   A(7,6,18)             110.5906         estimate D2E/DX2                !
 ! A34   A(5,11,12)            108.9135         estimate D2E/DX2                !
 ! A35   A(5,11,13)            110.3698         estimate D2E/DX2                !
 ! A36   A(5,11,14)            111.7937         estimate D2E/DX2                !
 ! A37   A(12,11,13)           108.1548         estimate D2E/DX2                !
 ! A38   A(12,11,14)           111.8787         estimate D2E/DX2                !
 ! A39   A(13,11,14)           105.6387         estimate D2E/DX2                !
 ! A40   A(11,14,15)           107.8679         estimate D2E/DX2                !
 ! A41   A(2,16,17)            106.1107         estimate D2E/DX2                !
 ! A42   A(6,18,19)            107.9878         estimate D2E/DX2                !
 ! A43   A(1,20,21)            105.8492         estimate D2E/DX2                !
 ! A44   A(4,23,28)            111.5812         estimate D2E/DX2                !
 ! A45   A(25,24,26)           106.1927         estimate D2E/DX2                !
 ! A46   A(25,24,29)           103.658          estimate D2E/DX2                !
 ! A47   A(26,24,29)           109.22           estimate D2E/DX2                !
 ! A48   A(28,27,29)            98.4594         estimate D2E/DX2                !
 ! A49   A(28,27,30)           108.1967         estimate D2E/DX2                !
 ! A50   A(29,27,30)           106.6853         estimate D2E/DX2                !
 ! A51   A(24,29,27)           164.8917         estimate D2E/DX2                !
 ! A52   L(3,25,24,28,-1)      171.9286         estimate D2E/DX2                !
 ! A53   L(23,28,27,25,-1)     171.0835         estimate D2E/DX2                !
 ! A54   L(3,25,24,28,-2)      178.1524         estimate D2E/DX2                !
 ! A55   L(23,28,27,25,-2)     185.0642         estimate D2E/DX2                !
 ! D1    D(6,1,5,3)             47.9086         estimate D2E/DX2                !
 ! D2    D(6,1,5,9)            164.763          estimate D2E/DX2                !
 ! D3    D(6,1,5,11)           -75.0135         estimate D2E/DX2                !
 ! D4    D(10,1,5,3)           166.9357         estimate D2E/DX2                !
 ! D5    D(10,1,5,9)           -76.2098         estimate D2E/DX2                !
 ! D6    D(10,1,5,11)           44.0136         estimate D2E/DX2                !
 ! D7    D(20,1,5,3)           -77.4022         estimate D2E/DX2                !
 ! D8    D(20,1,5,9)            39.4523         estimate D2E/DX2                !
 ! D9    D(20,1,5,11)          159.6757         estimate D2E/DX2                !
 ! D10   D(5,1,6,2)            -31.2494         estimate D2E/DX2                !
 ! D11   D(5,1,6,7)           -149.8784         estimate D2E/DX2                !
 ! D12   D(5,1,6,18)            88.2942         estimate D2E/DX2                !
 ! D13   D(10,1,6,2)          -149.2351         estimate D2E/DX2                !
 ! D14   D(10,1,6,7)            92.1359         estimate D2E/DX2                !
 ! D15   D(10,1,6,18)          -29.6914         estimate D2E/DX2                !
 ! D16   D(20,1,6,2)            94.385          estimate D2E/DX2                !
 ! D17   D(20,1,6,7)           -24.244          estimate D2E/DX2                !
 ! D18   D(20,1,6,18)         -146.0713         estimate D2E/DX2                !
 ! D19   D(5,1,20,21)           71.8909         estimate D2E/DX2                !
 ! D20   D(6,1,20,21)          -54.3914         estimate D2E/DX2                !
 ! D21   D(10,1,20,21)        -172.1546         estimate D2E/DX2                !
 ! D22   D(6,2,4,3)             66.1599         estimate D2E/DX2                !
 ! D23   D(6,2,4,22)           172.1851         estimate D2E/DX2                !
 ! D24   D(6,2,4,23)           -57.1865         estimate D2E/DX2                !
 ! D25   D(8,2,4,3)            -50.0032         estimate D2E/DX2                !
 ! D26   D(8,2,4,22)            56.022          estimate D2E/DX2                !
 ! D27   D(8,2,4,23)          -173.3495         estimate D2E/DX2                !
 ! D28   D(16,2,4,3)          -168.6273         estimate D2E/DX2                !
 ! D29   D(16,2,4,22)          -62.6021         estimate D2E/DX2                !
 ! D30   D(16,2,4,23)           68.0263         estimate D2E/DX2                !
 ! D31   D(4,2,6,1)            -28.0397         estimate D2E/DX2                !
 ! D32   D(4,2,6,7)             89.6518         estimate D2E/DX2                !
 ! D33   D(4,2,6,18)          -152.5263         estimate D2E/DX2                !
 ! D34   D(8,2,6,1)             86.8578         estimate D2E/DX2                !
 ! D35   D(8,2,6,7)           -155.4506         estimate D2E/DX2                !
 ! D36   D(8,2,6,18)           -37.6288         estimate D2E/DX2                !
 ! D37   D(16,2,6,1)          -151.8007         estimate D2E/DX2                !
 ! D38   D(16,2,6,7)           -34.1092         estimate D2E/DX2                !
 ! D39   D(16,2,6,18)           83.7127         estimate D2E/DX2                !
 ! D40   D(4,2,16,17)          176.4163         estimate D2E/DX2                !
 ! D41   D(6,2,16,17)          -58.9197         estimate D2E/DX2                !
 ! D42   D(8,2,16,17)           60.8191         estimate D2E/DX2                !
 ! D43   D(5,3,4,2)            -50.7671         estimate D2E/DX2                !
 ! D44   D(5,3,4,22)          -165.6366         estimate D2E/DX2                !
 ! D45   D(5,3,4,23)            73.7673         estimate D2E/DX2                !
 ! D46   D(25,3,4,2)          -179.2112         estimate D2E/DX2                !
 ! D47   D(25,3,4,22)           65.9193         estimate D2E/DX2                !
 ! D48   D(25,3,4,23)          -54.6767         estimate D2E/DX2                !
 ! D49   D(4,3,5,1)             -5.2621         estimate D2E/DX2                !
 ! D50   D(4,3,5,9)           -122.1877         estimate D2E/DX2                !
 ! D51   D(4,3,5,11)           120.6585         estimate D2E/DX2                !
 ! D52   D(25,3,5,1)           122.0881         estimate D2E/DX2                !
 ! D53   D(25,3,5,9)             5.1625         estimate D2E/DX2                !
 ! D54   D(25,3,5,11)         -111.9913         estimate D2E/DX2                !
 ! D55   D(4,3,24,26)          -98.684          estimate D2E/DX2                !
 ! D56   D(4,3,24,29)           15.4579         estimate D2E/DX2                !
 ! D57   D(5,3,24,26)          129.9126         estimate D2E/DX2                !
 ! D58   D(5,3,24,29)         -115.9454         estimate D2E/DX2                !
 ! D59   D(2,4,23,28)         -170.3487         estimate D2E/DX2                !
 ! D60   D(3,4,23,28)           72.557          estimate D2E/DX2                !
 ! D61   D(22,4,23,28)         -40.3848         estimate D2E/DX2                !
 ! D62   D(1,5,11,12)          172.0794         estimate D2E/DX2                !
 ! D63   D(1,5,11,13)           53.4881         estimate D2E/DX2                !
 ! D64   D(1,5,11,14)          -63.7794         estimate D2E/DX2                !
 ! D65   D(3,5,11,12)           47.1417         estimate D2E/DX2                !
 ! D66   D(3,5,11,13)          -71.4496         estimate D2E/DX2                !
 ! D67   D(3,5,11,14)          171.2829         estimate D2E/DX2                !
 ! D68   D(9,5,11,12)          -68.7437         estimate D2E/DX2                !
 ! D69   D(9,5,11,13)          172.665          estimate D2E/DX2                !
 ! D70   D(9,5,11,14)           55.3975         estimate D2E/DX2                !
 ! D71   D(1,6,18,19)           62.4834         estimate D2E/DX2                !
 ! D72   D(2,6,18,19)         -172.9254         estimate D2E/DX2                !
 ! D73   D(7,6,18,19)          -56.9301         estimate D2E/DX2                !
 ! D74   D(5,11,14,15)         -65.8736         estimate D2E/DX2                !
 ! D75   D(12,11,14,15)         56.5889         estimate D2E/DX2                !
 ! D76   D(13,11,14,15)        174.0462         estimate D2E/DX2                !
 ! D77   D(4,23,27,29)         -45.8417         estimate D2E/DX2                !
 ! D78   D(4,23,27,30)        -155.0112         estimate D2E/DX2                !
 ! D79   D(25,24,29,27)        -10.942          estimate D2E/DX2                !
 ! D80   D(26,24,29,27)        101.9278         estimate D2E/DX2                !
 ! D81   D(28,27,29,24)         20.3207         estimate D2E/DX2                !
 ! D82   D(30,27,29,24)        132.2938         estimate D2E/DX2                !
 --------------------------------------------------------------------------------
 Trust Radius=3.00D-01 FncErr=1.00D-07 GrdErr=1.00D-06
 Number of steps in this run=    180 maximum allowed number of steps=    180.
 GradGradGradGradGradGradGradGradGradGradGradGradGradGradGradGradGradGrad

                          Input orientation:                          
 ---------------------------------------------------------------------
 Center     Atomic      Atomic             Coordinates (Angstroms)
 Number     Number       Type             X           Y           Z
 ---------------------------------------------------------------------
      1          6           0        1.024530    0.227450    1.091370
      2          6           0        0.468090   -1.505840   -0.749380
      3          8           0       -0.525570    0.679110   -0.788440
      4          6           0       -0.896490   -0.834230   -0.656600
      5          6           0        0.515080    1.242140    0.060070
      6          6           0        1.351370   -1.153810    0.459420
      7          1           0        1.167720   -1.902200    1.241920
      8          1           0        0.944280   -1.074790   -1.640950
      9          1           0        0.057770    2.069960    0.621040
     10          1           0        1.945610    0.643310    1.515730
     11          6           0        1.622520    1.807050   -0.847390
     12          1           0        1.159060    2.410590   -1.642240
     13          1           0        2.179640    0.994200   -1.318320
     14          8           0        2.583110    2.552240   -0.107440
     15          1           0        2.139930    3.338810    0.248450
     16          8           0        0.305250   -2.903940   -0.909990
     17          1           0        1.198350   -3.268240   -1.020670
     18          8           0        2.693240   -1.256130   -0.030400
     19          1           0        3.295900   -1.153350    0.723050
     20          8           0        0.118070    0.086370    2.170890
     21          1           0       -0.652420   -0.401410    1.811470
     22          1           0       -1.476130   -0.969020   -1.575890
     23          8           0       -1.603410   -1.119030    0.460450
     24          8           0       -2.640430    1.900100   -0.544800
     25          1           0       -1.744470    1.460480   -0.697900
     26          1           0       -2.980030    2.133610   -1.421340
     27          8           0       -3.811090   -0.055070    0.327440
     28          1           0       -2.573090   -0.770100    0.395540
     29          1           0       -3.448880    0.841530    0.011510
     30          1           0       -4.133700    0.078110    1.231310
 ---------------------------------------------------------------------
                    Distance matrix (angstroms):
                    1          2          3          4          5
     1  C    0.000000
     2  C    2.588876   0.000000
     3  O    2.478002   2.400603   0.000000
     4  C    2.805866   1.523728   1.563701   0.000000
     5  C    1.533856   2.865102   1.455996   2.611026   0.000000
     6  C    1.553726   1.537955   2.905108   2.529922   2.568937
     7  H    2.139761   2.147524   3.694963   3.000983   3.421927
     8  H    3.027844   1.098844   2.442007   2.101249   2.906174
     9  H    2.133232   3.851332   2.064312   3.313200   1.099593
    10  H    1.096088   3.454365   3.378936   3.870358   2.126960
    11  C    2.571287   3.509637   2.426935   3.654883   1.539165
    12  H    3.500974   4.075912   2.562221   3.965555   2.162833
    13  H    2.780070   3.082742   2.774566   3.639176   2.175360
    14  O    3.044826   4.620975   3.692732   4.886448   2.453807
    15  H    3.411040   5.221240   3.905641   5.239582   2.659257
    16  O    3.785288   1.416685   3.680120   2.406675   4.263218
    17  H    4.087881   1.926897   4.313630   3.231920   4.688111
    18  O    2.498794   2.351718   3.831516   3.668281   3.315708
    19  H    2.683541   3.207617   4.499572   4.425088   3.729729
    20  O    1.416664   3.344492   3.085976   3.141900   2.439054
    21  H    1.930329   3.005538   2.818359   2.517593   2.670527
    22  H    3.846962   2.179744   2.059120   1.095100   3.395661
    23  O    3.019460   2.429902   2.440240   1.352275   3.197410
    24  O    4.348188   4.615753   2.454141   3.245056   3.279638
    25  H    3.519831   3.700963   1.450674   2.446726   2.393273
    26  H    5.097417   5.058326   2.922415   3.705947   3.899370
    27  O    4.903736   4.644960   3.546667   3.173376   4.524377
    28  H    3.797651   3.331806   2.773870   1.980429   3.701141
    29  H    4.642692   4.629444   3.035135   3.125578   3.984448
    30  H    5.162288   5.254379   4.178420   3.856954   4.933348
                    6          7          8          9         10
     6  C    0.000000
     7  H    1.098235   0.000000
     8  H    2.140916   3.007569   0.000000
     9  H    3.477386   4.170796   3.973909   0.000000
    10  H    2.167614   2.675763   3.730839   2.529771   0.000000
    11  C    3.247763   4.281424   3.065085   2.161909   2.653868
    12  H    4.142331   5.188315   3.491992   2.539942   3.703338
    13  H    2.908666   3.995991   2.431239   3.069317   2.865263
    14  O    3.946305   4.864785   4.265298   2.672194   2.585556
    15  H    4.566177   5.422210   4.947654   2.466616   2.984875
    16  O    2.456136   2.525481   2.070858   5.210084   4.599770
    17  H    2.585517   2.643164   2.293583   5.700220   4.721435
    18  O    1.432134   2.088879   2.384453   4.293361   2.560731
    19  H    1.962320   2.314984   3.335384   4.570079   2.383194
    20  O    2.447081   2.432933   4.069526   2.517995   2.019732
    21  H    2.531663   2.426864   3.862913   2.833578   2.815788
    22  H    3.488752   3.975025   2.423593   4.051512   4.885287
    23  O    2.954985   2.983825   3.302811   3.599301   4.100610
    24  O    5.125358   5.670261   4.785568   2.944201   5.182381
    25  H    4.214039   4.852975   3.813963   2.314981   4.380025
    26  H    5.753730   6.370600   5.073684   3.661092   5.925310
    27  O    5.279739   5.388572   5.246707   4.423803   5.919406
    28  H    3.943691   3.998958   4.075784   3.877914   4.865306
    29  H    5.217701   5.509533   5.069789   3.765257   5.603793
    30  H    5.674455   5.659222   5.946843   4.680632   6.112148
                   11         12         13         14         15
    11  C    0.000000
    12  H    1.100383   0.000000
    13  H    1.092192   1.775575   0.000000
    14  O    1.423224   2.098474   2.014077   0.000000
    15  H    1.953168   2.323447   2.820202   0.970442   0.000000
    16  O    4.892090   5.432257   4.344602   5.966794   6.609082
    17  H    5.095931   5.712880   4.384053   6.052234   6.793405
    18  O    3.346190   4.289123   2.643200   3.810741   4.636527
    19  H    3.745724   4.781459   3.166259   3.863830   4.662726
    20  O    3.786043   4.585370   4.153169   4.165060   4.285097
    21  H    4.137896   4.808005   4.445658   4.782773   4.922347
    22  H    4.223613   4.286070   4.157551   5.570731   5.912826
    23  O    4.547418   4.950835   4.684147   5.597113   5.824936
    24  O    4.274688   3.987618   4.965084   5.282229   5.054797
    25  H    3.388079   3.197651   4.000122   4.502059   4.417269
    26  H    4.649680   4.154224   5.284985   5.731502   5.518577
    27  O    5.862750   5.887403   6.300662   6.919030   6.851226
    28  H    5.078358   5.310205   5.351496   6.154456   6.254385
    29  H    5.233454   5.141007   5.785499   6.271011   6.125957
    30  H    6.359583   6.458410   6.870087   7.282109   7.138390
                   16         17         18         19         20
    16  O    0.000000
    17  H    0.970872   0.000000
    18  O    3.031741   2.695166   0.000000
    19  H    3.830845   3.451526   0.970283   0.000000
    20  O    4.297536   4.754626   3.644103   3.705638   0.000000
    21  H    3.819180   4.434533   3.913626   4.164049   0.980187
    22  H    2.713052   3.570368   4.455852   5.300130   4.206386
    23  O    2.950761   3.829188   4.326769   4.906463   2.709629
    24  O    5.647052   6.455573   6.218877   6.794926   4.274800
    25  H    4.826437   5.578993   5.245836   5.852908   3.686081
    26  H    6.035847   6.841007   6.753595   7.402014   5.166578
    27  O    5.156699   6.102160   6.623964   7.202224   4.342420
    28  H    3.813466   4.740265   5.305835   5.890602   3.335828
    29  H    5.382490   6.289066   6.490576   7.069504   4.237490
    30  H    5.760388   6.685823   7.069598   7.548098   4.354357
                   21         22         23         24         25
    21  H    0.000000
    22  H    3.531981   0.000000
    23  O    1.801282   2.045821   0.000000
    24  O    3.847225   3.263524   3.346802   0.000000
    25  H    3.310007   2.597180   2.831174   1.009678   0.000000
    26  H    4.721775   3.451364   4.001985   0.968596   1.582112
    27  O    3.507063   3.148017   2.454293   2.440069   2.760278
    28  H    2.414490   2.264824   1.032591   2.831738   2.618723
    29  H    3.550344   3.112824   2.729671   1.443483   1.947145
    30  H    3.561718   4.004938   2.903401   2.950266   3.367672
                   26         27         28         29         30
    26  H    0.000000
    27  O    2.922193   0.000000
    28  H    3.449375   1.431275   0.000000
    29  H    1.985535   1.017300   1.873990   0.000000
    30  H    3.548603   0.968914   1.963027   1.593644   0.000000
 Stoichiometry    C6H16O8
 Framework group  C1[X(C6H16O8)]
 Deg. of freedom    84
 Full point group                 C1      NOp   1
 Largest Abelian subgroup         C1      NOp   1
 Largest concise Abelian subgroup C1      NOp   1
                         Standard orientation:                         
 ---------------------------------------------------------------------
 Center     Atomic      Atomic             Coordinates (Angstroms)
 Number     Number       Type             X           Y           Z
 ---------------------------------------------------------------------
      1          6           0       -1.036179   -0.210765    1.098266
      2          6           0       -0.485597    1.522590   -0.744183
      3          8           0        0.514908   -0.659265   -0.781486
      4          6           0        0.881105    0.855351   -0.651104
      5          6           0       -0.523779   -1.224787    0.067772
      6          6           0       -1.367496    1.168888    0.465137
      7          1           0       -1.186020    1.918561    1.246916
      8          1           0       -0.960632    1.089238   -1.635253
      9          1           0       -0.063746   -2.050658    0.629389
     10          1           0       -1.955854   -0.629128    1.523214
     11          6           0       -1.629644   -1.793995   -0.838922
     12          1           0       -1.164471   -2.396799   -1.633330
     13          1           0       -2.189419   -0.983326   -1.310463
     14          8           0       -2.587724   -2.541524   -0.098077
     15          1           0       -2.141997   -3.326375    0.258426
     16          8           0       -0.327183    2.921048   -0.906099
     17          1           0       -1.221447    3.282442   -1.016906
     18          8           0       -2.709790    1.266550   -0.024470
     19          1           0       -3.311955    1.162564    0.729211
     20          8           0       -0.129924   -0.065860    2.177451
     21          1           0        0.638950    0.424010    1.817413
     22          1           0        1.460112    0.991125   -1.570649
     23          8           0        1.587379    1.143383    0.465525
     24          8           0        2.633645   -1.873389   -0.537220
     25          1           0        1.736275   -1.436723   -0.690514
     26          1           0        2.973779   -2.106628   -1.413625
     27          8           0        3.798358    0.086238    0.332978
     28          1           0        2.558135    0.797440    0.400711
     29          1           0        3.438893   -0.811782    0.017945
     30          1           0        4.121588   -0.045108    1.236895
 ---------------------------------------------------------------------
 Rotational constants (GHZ):      0.7460280      0.5351688      0.3937256
 Standard basis: 6-31G(d) (6D, 7F)
 There are   242 symmetry adapted cartesian basis functions of A   symmetry.
 There are   242 symmetry adapted basis functions of A   symmetry.
   242 basis functions,   456 primitive gaussians,   242 cartesian basis functions
    58 alpha electrons       58 beta electrons
       nuclear repulsion energy      1123.6542320143 Hartrees.
 NAtoms=   30 NActive=   30 NUniq=   30 SFac= 1.00D+00 NAtFMM=   60 NAOKFM=F Big=F
 Integral buffers will be    131072 words long.
 Raffenetti 2 integral format.
 Two-electron integral symmetry is turned on.
 One-electron integrals computed using PRISM.
 NBasis=   242 RedAO= T EigKep=  1.13D-03  NBF=   242
 NBsUse=   242 1.00D-06 EigRej= -1.00D+00 NBFU=   242
 ExpMin= 1.61D-01 ExpMax= 5.48D+03 ExpMxC= 8.25D+02 IAcc=1 IRadAn=         1 AccDes= 0.00D+00
 Harris functional with IExCor=  402 and IRadAn=       1 diagonalized for initial guess.
 HarFok:  IExCor=  402 AccDes= 0.00D+00 IRadAn=         1 IDoV= 1 UseB2=F ITyADJ=14
 ICtDFT=  3500011 ScaDFX=  1.000000  1.000000  1.000000  1.000000
 FoFCou: FMM=F IPFlag=           0 FMFlag=      100000 FMFlg1=           0
         NFxFlg=           0 DoJE=T BraDBF=F KetDBF=T FulRan=T
         wScrn=  0.000000 ICntrl=     500 IOpCl=  0 I1Cent=   200000004 NGrid=           0
         NMat0=    1 NMatS0=      1 NMatT0=    0 NMatD0=    1 NMtDS0=    0 NMtDT0=    0
 Petite list used in FoFCou.
 Requested convergence on RMS density matrix=1.00D-08 within 128 cycles.
 Requested convergence on MAX density matrix=1.00D-06.
 Requested convergence on             energy=1.00D-06.
 No special actions if energy rises.
 Integral accuracy reduced to 1.0D-05 until final iterations.
 Initial convergence to 1.0D-05 achieved.  Increase integral accuracy.
 SCF Done:  E(RB3LYP) =  -839.981490114     A.U. after   14 cycles
            NFock= 14  Conv=0.46D-08     -V/T= 2.0084

 **********************************************************************

            Population analysis using the SCF density.

 **********************************************************************

 Orbital symmetries:
       Occupied  (A) (A) (A) (A) (A) (A) (A) (A) (A) (A) (A) (A)
                 (A) (A) (A) (A) (A) (A) (A) (A) (A) (A) (A) (A)
                 (A) (A) (A) (A) (A) (A) (A) (A) (A) (A) (A) (A)
                 (A) (A) (A) (A) (A) (A) (A) (A) (A) (A) (A) (A)
                 (A) (A) (A) (A) (A) (A) (A) (A) (A) (A)
       Virtual   (A) (A) (A) (A) (A) (A) (A) (A) (A) (A) (A) (A)
                 (A) (A) (A) (A) (A) (A) (A) (A) (A) (A) (A) (A)
                 (A) (A) (A) (A) (A) (A) (A) (A) (A) (A) (A) (A)
                 (A) (A) (A) (A) (A) (A) (A) (A) (A) (A) (A) (A)
                 (A) (A) (A) (A) (A) (A) (A) (A) (A) (A) (A) (A)
                 (A) (A) (A) (A) (A) (A) (A) (A) (A) (A) (A) (A)
                 (A) (A) (A) (A) (A) (A) (A) (A) (A) (A) (A) (A)
                 (A) (A) (A) (A) (A) (A) (A) (A) (A) (A) (A) (A)
                 (A) (A) (A) (A) (A) (A) (A) (A) (A) (A) (A) (A)
                 (A) (A) (A) (A) (A) (A) (A) (A) (A) (A) (A) (A)
                 (A) (A) (A) (A) (A) (A) (A) (A) (A) (A) (A) (A)
                 (A) (A) (A) (A) (A) (A) (A) (A) (A) (A) (A) (A)
                 (A) (A) (A) (A) (A) (A) (A) (A) (A) (A) (A) (A)
                 (A) (A) (A) (A) (A) (A) (A) (A) (A) (A) (A) (A)
                 (A) (A) (A) (A) (A) (A) (A) (A) (A) (A) (A) (A)
                 (A) (A) (A) (A)
 The electronic state is 1-A.
 Alpha  occ. eigenvalues --  -19.17275 -19.15859 -19.15417 -19.15173 -19.15147
 Alpha  occ. eigenvalues --  -19.14846 -19.14640 -19.12346 -10.30179 -10.24354
 Alpha  occ. eigenvalues --  -10.24292 -10.23868 -10.23429 -10.23414  -1.07083
 Alpha  occ. eigenvalues --   -1.03629  -1.02730  -1.02509  -1.01768  -1.01553
 Alpha  occ. eigenvalues --   -1.00038  -0.98644  -0.77430  -0.76721  -0.68772
 Alpha  occ. eigenvalues --   -0.65460  -0.62428  -0.57807  -0.55877  -0.55134
 Alpha  occ. eigenvalues --   -0.54320  -0.53430  -0.51459  -0.50693  -0.49024
 Alpha  occ. eigenvalues --   -0.47191  -0.46118  -0.44716  -0.44106  -0.43366
 Alpha  occ. eigenvalues --   -0.41415  -0.41250  -0.40024  -0.39057  -0.37331
 Alpha  occ. eigenvalues --   -0.36097  -0.35152  -0.34683  -0.33913  -0.32289
 Alpha  occ. eigenvalues --   -0.31270  -0.30119  -0.29817  -0.29167  -0.28960
 Alpha  occ. eigenvalues --   -0.27123  -0.26393  -0.24592
 Alpha virt. eigenvalues --    0.05249   0.05803   0.06734   0.07162   0.09369
 Alpha virt. eigenvalues --    0.09987   0.11498   0.12375   0.12810   0.14501
 Alpha virt. eigenvalues --    0.14899   0.16325   0.17017   0.19142   0.20008
 Alpha virt. eigenvalues --    0.20182   0.21266   0.23411   0.24313   0.24824
 Alpha virt. eigenvalues --    0.26579   0.28223   0.28665   0.31274   0.32171
 Alpha virt. eigenvalues --    0.32949   0.33808   0.36034   0.52410   0.53864
 Alpha virt. eigenvalues --    0.54233   0.54828   0.56704   0.57684   0.58277
 Alpha virt. eigenvalues --    0.60546   0.61022   0.63446   0.63948   0.67467
 Alpha virt. eigenvalues --    0.67970   0.69079   0.70122   0.72252   0.74844
 Alpha virt. eigenvalues --    0.76131   0.77710   0.79007   0.79966   0.81060
 Alpha virt. eigenvalues --    0.81745   0.82199   0.83331   0.84368   0.85436
 Alpha virt. eigenvalues --    0.86352   0.87580   0.87882   0.88125   0.89687
 Alpha virt. eigenvalues --    0.90465   0.90979   0.92321   0.95190   0.95249
 Alpha virt. eigenvalues --    0.98329   0.98915   0.99908   1.02212   1.02766
 Alpha virt. eigenvalues --    1.03519   1.05340   1.05930   1.06288   1.08229
 Alpha virt. eigenvalues --    1.09499   1.12619   1.13886   1.15380   1.17243
 Alpha virt. eigenvalues --    1.17908   1.18416   1.22522   1.25558   1.26880
 Alpha virt. eigenvalues --    1.28281   1.31845   1.34107   1.34566   1.39131
 Alpha virt. eigenvalues --    1.43306   1.44949   1.46982   1.51007   1.51689
 Alpha virt. eigenvalues --    1.53523   1.55701   1.56814   1.58998   1.60423
 Alpha virt. eigenvalues --    1.63056   1.64523   1.65913   1.67384   1.69406
 Alpha virt. eigenvalues --    1.69765   1.71664   1.72439   1.73451   1.73986
 Alpha virt. eigenvalues --    1.76088   1.77025   1.77574   1.78536   1.80269
 Alpha virt. eigenvalues --    1.81690   1.83205   1.84354   1.84944   1.85602
 Alpha virt. eigenvalues --    1.87935   1.88466   1.90898   1.92999   1.95349
 Alpha virt. eigenvalues --    1.96827   1.98671   2.01622   2.05494   2.06475
 Alpha virt. eigenvalues --    2.07590   2.09013   2.09583   2.14967   2.16469
 Alpha virt. eigenvalues --    2.18126   2.23148   2.23578   2.26439   2.31591
 Alpha virt. eigenvalues --    2.32912   2.36176   2.38728   2.39966   2.41395
 Alpha virt. eigenvalues --    2.43466   2.44122   2.48377   2.48893   2.51899
 Alpha virt. eigenvalues --    2.53034   2.55042   2.58150   2.58696   2.59449
 Alpha virt. eigenvalues --    2.63637   2.67965   2.71284   2.72469   2.74884
 Alpha virt. eigenvalues --    2.79760   2.83661   2.86367   2.92396   2.92889
 Alpha virt. eigenvalues --    2.93651   2.96797   3.03217   3.07925   3.13913
 Alpha virt. eigenvalues --    3.69904   3.78017   3.80725   3.87836   3.89620
 Alpha virt. eigenvalues --    3.98227   4.03492   4.16031   4.25409   4.37318
 Alpha virt. eigenvalues --    4.54985   4.58630   4.64893   4.93542
          Condensed to atoms (all electrons):
               1          2          3          4          5          6
     1  C    4.981877  -0.027464  -0.023983   0.004410   0.304237   0.255272
     2  C   -0.027464   4.920915  -0.027799   0.308175  -0.018528   0.298886
     3  O   -0.023983  -0.027799   8.557351   0.127182   0.121417  -0.012611
     4  C    0.004410   0.308175   0.127182   4.767804  -0.012144  -0.022545
     5  C    0.304237  -0.018528   0.121417  -0.012144   5.089556  -0.019546
     6  C    0.255272   0.298886  -0.012611  -0.022545  -0.019546   5.096036
     7  H   -0.056610  -0.038013   0.000296  -0.005874   0.006284   0.348903
     8  H    0.000807   0.356541   0.005658  -0.053402  -0.000585  -0.053060
     9  H   -0.042569   0.000102  -0.035985   0.001461   0.359078   0.004963
    10  H    0.362864   0.004297   0.003291  -0.000101  -0.051530  -0.042096
    11  C   -0.031598  -0.001067  -0.031714   0.000781   0.288246  -0.002165
    12  H    0.005266   0.000001   0.005784  -0.000073  -0.047684  -0.000276
    13  H   -0.010157  -0.002027   0.001893   0.000176  -0.035601   0.001561
    14  O   -0.004673   0.000057   0.001433  -0.000016  -0.038980  -0.000175
    15  H   -0.000896   0.000001   0.000012  -0.000001  -0.002786   0.000021
    16  O    0.003677   0.238667   0.001077  -0.041029  -0.000013  -0.040815
    17  H    0.000355  -0.025699  -0.000108   0.007459  -0.000031  -0.004752
    18  O   -0.032595  -0.040938   0.000006   0.002572   0.000137   0.187193
    19  H   -0.003204   0.007033   0.000008  -0.000299  -0.000154  -0.023296
    20  O    0.243221   0.001257   0.000522   0.005359  -0.043523  -0.037339
    21  H   -0.039594  -0.002651   0.000078  -0.005042  -0.000122  -0.001345
    22  H   -0.000514  -0.046972  -0.042494   0.378368   0.004361   0.006344
    23  O    0.003291  -0.043647  -0.050008   0.241297  -0.000270  -0.003714
    24  O   -0.000258   0.000081  -0.076165   0.007617   0.004424  -0.000002
    25  H    0.001991   0.001071   0.082446  -0.005466  -0.006915  -0.000075
    26  H    0.000008   0.000002   0.003120  -0.000065  -0.000098   0.000000
    27  O   -0.000004  -0.000098  -0.000738   0.004228  -0.000041   0.000004
    28  H   -0.000202   0.002580   0.003795  -0.011842  -0.000153  -0.000126
    29  H   -0.000012   0.000086   0.001894   0.000036   0.000059  -0.000001
    30  H   -0.000004   0.000004   0.000008  -0.000112   0.000007  -0.000000
               7          8          9         10         11         12
     1  C   -0.056610   0.000807  -0.042569   0.362864  -0.031598   0.005266
     2  C   -0.038013   0.356541   0.000102   0.004297  -0.001067   0.000001
     3  O    0.000296   0.005658  -0.035985   0.003291  -0.031714   0.005784
     4  C   -0.005874  -0.053402   0.001461  -0.000101   0.000781  -0.000073
     5  C    0.006284  -0.000585   0.359078  -0.051530   0.288246  -0.047684
     6  C    0.348903  -0.053060   0.004963  -0.042096  -0.002165  -0.000276
     7  H    0.611211   0.006940  -0.000254  -0.001545  -0.000036   0.000010
     8  H    0.006940   0.633182   0.000074  -0.000335  -0.000033   0.000176
     9  H   -0.000254   0.000074   0.618791  -0.000800  -0.054269  -0.005662
    10  H   -0.001545  -0.000335  -0.000800   0.594633  -0.004284   0.000518
    11  C   -0.000036  -0.000033  -0.054269  -0.004284   4.965417   0.348854
    12  H    0.000010   0.000176  -0.005662   0.000518   0.348854   0.637558
    13  H    0.000148   0.004434   0.005020  -0.000080   0.372201  -0.037604
    14  O   -0.000006   0.000012   0.001778   0.016236   0.236642  -0.030387
    15  H   -0.000001   0.000002   0.006265  -0.000131  -0.032940  -0.006871
    16  O    0.001969  -0.037836   0.000004  -0.000050   0.000006  -0.000001
    17  H   -0.000443  -0.004326  -0.000000  -0.000006   0.000003   0.000000
    18  O   -0.033148  -0.001458  -0.000137   0.000438  -0.001449   0.000144
    19  H   -0.004698  -0.000060   0.000003   0.005769   0.000145  -0.000009
    20  O    0.007953  -0.000055   0.003299  -0.036846   0.003771  -0.000072
    21  H    0.000673   0.000036  -0.000546   0.005807  -0.000042   0.000004
    22  H   -0.000195  -0.004737  -0.000127   0.000004  -0.000120  -0.000008
    23  O    0.002373   0.003903  -0.000045  -0.000040   0.000005   0.000005
    24  O    0.000000  -0.000003   0.004243   0.000002  -0.000197   0.000005
    25  H    0.000004   0.000091  -0.004033  -0.000047  -0.000201   0.000807
    26  H    0.000000  -0.000000  -0.000218  -0.000000  -0.000001   0.000009
    27  O    0.000001   0.000004   0.000012  -0.000000  -0.000000   0.000000
    28  H   -0.000007  -0.000087  -0.000017   0.000003   0.000009  -0.000001
    29  H   -0.000000  -0.000003  -0.000040  -0.000000   0.000006  -0.000001
    30  H   -0.000000  -0.000000  -0.000004   0.000000   0.000000  -0.000000
              13         14         15         16         17         18
     1  C   -0.010157  -0.004673  -0.000896   0.003677   0.000355  -0.032595
     2  C   -0.002027   0.000057   0.000001   0.238667  -0.025699  -0.040938
     3  O    0.001893   0.001433   0.000012   0.001077  -0.000108   0.000006
     4  C    0.000176  -0.000016  -0.000001  -0.041029   0.007459   0.002572
     5  C   -0.035601  -0.038980  -0.002786  -0.000013  -0.000031   0.000137
     6  C    0.001561  -0.000175   0.000021  -0.040815  -0.004752   0.187193
     7  H    0.000148  -0.000006  -0.000001   0.001969  -0.000443  -0.033148
     8  H    0.004434   0.000012   0.000002  -0.037836  -0.004326  -0.001458
     9  H    0.005020   0.001778   0.006265   0.000004  -0.000000  -0.000137
    10  H   -0.000080   0.016236  -0.000131  -0.000050  -0.000006   0.000438
    11  C    0.372201   0.236642  -0.032940   0.000006   0.000003  -0.001449
    12  H   -0.037604  -0.030387  -0.006871  -0.000001   0.000000   0.000144
    13  H    0.542443  -0.034523   0.007045   0.000008  -0.000006   0.010703
    14  O   -0.034523   8.229197   0.234478   0.000000  -0.000000  -0.000096
    15  H    0.007045   0.234478   0.403467   0.000000   0.000000  -0.000012
    16  O    0.000008   0.000000   0.000000   8.266440   0.235168  -0.000503
    17  H   -0.000006  -0.000000   0.000000   0.235168   0.381570   0.007687
    18  O    0.010703  -0.000096  -0.000012  -0.000503   0.007687   8.308922
    19  H   -0.000386  -0.000012   0.000003  -0.000149  -0.000402   0.232754
    20  O    0.000022  -0.000002  -0.000035  -0.000012  -0.000005   0.001643
    21  H    0.000005  -0.000001   0.000002  -0.000065  -0.000010  -0.000045
    22  H   -0.000021   0.000001  -0.000000   0.002698  -0.000368  -0.000063
    23  O    0.000007   0.000000  -0.000000   0.002835  -0.000097   0.000014
    24  O    0.000002   0.000000  -0.000001   0.000000  -0.000000   0.000000
    25  H   -0.000045   0.000003  -0.000003  -0.000010   0.000001  -0.000000
    26  H    0.000000  -0.000000   0.000000  -0.000000   0.000000  -0.000000
    27  O    0.000000   0.000000  -0.000000   0.000000  -0.000000   0.000000
    28  H    0.000000  -0.000000   0.000000  -0.000113   0.000012   0.000001
    29  H   -0.000000  -0.000000  -0.000000  -0.000000   0.000000  -0.000000
    30  H   -0.000000   0.000000   0.000000  -0.000000   0.000000  -0.000000
              19         20         21         22         23         24
     1  C   -0.003204   0.243221  -0.039594  -0.000514   0.003291  -0.000258
     2  C    0.007033   0.001257  -0.002651  -0.046972  -0.043647   0.000081
     3  O    0.000008   0.000522   0.000078  -0.042494  -0.050008  -0.076165
     4  C   -0.000299   0.005359  -0.005042   0.378368   0.241297   0.007617
     5  C   -0.000154  -0.043523  -0.000122   0.004361  -0.000270   0.004424
     6  C   -0.023296  -0.037339  -0.001345   0.006344  -0.003714  -0.000002
     7  H   -0.004698   0.007953   0.000673  -0.000195   0.002373   0.000000
     8  H   -0.000060  -0.000055   0.000036  -0.004737   0.003903  -0.000003
     9  H    0.000003   0.003299  -0.000546  -0.000127  -0.000045   0.004243
    10  H    0.005769  -0.036846   0.005807   0.000004  -0.000040   0.000002
    11  C    0.000145   0.003771  -0.000042  -0.000120   0.000005  -0.000197
    12  H   -0.000009  -0.000072   0.000004  -0.000008   0.000005   0.000005
    13  H   -0.000386   0.000022   0.000005  -0.000021   0.000007   0.000002
    14  O   -0.000012  -0.000002  -0.000001   0.000001   0.000000   0.000000
    15  H    0.000003  -0.000035   0.000002  -0.000000  -0.000000  -0.000001
    16  O   -0.000149  -0.000012  -0.000065   0.002698   0.002835   0.000000
    17  H   -0.000402  -0.000005  -0.000010  -0.000368  -0.000097  -0.000000
    18  O    0.232754   0.001643  -0.000045  -0.000063   0.000014   0.000000
    19  H    0.385624  -0.000007   0.000039   0.000006   0.000002   0.000000
    20  O   -0.000007   8.326403   0.222789  -0.000104  -0.027802   0.000008
    21  H    0.000039   0.222789   0.336248   0.001059   0.060216   0.000032
    22  H    0.000006  -0.000104   0.001059   0.595383  -0.044137   0.000806
    23  O    0.000002  -0.027802   0.060216  -0.044137   8.405857  -0.001942
    24  O    0.000000   0.000008   0.000032   0.000806  -0.001942   8.466478
    25  H   -0.000000  -0.000222   0.000011  -0.001323   0.004179   0.174299
    26  H   -0.000000  -0.000000  -0.000001   0.000158  -0.000000   0.236515
    27  O    0.000000  -0.000037   0.000529   0.001428  -0.081728  -0.082311
    28  H   -0.000000   0.000989  -0.000548  -0.004092   0.160178   0.003048
    29  H   -0.000000   0.000022  -0.000002  -0.000371   0.008122   0.098589
    30  H   -0.000000   0.000006   0.000051  -0.000040   0.004196   0.003327
              25         26         27         28         29         30
     1  C    0.001991   0.000008  -0.000004  -0.000202  -0.000012  -0.000004
     2  C    0.001071   0.000002  -0.000098   0.002580   0.000086   0.000004
     3  O    0.082446   0.003120  -0.000738   0.003795   0.001894   0.000008
     4  C   -0.005466  -0.000065   0.004228  -0.011842   0.000036  -0.000112
     5  C   -0.006915  -0.000098  -0.000041  -0.000153   0.000059   0.000007
     6  C   -0.000075   0.000000   0.000004  -0.000126  -0.000001  -0.000000
     7  H    0.000004   0.000000   0.000001  -0.000007  -0.000000  -0.000000
     8  H    0.000091  -0.000000   0.000004  -0.000087  -0.000003  -0.000000
     9  H   -0.004033  -0.000218   0.000012  -0.000017  -0.000040  -0.000004
    10  H   -0.000047  -0.000000  -0.000000   0.000003  -0.000000   0.000000
    11  C   -0.000201  -0.000001  -0.000000   0.000009   0.000006   0.000000
    12  H    0.000807   0.000009   0.000000  -0.000001  -0.000001  -0.000000
    13  H   -0.000045   0.000000   0.000000   0.000000  -0.000000  -0.000000
    14  O    0.000003  -0.000000   0.000000  -0.000000  -0.000000   0.000000
    15  H   -0.000003   0.000000  -0.000000   0.000000  -0.000000   0.000000
    16  O   -0.000010  -0.000000   0.000000  -0.000113  -0.000000  -0.000000
    17  H    0.000001   0.000000  -0.000000   0.000012   0.000000   0.000000
    18  O   -0.000000  -0.000000   0.000000   0.000001  -0.000000  -0.000000
    19  H   -0.000000  -0.000000   0.000000  -0.000000  -0.000000  -0.000000
    20  O   -0.000222  -0.000000  -0.000037   0.000989   0.000022   0.000006
    21  H    0.000011  -0.000001   0.000529  -0.000548  -0.000002   0.000051
    22  H   -0.001323   0.000158   0.001428  -0.004092  -0.000371  -0.000040
    23  O    0.004179  -0.000000  -0.081728   0.160178   0.008122   0.004196
    24  O    0.174299   0.236515  -0.082311   0.003048   0.098589   0.003327
    25  H    0.297441  -0.006867   0.006992  -0.000590  -0.007405  -0.000152
    26  H   -0.006867   0.371803   0.003960  -0.000102  -0.007173  -0.000127
    27  O    0.006992   0.003960   8.444487   0.123085   0.175695   0.235535
    28  H   -0.000590  -0.000102   0.123085   0.283314  -0.011930  -0.007326
    29  H   -0.007405  -0.007173   0.175695  -0.011930   0.303425  -0.006321
    30  H   -0.000152  -0.000127   0.235535  -0.007326  -0.006321   0.369557
 Mulliken charges:
               1
     1  C    0.107062
     2  C    0.135146
     3  O   -0.615667
     4  C    0.301085
     5  C    0.100899
     6  C    0.064756
     7  H    0.154067
     8  H    0.144119
     9  H    0.139612
    10  H    0.144027
    11  C   -0.055969
    12  H    0.129509
    13  H    0.174784
    14  O   -0.610965
    15  H    0.392382
    16  O   -0.631953
    17  H    0.403999
    18  O   -0.641771
    19  H    0.401291
    20  O   -0.671205
    21  H    0.422435
    22  H    0.155070
    23  O   -0.643050
    24  O   -0.838597
    25  H    0.464018
    26  H    0.399076
    27  O   -0.831003
    28  H    0.460120
    29  H    0.445325
    30  H    0.401397
 Sum of Mulliken charges =  -0.00000
 Mulliken charges with hydrogens summed into heavy atoms:
               1
     1  C    0.251089
     2  C    0.279265
     3  O   -0.615667
     4  C    0.456155
     5  C    0.240511
     6  C    0.218824
    11  C    0.248323
    14  O   -0.218583
    16  O   -0.227954
    18  O   -0.240479
    20  O   -0.248770
    23  O   -0.182930
    24  O    0.024496
    27  O    0.015719
 Electronic spatial extent (au):  <R**2>=           3042.7141
 Charge=             -0.0000 electrons
 Dipole moment (field-independent basis, Debye):
    X=              0.2815    Y=             -1.8522    Z=             -1.0740  Tot=              2.1595
 Quadrupole moment (field-independent basis, Debye-Ang):
   XX=            -80.7609   YY=            -81.1498   ZZ=            -82.5553
   XY=             -9.4859   XZ=             -2.4466   YZ=              2.8683
 Traceless Quadrupole moment (field-independent basis, Debye-Ang):
   XX=              0.7278   YY=              0.3389   ZZ=             -1.0667
   XY=             -9.4859   XZ=             -2.4466   YZ=              2.8683
 Octapole moment (field-independent basis, Debye-Ang**2):
  XXX=             34.4749  YYY=            -30.4151  ZZZ=            -18.0342  XYY=            -14.9188
  XXY=              8.6836  XXZ=             28.6998  XZZ=             20.9117  YZZ=             -2.4423
  YYZ=             -0.6035  XYZ=             10.5297
 Hexadecapole moment (field-independent basis, Debye-Ang**3):
 XXXX=          -1775.1518 YYYY=          -1119.2254 ZZZZ=           -512.5987 XXXY=           -151.7750
 XXXZ=             12.1747 YYYX=            -35.0355 YYYZ=             -9.7223 ZZZX=              7.4716
 ZZZY=             15.8712 XXYY=           -506.9767 XXZZ=           -283.1358 YYZZ=           -264.6111
 XXYZ=             28.7381 YYXZ=            -25.2505 ZZXY=            -28.3321
 N-N= 1.123654232014D+03 E-N=-4.220088690406D+03  KE= 8.330215894805D+02
 Calling FoFJK, ICntrl=      2127 FMM=F ISym2X=0 I1Cent= 0 IOpClX= 0 NMat=1 NMatS=1 NMatT=0.
 ***** Axes restored to original set *****
 -------------------------------------------------------------------
 Center     Atomic                   Forces (Hartrees/Bohr)
 Number     Number              X              Y              Z
 -------------------------------------------------------------------
      1        6           0.000966932   -0.000136318    0.000759678
      2        6          -0.000667206   -0.001162861    0.000896927
      3        8           0.005087986   -0.022378814    0.000913702
      4        6           0.011248192    0.021124726   -0.008136584
      5        6           0.000168461   -0.004924058   -0.000208619
      6        6           0.000396593   -0.000244165    0.000802143
      7        1           0.000082238    0.000017380    0.000102421
      8        1           0.000280972   -0.000256306    0.000135916
      9        1          -0.000741084   -0.000543032   -0.000523914
     10        1           0.000037735   -0.000022390    0.000131692
     11        6          -0.000406271   -0.000817804   -0.000171151
     12        1          -0.000107492   -0.000048888    0.000046477
     13        1           0.000058093    0.000040158   -0.000071696
     14        8          -0.000990110   -0.000275574    0.000146472
     15        1          -0.000019748    0.000028041   -0.000039667
     16        8          -0.001341031   -0.000150846    0.000694299
     17        1          -0.000055349    0.000044972    0.000121960
     18        8          -0.000574769   -0.000315144   -0.000301687
     19        1           0.000036751    0.000035324   -0.000073225
     20        8           0.001829778    0.000602189    0.001691506
     21        1          -0.000319021    0.000533537    0.000469962
     22        1           0.000095552    0.000231216    0.000169368
     23        8           0.011681454   -0.006653646    0.003422073
     24        8          -0.006265749    0.021730902   -0.005406601
     25        1          -0.000876294    0.001334238   -0.000761854
     26        1          -0.000066697    0.001424751   -0.000412943
     27        8          -0.017841806   -0.006743593    0.004840377
     28        1           0.002107563   -0.001982997   -0.000431472
     29        1          -0.002861572   -0.000452329    0.000840131
     30        1          -0.000944102   -0.000038669    0.000354308
 -------------------------------------------------------------------
 Cartesian Forces:  Max     0.022378814 RMS     0.005113862

 GradGradGradGradGradGradGradGradGradGradGradGradGradGradGradGradGradGrad
 Berny optimization.
 FormGI is forming the generalized inverse of G from B-inverse, IUseBI=4.
 Internal  Forces:  Max     0.018942177 RMS     0.003483471
 Search for a local minimum.
 Step number   1 out of a maximum of  180
 All quantities printed in internal units (Hartrees-Bohrs-Radians)
 Mixed Optimization -- RFO/linear search
 Second derivative matrix not updated -- first step.
 ITU=  0
     Eigenvalues ---    0.00232   0.00248   0.00316   0.00505   0.00571
     Eigenvalues ---    0.00707   0.00831   0.01267   0.01385   0.01471
     Eigenvalues ---    0.01471   0.01490   0.02122   0.02576   0.03119
     Eigenvalues ---    0.04050   0.04344   0.04395   0.04637   0.04716
     Eigenvalues ---    0.04832   0.04932   0.05055   0.05182   0.05758
     Eigenvalues ---    0.05766   0.06031   0.06272   0.06561   0.06804
     Eigenvalues ---    0.07048   0.07362   0.07709   0.08112   0.08919
     Eigenvalues ---    0.10123   0.10584   0.11267   0.11567   0.12864
     Eigenvalues ---    0.12992   0.13242   0.13541   0.13907   0.14361
     Eigenvalues ---    0.16000   0.16000   0.16000   0.16000   0.16493
     Eigenvalues ---    0.16946   0.17332   0.18967   0.19280   0.20674
     Eigenvalues ---    0.22046   0.24364   0.26243   0.26466   0.28576
     Eigenvalues ---    0.28593   0.28935   0.33640   0.33727   0.33810
     Eigenvalues ---    0.33878   0.34118   0.34230   0.34561   0.35895
     Eigenvalues ---    0.40684   0.40879   0.41978   0.42964   0.42967
     Eigenvalues ---    0.43611   0.45119   0.51348   0.53101   0.53199
     Eigenvalues ---    0.53287   0.53319   0.53599   0.53665
 RFO step:  Lambda=-1.12075364D-02 EMin= 2.31838912D-03
 Linear search not attempted -- first point.
 Iteration  1 RMS(Cart)=  0.06371702 RMS(Int)=  0.00171418
 Iteration  2 RMS(Cart)=  0.00246142 RMS(Int)=  0.00030160
 Iteration  3 RMS(Cart)=  0.00000672 RMS(Int)=  0.00030152
 Iteration  4 RMS(Cart)=  0.00000001 RMS(Int)=  0.00030152
 Variable       Old X    -DE/DX   Delta X   Delta X   Delta X     New X
                                 (Linear)    (Quad)   (Total)
    R1        2.89857   0.00066   0.00000   0.00535   0.00536   2.90393
    R2        2.93612  -0.00091   0.00000   0.00027   0.00009   2.93621
    R3        2.07131   0.00007   0.00000   0.00021   0.00021   2.07152
    R4        2.67711   0.00057   0.00000   0.00129   0.00129   2.67839
    R5        2.87943  -0.00152   0.00000  -0.00378  -0.00368   2.87575
    R6        2.90631  -0.00013   0.00000   0.00182   0.00170   2.90802
    R7        2.07651  -0.00009   0.00000  -0.00026  -0.00026   2.07625
    R8        2.67715   0.00017   0.00000   0.00039   0.00039   2.67754
    R9        2.95497  -0.01566   0.00000  -0.06614  -0.06637   2.88860
   R10        2.75143   0.00066   0.00000  -0.00132  -0.00122   2.75022
   R11        2.74138   0.01894   0.00000   0.13818   0.13834   2.87972
   R12        2.06944  -0.00022   0.00000  -0.00063  -0.00063   2.06881
   R13        2.55543   0.00296   0.00000   0.00460   0.00455   2.55998
   R14        2.07793  -0.00037   0.00000  -0.00106  -0.00106   2.07687
   R15        2.90860  -0.00139   0.00000  -0.00468  -0.00468   2.90392
   R16        2.07536   0.00005   0.00000   0.00014   0.00014   2.07550
   R17        2.70634  -0.00036   0.00000  -0.00085  -0.00085   2.70549
   R18        2.07942  -0.00001   0.00000  -0.00004  -0.00004   2.07938
   R19        2.06394   0.00003   0.00000   0.00009   0.00009   2.06403
   R20        2.68950  -0.00076   0.00000  -0.00176  -0.00176   2.68774
   R21        1.83387   0.00002   0.00000   0.00003   0.00003   1.83390
   R22        1.83468  -0.00008   0.00000  -0.00015  -0.00015   1.83453
   R23        1.83357  -0.00003   0.00000  -0.00005  -0.00005   1.83352
   R24        1.85229  -0.00019   0.00000  -0.00036  -0.00036   1.85193
   R25        1.95131   0.01227   0.00000   0.02732   0.02702   1.97833
   R26        1.90801   0.01716   0.00000   0.03697   0.03720   1.94522
   R27        1.83038   0.00074   0.00000   0.00136   0.00136   1.83174
   R28        2.72779   0.01604   0.00000   0.11991   0.12024   2.84803
   R29        2.70472   0.01473   0.00000   0.10045   0.10018   2.80490
   R30        1.92242   0.01417   0.00000   0.03259   0.03289   1.95530
   R31        1.83098   0.00064   0.00000   0.00117   0.00117   1.83215
    A1        1.96546  -0.00235   0.00000  -0.00393  -0.00407   1.96139
    A2        1.86338   0.00187   0.00000   0.00188   0.00183   1.86521
    A3        1.94519  -0.00018   0.00000   0.00671   0.00680   1.95199
    A4        1.89440   0.00017   0.00000  -0.00242  -0.00225   1.89215
    A5        1.93478   0.00209   0.00000   0.01186   0.01173   1.94651
    A6        1.85506  -0.00156   0.00000  -0.01558  -0.01556   1.83950
    A7        1.94506   0.00155   0.00000   0.00927   0.00896   1.95402
    A8        1.83858  -0.00095   0.00000   0.00290   0.00294   1.84152
    A9        1.91660  -0.00053   0.00000  -0.01150  -0.01134   1.90525
   A10        1.87449  -0.00034   0.00000  -0.00304  -0.00294   1.87154
   A11        1.96169  -0.00044   0.00000  -0.00142  -0.00136   1.96033
   A12        1.92299   0.00069   0.00000   0.00441   0.00435   1.92734
   A13        2.08823  -0.00219   0.00000  -0.00946  -0.01062   2.07761
   A14        1.89305   0.00353   0.00000   0.02346   0.02296   1.91602
   A15        1.93466  -0.00016   0.00000   0.02393   0.02438   1.95903
   A16        1.78136   0.00363   0.00000   0.03383   0.03456   1.81591
   A17        1.94836   0.00049   0.00000   0.00063   0.00022   1.94857
   A18        2.01046  -0.00481   0.00000  -0.02670  -0.02687   1.98359
   A19        1.74558  -0.00163   0.00000  -0.00169  -0.00180   1.74379
   A20        1.97956   0.00190   0.00000   0.00193   0.00130   1.98086
   A21        1.97231   0.00122   0.00000  -0.00092  -0.00070   1.97161
   A22        1.95348   0.00375   0.00000   0.02935   0.02954   1.98302
   A23        1.86831  -0.00077   0.00000  -0.00006  -0.00018   1.86813
   A24        1.98256  -0.00081   0.00000  -0.00637  -0.00626   1.97630
   A25        1.86625  -0.00082   0.00000  -0.00740  -0.00746   1.85879
   A26        1.88872  -0.00241   0.00000  -0.01534  -0.01558   1.87314
   A27        1.90044   0.00105   0.00000  -0.00064  -0.00069   1.89975
   A28        1.98489  -0.00145   0.00000   0.00063   0.00019   1.98508
   A29        1.85546  -0.00109   0.00000   0.00142   0.00147   1.85692
   A30        1.98201   0.00249   0.00000   0.00024   0.00036   1.98237
   A31        1.88388   0.00229   0.00000   0.01014   0.01015   1.89404
   A32        1.82652  -0.00197   0.00000  -0.01161  -0.01137   1.81515
   A33        1.93017  -0.00018   0.00000  -0.00017  -0.00021   1.92997
   A34        1.90090   0.00013   0.00000  -0.00074  -0.00075   1.90015
   A35        1.92632   0.00041   0.00000   0.00293   0.00293   1.92925
   A36        1.95117  -0.00119   0.00000  -0.00550  -0.00551   1.94566
   A37        1.88766  -0.00011   0.00000   0.00071   0.00071   1.88836
   A38        1.95265   0.00035   0.00000  -0.00011  -0.00012   1.95253
   A39        1.84374   0.00046   0.00000   0.00309   0.00309   1.84683
   A40        1.88265  -0.00005   0.00000  -0.00030  -0.00030   1.88235
   A41        1.85198  -0.00006   0.00000  -0.00032  -0.00032   1.85166
   A42        1.88474   0.00013   0.00000   0.00073   0.00073   1.88547
   A43        1.84742   0.00108   0.00000   0.00631   0.00631   1.85373
   A44        1.94746   0.00137   0.00000  -0.00176  -0.00175   1.94571
   A45        1.85341   0.00137   0.00000   0.00776   0.00801   1.86142
   A46        1.80917  -0.00572   0.00000  -0.03098  -0.03024   1.77893
   A47        1.90625   0.00227   0.00000   0.01184   0.01040   1.91665
   A48        1.71844  -0.00261   0.00000  -0.01698  -0.01647   1.70197
   A49        1.88839   0.00109   0.00000   0.00776   0.00788   1.89627
   A50        1.86201   0.00047   0.00000   0.00260   0.00281   1.86482
   A51        2.87790  -0.00198   0.00000  -0.00696  -0.00661   2.87129
   A52        3.00072   0.00105   0.00000  -0.00474  -0.00488   2.99584
   A53        2.98597   0.00297   0.00000   0.03160   0.03128   3.01725
   A54        3.10935   0.00061   0.00000   0.06623   0.06618   3.17553
   A55        3.22998  -0.00235   0.00000  -0.08913  -0.08886   3.14112
    D1        0.83616  -0.00054   0.00000  -0.02398  -0.02428   0.81188
    D2        2.87566   0.00006   0.00000  -0.01689  -0.01700   2.85866
    D3       -1.30923   0.00035   0.00000  -0.02161  -0.02176  -1.33100
    D4        2.91358  -0.00048   0.00000  -0.02800  -0.02821   2.88537
    D5       -1.33011   0.00012   0.00000  -0.02092  -0.02092  -1.35103
    D6        0.76818   0.00041   0.00000  -0.02564  -0.02569   0.74250
    D7       -1.35092  -0.00136   0.00000  -0.04202  -0.04220  -1.39313
    D8        0.68857  -0.00076   0.00000  -0.03493  -0.03492   0.65366
    D9        2.78687  -0.00046   0.00000  -0.03965  -0.03968   2.74718
   D10       -0.54541   0.00291   0.00000   0.04620   0.04603  -0.49937
   D11       -2.61587   0.00164   0.00000   0.03240   0.03239  -2.58348
   D12        1.54103   0.00109   0.00000   0.03147   0.03141   1.57243
   D13       -2.60464   0.00190   0.00000   0.04781   0.04766  -2.55699
   D14        1.60807   0.00063   0.00000   0.03401   0.03401   1.64209
   D15       -0.51821   0.00007   0.00000   0.03308   0.03303  -0.48518
   D16        1.64733   0.00251   0.00000   0.06140   0.06125   1.70858
   D17       -0.42314   0.00124   0.00000   0.04760   0.04761  -0.37553
   D18       -2.54942   0.00068   0.00000   0.04667   0.04663  -2.50280
   D19        1.25473  -0.00124   0.00000  -0.00700  -0.00698   1.24776
   D20       -0.94931   0.00039   0.00000  -0.01602  -0.01602  -0.96533
   D21       -3.00466  -0.00001   0.00000  -0.01032  -0.01035  -3.01502
   D22        1.15471   0.00071   0.00000  -0.01513  -0.01546   1.13925
   D23        3.00520   0.00075   0.00000  -0.00079  -0.00076   3.00444
   D24       -0.99809  -0.00148   0.00000  -0.02623  -0.02565  -1.02375
   D25       -0.87272   0.00088   0.00000  -0.01780  -0.01818  -0.89090
   D26        0.97777   0.00093   0.00000  -0.00346  -0.00348   0.97429
   D27       -3.02552  -0.00131   0.00000  -0.02891  -0.02838  -3.05390
   D28       -2.94310   0.00087   0.00000  -0.01876  -0.01918  -2.96228
   D29       -1.09261   0.00091   0.00000  -0.00442  -0.00447  -1.09709
   D30        1.18728  -0.00132   0.00000  -0.02987  -0.02937   1.15791
   D31       -0.48938   0.00184   0.00000   0.00072   0.00083  -0.48856
   D32        1.56472   0.00115   0.00000   0.00961   0.00960   1.57432
   D33       -2.66209   0.00102   0.00000   0.00830   0.00829  -2.65379
   D34        1.51596   0.00133   0.00000   0.00732   0.00739   1.52334
   D35       -2.71313   0.00063   0.00000   0.01621   0.01616  -2.69696
   D36       -0.65675   0.00050   0.00000   0.01489   0.01486  -0.64189
   D37       -2.64942   0.00170   0.00000   0.00988   0.00999  -2.63943
   D38       -0.59532   0.00100   0.00000   0.01877   0.01876  -0.57655
   D39        1.46106   0.00087   0.00000   0.01745   0.01746   1.47852
   D40        3.07905  -0.00072   0.00000   0.00164   0.00174   3.08079
   D41       -1.02834   0.00058   0.00000   0.00404   0.00393  -1.02442
   D42        1.06149   0.00034   0.00000   0.00227   0.00228   1.06377
   D43       -0.88605   0.00199   0.00000   0.03784   0.03751  -0.84854
   D44       -2.89090   0.00092   0.00000   0.02777   0.02742  -2.86349
   D45        1.28748  -0.00040   0.00000   0.02900   0.02874   1.31622
   D46       -3.12783   0.00065   0.00000  -0.01176  -0.01205  -3.13987
   D47        1.15051  -0.00041   0.00000  -0.02183  -0.02214   1.12837
   D48       -0.95429  -0.00174   0.00000  -0.02060  -0.02082  -0.97511
   D49       -0.09184  -0.00150   0.00000  -0.01851  -0.01834  -0.11018
   D50       -2.13258  -0.00213   0.00000  -0.02997  -0.02981  -2.16239
   D51        2.10589  -0.00170   0.00000  -0.01749  -0.01743   2.08845
   D52        2.13084   0.00151   0.00000   0.03140   0.03113   2.16196
   D53        0.09010   0.00089   0.00000   0.01994   0.01965   0.10976
   D54       -1.95462   0.00132   0.00000   0.03242   0.03203  -1.92259
   D55       -1.72236  -0.00001   0.00000   0.00862   0.00839  -1.71397
   D56        0.26979   0.00046   0.00000  -0.00295  -0.00321   0.26658
   D57        2.26740  -0.00001   0.00000  -0.02616  -0.02741   2.23999
   D58       -2.02363   0.00046   0.00000  -0.03774  -0.03901  -2.06264
   D59       -2.97315   0.00338   0.00000   0.02591   0.02550  -2.94764
   D60        1.26636   0.00065   0.00000  -0.00088  -0.00141   1.26495
   D61       -0.70485   0.00070   0.00000   0.00062   0.00048  -0.70437
   D62        3.00335   0.00113   0.00000   0.00368   0.00374   3.00709
   D63        0.93354   0.00094   0.00000   0.00153   0.00159   0.93514
   D64       -1.11316   0.00085   0.00000  -0.00075  -0.00069  -1.11385
   D65        0.82278  -0.00134   0.00000  -0.01827  -0.01831   0.80447
   D66       -1.24703  -0.00153   0.00000  -0.02042  -0.02046  -1.26749
   D67        2.98945  -0.00161   0.00000  -0.02271  -0.02274   2.96671
   D68       -1.19980   0.00037   0.00000  -0.00089  -0.00091  -1.20071
   D69        3.01357   0.00018   0.00000  -0.00304  -0.00306   3.01052
   D70        0.96687   0.00010   0.00000  -0.00532  -0.00534   0.96153
   D71        1.09054   0.00059   0.00000   0.00188   0.00199   1.09254
   D72       -3.01812  -0.00109   0.00000  -0.00542  -0.00555  -3.02367
   D73       -0.99362   0.00042   0.00000   0.00001   0.00002  -0.99360
   D74       -1.14971   0.00016   0.00000   0.00141   0.00141  -1.14830
   D75        0.98766  -0.00028   0.00000  -0.00365  -0.00365   0.98402
   D76        3.03768   0.00004   0.00000  -0.00101  -0.00101   3.03667
   D77       -0.80009  -0.00007   0.00000  -0.02310  -0.02226  -0.82235
   D78       -2.70545  -0.00037   0.00000  -0.03336  -0.03318  -2.73864
   D79       -0.19097   0.00050   0.00000   0.01609   0.01564  -0.17534
   D80        1.77898   0.00024   0.00000   0.01488   0.01429   1.79327
   D81        0.35466  -0.00014   0.00000  -0.00543  -0.00587   0.34879
   D82        2.30896   0.00018   0.00000  -0.00281  -0.00289   2.30607
         Item               Value     Threshold  Converged?
 Maximum Force            0.018942     0.000450     NO 
 RMS     Force            0.003483     0.000300     NO 
 Maximum Displacement     0.283205     0.001800     NO 
 RMS     Displacement     0.064225     0.001200     NO 
 Predicted change in Energy=-6.235606D-03
 GradGradGradGradGradGradGradGradGradGradGradGradGradGradGradGradGradGrad

                          Input orientation:                          
 ---------------------------------------------------------------------
 Center     Atomic      Atomic             Coordinates (Angstroms)
 Number     Number       Type             X           Y           Z
 ---------------------------------------------------------------------
      1          6           0        1.088318    0.220235    1.106097
      2          6           0        0.476454   -1.491638   -0.738445
      3          8           0       -0.525689    0.693982   -0.749177
      4          6           0       -0.871637   -0.791474   -0.647707
      5          6           0        0.537007    1.230599    0.087942
      6          6           0        1.375984   -1.166517    0.467050
      7          1           0        1.191987   -1.913310    1.251096
      8          1           0        0.964430   -1.075126   -1.630382
      9          1           0        0.095119    2.057328    0.661640
     10          1           0        2.032605    0.630725    1.482232
     11          6           0        1.615453    1.797104   -0.848779
     12          1           0        1.127719    2.399411   -1.629891
     13          1           0        2.164215    0.987614   -1.335166
     14          8           0        2.587177    2.547370   -0.130611
     15          1           0        2.146922    3.330753    0.235825
     16          8           0        0.267649   -2.884415   -0.893873
     17          1           0        1.148335   -3.278019   -1.002992
     18          8           0        2.705525   -1.294991   -0.048245
     19          1           0        3.324860   -1.206865    0.693411
     20          8           0        0.248907    0.105225    2.242332
     21          1           0       -0.554532   -0.368822    1.942067
     22          1           0       -1.452491   -0.912952   -1.567689
     23          8           0       -1.574228   -1.107476    0.466596
     24          8           0       -2.730719    1.956609   -0.582858
     25          1           0       -1.799381    1.526747   -0.669004
     26          1           0       -3.018148    2.179071   -1.481448
     27          8           0       -3.889373   -0.119200    0.251470
     28          1           0       -2.560809   -0.762131    0.408536
     29          1           0       -3.554283    0.811587   -0.051778
     30          1           0       -4.283565   -0.003523    1.129664
 ---------------------------------------------------------------------
                    Distance matrix (angstroms):
                    1          2          3          4          5
     1  C    0.000000
     2  C    2.589831   0.000000
     3  O    2.504296   2.404442   0.000000
     4  C    2.817944   1.521779   1.528580   0.000000
     5  C    1.536691   2.845550   1.455352   2.571816   0.000000
     6  C    1.553774   1.538856   2.925240   2.536758   2.567834
     7  H    2.140977   2.155938   3.708028   3.020349   3.415565
     8  H    3.030120   1.098706   2.475222   2.101726   2.907180
     9  H    2.135158   3.834165   2.057795   3.280958   1.099034
    10  H    1.096201   3.443463   3.395299   3.872197   2.130893
    11  C    2.566306   3.482143   2.410661   3.595383   1.536691
    12  H    3.497999   4.044637   2.533358   3.891511   2.160096
    13  H    2.776003   3.057990   2.768607   3.585269   2.175336
    14  O    3.031762   4.597630   3.675269   4.835148   2.446395
    15  H    3.399021   5.195684   3.881448   5.185083   2.650348
    16  O    3.783151   1.416893   3.668140   2.395615   4.239087
    17  H    4.085295   1.926802   4.317820   3.223262   4.678835
    18  O    2.498754   2.341752   3.858505   3.661826   3.331610
    19  H    2.684966   3.200739   4.530012   4.425126   3.752326
    20  O    1.417345   3.389215   3.145753   3.226765   2.447624
    21  H    1.935146   3.083633   2.893645   2.643127   2.680930
    22  H    3.858622   2.177924   2.027600   1.094767   3.360659
    23  O    3.043178   2.409357   2.413046   1.354681   3.172899
    24  O    4.522457   4.711749   2.546379   3.318487   3.413956
    25  H    3.632736   3.780859   1.523882   2.497060   2.473738
    26  H    5.234070   5.122343   2.992334   3.758560   4.000213
    27  O    5.061918   4.682303   3.602351   3.219814   4.630501
    28  H    3.842885   3.327568   2.757223   1.992439   3.697325
    29  H    4.821216   4.692888   3.110077   3.181435   4.115064
    30  H    5.376594   5.325608   4.258896   3.926980   5.083912
                    6          7          8          9         10
     6  C    0.000000
     7  H    1.098308   0.000000
     8  H    2.139381   3.009526   0.000000
     9  H    3.474429   4.161315   3.977605   0.000000
    10  H    2.166062   2.689270   3.706655   2.542128   0.000000
    11  C    3.251431   4.284386   3.047038   2.158818   2.639709
    12  H    4.144231   5.186885   3.478373   2.536612   3.692206
    13  H    2.917117   4.006162   2.404482   3.068009   2.842960
    14  O    3.951853   4.873739   4.243241   2.660480   2.565607
    15  H    4.568726   5.426129   4.928772   2.452106   2.976030
    16  O    2.455951   2.529494   2.074000   5.183649   4.595341
    17  H    2.582883   2.635384   2.297863   5.687371   4.715565
    18  O    1.431682   2.088397   2.362817   4.307691   2.550209
    19  H    1.962393   2.315000   3.314966   4.592080   2.380945
    20  O    2.457490   2.438530   4.111339   2.516534   2.008850
    21  H    2.557124   2.431709   3.945694   2.819175   2.811373
    22  H    3.493527   3.992434   2.423167   4.023379   4.881685
    23  O    2.950803   2.986093   3.292893   3.583399   4.130630
    24  O    5.265096   5.807519   4.893144   3.089382   5.358341
    25  H    4.315928   4.946620   3.915692   2.375134   4.484951
    26  H    5.856449   6.476080   5.145183   3.781545   6.057299
    27  O    5.372833   5.480721   5.292879   4.558695   6.094833
    28  H    3.957940   4.014797   4.084417   3.881671   4.918569
    29  H    5.337566   5.625800   5.144944   3.921604   5.796483
    30  H    5.815678   5.800319   6.025582   4.861999   6.357718
                   11         12         13         14         15
    11  C    0.000000
    12  H    1.100362   0.000000
    13  H    1.092239   1.776052   0.000000
    14  O    1.422291   2.097559   2.015611   0.000000
    15  H    1.952154   2.321006   2.821102   0.970459   0.000000
    16  O    4.871882   5.403727   4.334087   5.955424   6.590615
    17  H    5.098907   5.711974   4.397496   6.063536   6.797626
    18  O    3.374931   4.317371   2.675718   3.845065   4.668003
    19  H    3.784739   4.819792   3.205926   3.913754   4.710298
    20  O    3.779532   4.585816   4.152771   4.130670   4.246476
    21  H    4.145949   4.822030   4.468978   4.761355   4.888351
    22  H    4.156142   4.199179   4.092283   5.509804   5.849571
    23  O    4.510084   4.898371   4.648839   5.570624   5.796386
    24  O    4.357220   4.022424   5.046315   5.369688   5.133215
    25  H    3.430234   3.201993   4.055186   4.535795   4.432433
    26  H    4.692166   4.154370   5.319572   5.777549   5.563573
    27  O    5.931769   5.920653   6.355185   7.014434   6.952646
    28  H    5.056845   5.268375   5.331787   6.143715   6.240534
    29  H    5.322840   5.189679   5.863386   6.382530   6.239604
    30  H    6.477261   6.532322   6.973637   7.436562   7.298460
                   16         17         18         19         20
    16  O    0.000000
    17  H    0.970793   0.000000
    18  O    3.030610   2.696067   0.000000
    19  H    3.831473   3.450322   0.970256   0.000000
    20  O    4.332907   4.773619   3.638999   3.685407   0.000000
[...]
 0739,0.00053206,0.00072351,-0.00032434,0.00007787,-0.00022896,0.000189
 86,0.00036091,-0.00040513,-0.00003945,-0.00001083,0.00001013,0.0000233
 2,0.00054984,0.00006263,0.00001995,-0.00004155,0.00001256,0.00003058,0
 .00035649,0.00040577,0.00024014,-0.00056271,-0.00033098,-0.00067417,-0
 .00005321,0.00045168,0.00040984,0.00262578,-0.00073135,0.00027771,-0.1
 8745530,0.12643168,0.00054983,0.00024901,-0.00017462,-0.00002314,0.000
 08456,0.00005611,-0.00221573,0.00132084,0.00428532,0.00048250,0.000252
 89,-0.00204573,0.00083635,-0.00096177,0.00001032,0.00011079,-0.0000389
 3,-0.00009595,0.00000952,-0.00000917,0.00003834,-0.00008602,0.00003214
 ,0.00004618,0.00047220,0.00022740,0.00017306,-0.00000796,-0.00004907,0
 .00006665,-0.00018124,0.00029582,-0.00039771,-0.00001312,-0.00015148,0
 .00016765,-0.00004930,-0.00004761,0.00006591,0.00004972,-0.00006627,0.
 00028731,0.00004422,0.00006291,-0.00012855,-0.00001005,0.00004212,0.00
 013311,-0.00001051,0.00000039,-0.00005044,-0.00012227,0.00002886,0.000
 11150,0.00003390,-0.00000792,-0.00001112,-0.00052694,0.00014085,0.0002
 4694,0.00029232,-0.00022953,0.00003692,0.00002032,0.00040750,0.0003217
 3,-0.00157367,0.00068831,0.00122799,0.07899495,-0.07598017,0.52913095,
 0.00161744,0.00129649,-0.00092142,-0.00177581,-0.00116228,0.00038886,-
 0.00348184,-0.00800927,0.00041205,0.01091787,0.01024100,-0.00160997,-0
 .00587063,-0.00458559,-0.00372391,-0.00082575,0.00055456,-0.00001425,0
 .00007136,-0.00021591,0.00002706,-0.00033670,0.00001874,0.00010801,0.0
 0025678,0.00060344,0.00003283,0.00033439,-0.00042814,0.00052520,-0.000
 82644,-0.00057185,0.00074694,-0.00022331,-0.00015119,0.00017863,0.0001
 0445,-0.00001088,0.00000049,0.00137500,0.00104399,0.00000824,-0.000231
 08,-0.00038364,0.00002448,0.00091978,-0.00176795,-0.00021983,-0.000032
 90,-0.00016987,0.00008169,0.00061893,-0.00035676,-0.00006300,-0.000136
 67,0.00019449,0.00002948,-0.00063909,-0.00048175,0.00100223,0.00037186
 ,0.00025651,-0.00040239,-0.00024029,-0.00079161,-0.00052773,-0.0052088
 0,-0.00165395,0.00292768,-0.35576660,0.15546617,-0.01090980,0.36819336
 ,-0.00134167,-0.00116002,-0.00011735,0.00070428,-0.00013452,-0.0004668
 5,-0.00534546,-0.00474184,-0.00180106,0.00003581,-0.00791539,0.0008485
 6,0.00212195,0.00667004,0.00397977,0.00064306,-0.00021920,0.00037463,-
 0.00005438,0.00002317,-0.00005146,0.00009703,0.00007301,-0.00003038,-0
 .00074605,-0.00084591,-0.00131081,-0.00030442,0.00039809,-0.00048110,-
 0.00004801,0.00055386,-0.00166574,0.00000386,-0.00017078,0.00043352,0.
 00019074,-0.00001314,0.00002294,-0.00086157,-0.00099040,0.00039522,-0.
 00005883,0.00026041,-0.00018133,-0.00045821,0.00095590,0.00006584,0.00
 000472,0.00002514,-0.00003090,-0.00058763,0.00007979,-0.00002601,0.000
 06182,-0.00008295,-0.00003288,0.00005577,-0.00011475,-0.00053231,0.000
 25985,0.00009218,0.00068499,-0.00003630,-0.00014265,-0.00025845,0.0014
 8804,0.00169360,-0.00157096,0.15317758,-0.08517930,0.01052967,-0.14916
 538,0.09160561,-0.00085833,-0.00040764,-0.00018543,-0.00012756,-0.0002
 0534,0.00013015,0.00246972,-0.00348055,-0.00554777,0.00020339,0.001576
 42,0.00133809,-0.00283403,0.00204911,-0.00061678,-0.00011916,0.0000330
 2,0.00012873,0.00000150,-0.00003522,-0.00003176,-0.00000649,-0.0000400
 9,-0.00001475,-0.00058559,-0.00034703,-0.00026631,0.00000097,0.0000933
 7,-0.00010263,0.00021328,-0.00051291,0.00059072,0.00005297,0.00024000,
 -0.00021525,0.00008560,0.00007691,-0.00010331,0.00007222,0.00016481,-0
 .00034382,-0.00009651,-0.00010513,0.00012604,0.00008731,-0.00026021,-0
 .00012693,0.00000933,-0.00001689,0.00005379,0.00019197,-0.00007442,-0.
 00010452,-0.00004076,0.00002503,0.00000572,0.00055371,-0.00028177,-0.0
 0010138,-0.00024074,0.00040655,-0.00015735,-0.00004801,-0.00050239,-0.
 00030171,0.00000703,-0.00098387,-0.00092513,0.04338538,-0.01252889,-0.
 05757414,0.00278676,-0.00528419,0.06540778,0.00007556,0.00009614,-0.00
 009218,0.00000365,0.00019598,0.00001740,-0.00135493,0.00062534,0.00131
 093,0.00009660,0.00044760,-0.00025225,0.00006681,-0.00014929,-0.000000
 92,-0.00005150,0.00003329,-0.00000101,0.00000758,-0.00002135,0.0000131
 0,-0.00002841,-0.00000259,0.00002195,0.00012901,-0.00000245,0.00000167
 ,0.00002225,-0.00001697,0.00001529,-0.00028213,0.00009096,-0.00033381,
 -0.00001011,-0.00010331,0.00015234,0.00001988,-0.00003186,0.00003585,0
 .00020038,0.00005487,0.00020655,-0.00005239,-0.00001433,-0.00007618,-0
 .00000934,-0.00016662,-0.00000769,0.00000079,0.00003311,0.00000215,0.0
 0007468,-0.00008016,0.00000733,-0.00002031,0.00003296,-0.00000056,-0.0
 0004030,-0.00006773,0.00013492,-0.00000826,0.00002055,-0.00005094,0.00
 005099,0.00011626,0.00003920,-0.00019755,-0.00016533,0.00024714,-0.066
 32060,0.02729112,-0.06821359,-0.00645614,0.00500775,-0.04748337,0.0719
 8372,-0.00012043,-0.00004113,-0.00000377,0.00003650,-0.00016698,-0.000
 18316,0.00004696,-0.00074217,-0.00085656,0.00043928,0.00021675,0.00086
 111,0.00038089,0.00039453,0.00015402,0.00009888,0.00006115,0.00007951,
 -0.00001523,-0.00000442,-0.00001179,0.00000196,0.00000861,0.00001327,0
 .00004975,-0.00004934,-0.00000624,-0.00004091,0.00003173,-0.00004751,0
 .00004756,0.00018544,-0.00016695,0.00000136,-0.00000478,0.00007570,0.0
 0002516,-0.00002638,0.00001766,-0.00013297,-0.00018585,0.00005951,-0.0
 0000262,0.00007689,-0.00006706,-0.00006704,0.00007113,-0.00003075,0.00
 000619,-0.00001736,0.00000742,-0.00016259,-0.00002278,-0.00002461,0.00
 000742,-0.00000153,-0.00000710,-0.00007085,-0.00008115,-0.00006613,0.0
 0009919,0.00007209,0.00014272,-0.00003903,-0.00032141,-0.00025953,-0.0
 0020904,-0.00010030,-0.00040868,0.02889788,-0.02042363,0.05511548,0.00
 357129,-0.00261345,0.02082423,-0.03402599,0.02455646,0.00004723,0.0000
 4222,-0.00003202,-0.00006691,0.00001162,0.00006041,0.00102234,-0.00077
 187,0.00005421,0.00006673,0.00036522,0.00012312,-0.00021115,-0.0001633
 6,-0.00012521,-0.00004104,0.00001612,0.00000549,0.00000136,-0.00000776
 ,-0.00000439,0.00001439,-0.00000420,-0.00000744,-0.00001541,0.00001820
 ,-0.00003992,0.00001687,-0.00001815,0.00002072,-0.00002802,-0.00002368
 ,0.00007642,-0.00002116,0.00001319,0.00001813,0.00001651,-0.00000974,0
 .00000601,0.00005502,0.00003904,-0.00003694,-0.00002426,-0.00001629,0.
 00000654,0.00002862,-0.00007009,-0.00004250,0.00000409,-0.00000336,0.0
 0001657,0.00004953,-0.00001794,-0.00001277,-0.00000815,0.00000917,0.00
 000249,0.00000479,-0.00000266,0.00002884,-0.00001429,-0.00001177,-0.00
 003831,-0.00003077,0.00001154,0.00003371,0.00013356,-0.00009712,-0.000
 00488,-0.11913218,0.08244130,-0.46908136,0.00617202,-0.00315757,-0.002
 23812,0.11201974,-0.07887144,0.47310525,0.00057415,0.00025423,-0.00038
 916,-0.00001671,-0.00150460,0.00111948,-0.00226150,-0.00325220,0.00099
 341,0.00366180,0.00515800,-0.00960772,0.00142828,0.00086179,0.00095789
 ,0.00106264,0.00004524,0.00022717,0.00000537,-0.00008457,0.00006204,-0
 .00066525,0.00037302,0.00023704,-0.00012366,-0.00013757,-0.00015703,-0
 .00020101,0.00001342,-0.00006164,0.00039696,0.00039516,-0.00024718,0.0
 0000447,-0.00006022,0.00004481,0.00000270,0.00001602,-0.00001675,-0.00
 065882,-0.00059608,0.00004491,0.00014602,0.00021138,-0.00004609,-0.000
 13859,0.00083552,0.00022989,-0.00002098,-0.00020291,-0.00004475,-0.000
 93846,0.00014203,0.00007942,0.00011692,-0.00011007,-0.00003672,-0.0013
 6576,-0.00067214,-0.00078711,0.00141576,0.00077741,0.00206299,0.000152
 54,-0.00044583,0.00098481,-0.02752356,0.00934230,0.00229520,0.00264520
 ,-0.00886248,0.00528483,0.00055495,0.00187177,-0.00123327,-0.00200166,
 -0.00134038,0.00002045,0.15981431,-0.00036996,-0.00046502,0.00046248,0
 .00014019,0.00032364,-0.00084515,-0.00128506,0.00449098,-0.00081052,-0
 .00208317,-0.00581298,0.00561546,0.00027863,0.00004519,-0.00000282,-0.
 00039464,-0.00022703,-0.00013256,-0.00003914,0.00014400,-0.00006673,0.
 00045304,-0.00014274,-0.00019645,0.00018032,0.00016557,0.00020614,0.00
 001773,0.00007961,-0.00004590,0.00012962,-0.00007389,0.00016946,0.0000
 2529,0.00009715,-0.00015765,-0.00009077,-0.00000779,0.00004250,-0.0000
 8379,0.00010236,-0.00013655,0.00007085,-0.00002771,0.00006947,0.000094
 18,0.00035326,-0.00006332,0.00000523,0.00006014,0.00001460,0.00027676,
 0.00021569,-0.00001247,-0.00000884,-0.00006816,0.00002525,0.00062568,0
 .00095840,0.00013077,-0.00054816,-0.00105251,-0.00081526,-0.00008959,-
 0.00000631,-0.00056727,0.01626776,0.00232304,-0.00326383,-0.01223122,-
 0.01238774,0.01213537,0.00458037,-0.00387357,0.00102617,-0.00268278,-0
 .00197998,-0.00068973,0.04153543,0.43650650,0.00048717,0.00021991,-0.0
 0060736,-0.00017646,-0.00030973,0.00082716,0.00083910,-0.00164161,0.00
 110170,-0.00067043,0.00245947,-0.00378033,-0.00022261,-0.00032489,-0.0
 0028471,0.00021052,-0.00005086,-0.00007522,0.00001901,-0.00007474,0.00
 004022,-0.00028473,0.00011073,0.00008126,-0.00000131,0.00010900,-0.000
 04906,-0.00003925,-0.00003700,0.00008314,-0.00006542,0.00008316,-0.000
 05870,-0.00001435,-0.00007709,0.00010031,0.00000047,-0.00000426,0.0000
 0401,0.00008439,-0.00001578,0.00013521,-0.00001227,0.00002500,-0.00007
 024,0.00009330,-0.00006744,0.00015377,-0.00000146,-0.00002769,-0.00005
 263,-0.00011712,0.00000676,0.00014189,0.00004543,0.00000943,-0.0000269
 6,-0.00064814,-0.00008227,0.00051089,0.00083898,-0.00004562,-0.0000656
 4,-0.00033433,0.00012064,0.00113887,-0.00314654,-0.00041565,0.00850713
 ,0.00852475,0.01188366,-0.00028415,-0.00268687,0.00111957,-0.00133879,
 -0.00038484,-0.00110958,0.00100355,-0.22968732,-0.04543011,0.49331309,
 -0.00091075,-0.00059884,0.00056226,0.00082662,0.00133713,0.00062355,0.
 00284204,0.00824293,-0.00276877,-0.02402578,-0.00537863,0.01475811,-0.
 00206293,-0.00115024,-0.00146022,-0.00130229,-0.00031262,-0.00029867,0
 .00001602,0.00021652,-0.00011308,0.00088210,-0.00034837,-0.00052272,0.
 00036955,0.00034359,0.00035360,0.00026035,0.00000648,0.00009618,-0.000
 44283,-0.00045291,0.00049590,0.00000471,0.00011683,-0.00013449,-0.0000
 5580,-0.00002846,0.00004292,0.00085538,0.00081645,-0.00012190,-0.00013
 705,-0.00028014,0.00007812,0.00016850,-0.00086743,-0.00038416,0.000068
 45,0.00034928,-0.00000581,0.00134922,-0.00008472,-0.00007453,-0.000110
 48,0.00011277,0.00004996,0.00249584,0.00157601,0.00156546,-0.00319242,
 -0.00198750,-0.00450697,0.00234344,0.00057887,-0.00405364,-0.34399502,
 0.08784301,-0.02018595,-0.00564302,-0.00351821,0.00176282,0.00447171,-
 0.00208709,0.00066172,0.00012744,0.00023383,-0.00020642,0.00027950,-0.
 00931180,0.00427491,0.35777996,0.00058284,0.00059563,-0.00025555,0.000
 87099,0.00069075,0.00120419,0.00029382,-0.00347977,0.00079982,-0.01191
 503,0.00657831,-0.00404323,-0.00036170,-0.00004390,-0.00013078,0.00056
 353,-0.00003649,0.00020280,-0.00001011,-0.00008009,-0.00004986,-0.0002
 7464,0.00005758,0.00029064,-0.00016830,-0.00022510,-0.00007730,0.00000
 866,-0.00006967,-0.00002562,0.00005229,0.00003254,0.00000441,-0.000034
 07,-0.00004482,0.00005641,0.00007168,0.00002438,-0.00004637,-0.0000096
 0,-0.00009333,0.00001608,-0.00002283,0.00002051,-0.00001681,-0.0005798
 8,0.00032627,0.00010009,-0.00005953,0.00003938,-0.00000652,-0.00023110
 ,-0.00012248,0.00000878,0.00002348,0.00002821,-0.00000102,-0.00125896,
 -0.00178366,-0.00153909,-0.00037807,0.00192737,0.00214021,0.00038906,-
 0.00074039,0.00179293,0.09872731,-0.04825464,0.01902926,0.00114382,0.0
 0188294,-0.00129630,-0.00206517,-0.00094515,0.00113126,0.00010753,0.00
 002708,0.00011528,-0.00910593,-0.00595836,0.00085981,-0.08253243,0.054
 68781,0.00052679,0.00021525,-0.00006606,0.00222442,0.00337679,-0.00605
 008,-0.00141916,0.00096251,-0.00055297,0.04238631,-0.01169531,-0.00056
 349,-0.00003952,0.00021509,0.00011258,-0.00010205,0.00032164,-0.000490
 13,0.00007092,-0.00014852,0.00019865,0.00166031,-0.00084384,-0.0000873
 0,-0.00004038,-0.00010330,-0.00003323,-0.00000926,0.00003331,-0.000048
 83,0.00010694,-0.00008363,-0.00007713,-0.00000922,0.00001803,0.0000016
 6,-0.00002587,-0.00000603,0.00000508,-0.00008004,-0.00001926,-0.000006
 67,0.00000896,0.00001103,0.00002100,-0.00049339,-0.00010560,0.00027903
 ,-0.00010006,0.00002297,-0.00000348,-0.00005766,-0.00007056,0.00017652
 ,0.00004221,-0.00000758,0.00008655,-0.00110717,-0.00177099,-0.00178349
 ,-0.00146175,0.00240138,0.00251968,0.00056692,-0.00052155,0.00000177,-
 0.05851337,0.02780564,-0.05499363,-0.00017037,-0.00079353,-0.00041179,
 0.00059231,0.00070153,0.00036979,-0.00001602,0.00029400,-0.00007172,-0
 .00131572,0.00431146,-0.01474885,0.01281404,-0.02167523,0.07387276,0.0
 0014722,0.00027544,-0.00023406,-0.00019237,0.00024958,0.00041855,0.002
 25928,-0.00176429,0.00014692,-0.00042646,0.00325815,-0.00093258,-0.000
 94549,-0.00064186,-0.00061164,-0.00012216,0.00010448,-0.00002064,0.000
 03104,-0.00007314,0.00003074,-0.00011284,-0.00000362,0.00005533,-0.000
 05556,-0.00000605,-0.00003409,0.00007482,-0.00007875,0.00008597,-0.000
 24768,-0.00014215,0.00006327,-0.00002677,-0.00003869,0.00007295,0.0000
 5137,0.00000187,-0.00001983,0.00037431,0.00023216,0.00006242,-0.000102
 14,-0.00008450,-0.00002318,0.00006130,-0.00051406,-0.00004579,0.000001
 48,0.00002145,0.00001424,0.00020749,-0.00017226,-0.00000006,-0.0000372
 6,0.00007824,-0.00000151,0.00000987,-0.00034689,0.00026164,-0.00003413
 ,0.00035219,-0.00018020,0.00011254,0.00018131,0.00028448,-0.00453777,-
 0.00187183,0.00129898,-0.00829349,0.00540820,-0.00429461,-0.00781649,-
 0.00465177,0.00248980,0.00369259,0.00229867,0.00021848,-0.04555887,-0.
 05857638,0.04403526,0.00771732,0.00550213,-0.00292699,0.05807618,0.000
 39550,0.00038220,-0.00053722,-0.00020244,-0.00031392,0.00011631,0.0017
 4834,-0.00452329,0.00079585,0.00366649,0.00432271,-0.00292284,-0.00032
 922,-0.00022238,-0.00008608,0.00016397,0.00023140,0.00017746,0.0000256
 2,-0.00012381,0.00003318,-0.00028354,0.00006502,0.00013441,-0.00018431
 ,-0.00009460,-0.00024671,-0.00001018,-0.00007165,0.00006797,-0.0001934
 3,0.00007123,-0.00020748,-0.00003132,-0.00010477,0.00018646,0.00008279
 ,-0.00000479,-0.00002187,0.00014692,-0.00005408,0.00017197,-0.00008697
 ,0.00001717,-0.00008676,-0.00001750,-0.00033528,0.00003956,-0.00000553
 ,-0.00005097,-0.00000672,-0.00020472,-0.00017726,-0.00000570,-0.000010
 55,0.00006097,-0.00001660,-0.00059546,-0.00060963,0.00017166,0.0006745
 1,0.00054178,0.00044687,0.00001702,-0.00015590,-0.00011307,-0.00643160
 ,0.00054333,0.00169523,0.00502686,-0.00475931,-0.00233545,-0.00596449,
 0.00636931,-0.00264815,0.00321891,0.00086047,0.00097341,-0.08315856,-0
 .35102568,0.12880988,0.00861445,-0.00582691,0.00108506,0.06934228,0.34
 427018,-0.00046729,-0.00025213,0.00051303,0.00011933,0.00003615,-0.000
 32964,-0.00119480,0.00227640,-0.00112787,-0.00145932,-0.00239990,0.003
 33168,0.00026270,0.00044877,0.00033205,-0.00012829,-0.00002012,0.00001
 144,-0.00002576,0.00007584,-0.00004146,0.00019689,-0.00004574,-0.00008
 429,0.00003869,-0.00009888,0.00009416,0.00001397,0.00004771,-0.0000760
 2,0.00013214,-0.00008281,0.00009549,0.00001900,0.00008520,-0.00012237,
 -0.00001363,0.00000960,-0.00000752,-0.00013421,-0.00000899,-0.00015068
 ,0.00003331,-0.00001288,0.00007700,-0.00003372,0.00018265,-0.00010601,
 0.00000924,0.00002637,0.00003059,0.00009096,0.00004607,-0.00008958,-0.
 00002050,-0.00002298,0.00001402,0.00061764,0.00016592,-0.00031678,-0.0
 0054917,-0.00004383,-0.00013306,-0.00002101,-0.00013638,-0.00045762,0.
 00441796,-0.00067366,-0.00190768,-0.00921696,-0.00720401,-0.00663591,0
 .00482906,-0.00205668,0.00210403,0.00266776,0.00455456,-0.00286935,0.0
 4208071,0.07525248,-0.08376918,-0.00615406,0.00324386,0.00036619,-0.04
 659723,-0.11436304,0.10753181,-0.00021651,-0.00002700,0.00027584,0.000
 01045,0.00024134,-0.00007294,0.00025404,0.00017692,-0.00030655,0.00005
 422,-0.00042173,0.00075833,-0.00019501,0.00000628,-0.00002237,-0.00014
 119,0.00005321,0.00000622,0.00000522,0.00001154,-0.00000217,0.00006130
 ,-0.00003487,-0.00001479,-0.00001462,-0.00006331,0.00000761,0.00005625
 ,-0.00000459,-0.00002281,-0.00009029,-0.00010535,0.00001923,0.00000292
 ,0.00002128,-0.00002005,0.00001872,0.00000351,-0.00000855,0.00011325,0
 .00010598,-0.00003086,-0.00004026,-0.00004957,0.00002407,-0.00000315,-
 0.00016158,-0.00007523,0.00000521,0.00003677,0.00002722,0.00017731,-0.
 00007831,-0.00006837,-0.00004105,0.00003043,0.00001189,0.00041981,-0.0
 0010626,-0.00023904,-0.00053545,0.00018448,0.00008703,0.00008991,0.000
 00780,-0.00022044,-0.00120798,0.00035973,-0.00277061,-0.00033496,-0.00
 021200,-0.00070632,0.00006065,0.00002272,0.00040116,0.00028170,-0.0000
 1566,-0.00009197,-0.09078674,0.02311422,0.17904017,-0.00097980,0.00067
 019,0.00688785,-0.00430733,0.00458614,0.01048659,0.09728340,-0.0000303
 4,0.00002521,-0.00004877,-0.00000834,0.00013372,0.00005829,0.00018380,
 -0.00016420,0.00002437,-0.00032975,0.00011458,-0.00000252,-0.00013083,
 0.00003237,-0.00000090,-0.00002199,0.00002485,-0.00004420,0.00000973,-
 0.00001819,0.00001140,-0.00000419,-0.00001850,0.00000142,-0.00000799,-
 0.00003426,-0.00000884,0.00000631,-0.00000549,0.00001104,-0.00002842,-
 0.00002928,0.00000405,-0.00000153,-0.00000488,0.00001082,0.00001288,0.
 00000289,-0.00001200,0.00004715,0.00001954,0.00000506,-0.00002136,-0.0
 0000886,0.00000162,-0.00000183,-0.00015212,0.00001945,0.00000798,0.000
 02181,-0.00000943,0.00004233,-0.00005328,0.00001428,-0.00000143,0.0000
 2711,-0.00000398,0.00007484,-0.00012531,0.00012299,0.00002424,0.000153
 23,-0.00016558,-0.00017753,0.00002618,0.00016732,0.00158013,-0.0006698
 7,0.00123789,-0.00105073,-0.00347164,-0.00044047,0.00010862,0.00034294
 ,0.00006784,0.00015838,0.00022031,-0.00011958,0.04770083,-0.06275606,-
 0.09610272,-0.00144875,0.00078599,-0.00393077,-0.01833992,0.01071845,0
 .04097047,-0.02835230,0.05486274,-0.00006771,-0.00001699,0.00013255,0.
 00006307,-0.00005788,0.00003764,-0.00024358,-0.00005089,-0.00002187,0.
 00022599,0.00007700,-0.00038716,0.00013442,0.00010239,0.00010300,0.000
 02783,0.00001400,0.00002570,-0.00000125,0.00000936,0.00000071,-0.00002
 645,0.00001512,0.00000750,-0.00000578,-0.00002869,-0.00000036,0.000001
 44,0.00000341,-0.00002186,0.00001833,0.00000545,-0.00000328,0.00000165
 ,0.00001003,-0.00001508,0.00000311,0.00000075,-0.00000185,-0.00003975,
 -0.00002167,-0.00002708,0.00000565,0.00000107,0.00001428,-0.00003055,0
 .00002980,-0.00002787,0.00000014,-0.00000454,0.00001556,-0.00001680,-0
 .00000848,-0.00003259,-0.00000704,-0.00000318,0.00000416,0.00006640,-0
 .00004971,-0.00024780,-0.00006298,0.00008678,0.00028149,0.00006111,-0.
 00002971,-0.00002476,-0.00260350,0.00088302,-0.00072523,-0.00050935,0.
 00041573,0.00048549,0.00020516,-0.00010020,0.00004103,0.00002001,-0.00
 007833,0.00004346,0.18690540,-0.04622531,-0.40193038,0.00285183,-0.001
 83218,0.00197762,0.00638335,-0.01130761,-0.01627649,-0.19336014,0.0581
 6145,0.41657344\\-0.00000090,0.00000489,0.00000183,0.00000138,0.000005
 87,-0.00000262,-0.00000227,0.00002022,0.00001625,-0.00000760,-0.000031
 24,0.00001561,0.00000562,-0.00000631,-0.00000925,-0.00000073,0.0000011
 0,0.00000391,0.00000442,0.00000324,0.00000112,-0.00000072,-0.00000487,
 0.00000109,-0.00000018,0.00000514,-0.00000846,0.00000174,0.00000198,-0
 .00000349,-0.00000635,-0.00000817,-0.00001257,-0.00000373,-0.00000063,
 -0.00000493,-0.00000020,0.00000331,-0.00000531,-0.00000018,0.00000259,
 -0.00000206,-0.00000192,0.00000311,-0.00001071,-0.00000163,-0.00000429
 ,0.00000535,0.00000134,0.00000116,0.00000339,0.00000332,0.00000392,-0.
 00000451,0.00000146,0.00000163,-0.00000313,0.00000598,0.00000781,-0.00
 000242,0.00000472,0.00000045,0.00000677,-0.00000256,0.00000072,0.00000
 379,0.00001051,0.00000961,-0.00001425,-0.00000173,0.00002960,-0.000007
 27,-0.00000442,-0.00001903,0.00000347,-0.00000477,-0.00000763,0.000000
 15,-0.00000185,-0.00000350,0.00000034,-0.00000673,-0.00000059,0.000005
 59,0.00000376,-0.00001894,0.00001267,0.00000420,-0.00000113,0.00000965
 \\\@


 FIREWORKS ENDED
 AND SPECTATORS GONE AWAY....
 AH, HOW VAST AND DARK
                     SHIKI
 Job cpu time:       0 days  0 hours 36 minutes 48.3 seconds.
 File lengths (MBytes):  RWF=    221 Int=      0 D2E=      0 Chk=      6 Scr=      1
 Normal termination of Gaussian 09 at Sun Jan 15 12:46:26 2017.
