 Entering Gaussian System, Link 0=g09
 Initial command:
 /usr/local/gaussian/g09.D01/g09/l1.exe "/nqs/iawad/Gau-22299.inp" -scrdir="/nqs/iawad/"
 Entering Link 1 = /usr/local/gaussian/g09.D01/g09/l1.exe PID=     22302.
  
 Copyright (c) 1988,1990,1992,1993,1995,1998,2003,2009,2013,
            Gaussian, Inc.  All Rights Reserved.
  
 This is part of the Gaussian(R) 09 program.  It is based on
 the Gaussian(R) 03 system (copyright 2003, Gaussian, Inc.),
 the Gaussian(R) 98 system (copyright 1998, Gaussian, Inc.),
 the Gaussian(R) 94 system (copyright 1995, Gaussian, Inc.),
 the Gaussian 92(TM) system (copyright 1992, Gaussian, Inc.),
 the Gaussian 90(TM) system (copyright 1990, Gaussian, Inc.),
 the Gaussian 88(TM) system (copyright 1988, Gaussian, Inc.),
 the Gaussian 86(TM) system (copyright 1986, Carnegie Mellon
 University), and the Gaussian 82(TM) system (copyright 1983,
 Carnegie Mellon University). Gaussian is a federally registered
 trademark of Gaussian, Inc.
  
 This software contains proprietary and confidential information,
 including trade secrets, belonging to Gaussian, Inc.
  
 This software is provided under written license and may be
 used, copied, transmitted, or stored only in accord with that
 written license.
  
 The following legend is applicable only to US Government
 contracts under FAR:
  
                    RESTRICTED RIGHTS LEGEND
  
 Use, reproduction and disclosure by the US Government is
 subject to restrictions as set forth in subparagraphs (a)
 and (c) of the Commercial Computer Software - Restricted
 Rights clause in FAR 52.227-19.
  
 Gaussian, Inc.
 340 Quinnipiac St., Bldg. 40, Wallingford CT 06492
  
  
 ---------------------------------------------------------------
 Warning -- This program may not be used in any manner that
 competes with the business of Gaussian, Inc. or will provide
 assistance to any competitor of Gaussian, Inc.  The licensee
 of this program is prohibited from giving any competitor of
 Gaussian, Inc. access to this program.  By using this program,
 the user acknowledges that Gaussian, Inc. is engaged in the
 business of creating and licensing software in the field of
 computational chemistry and represents and warrants to the
 licensee that it is not a competitor of Gaussian, Inc. and that
 it will not use this program in any manner prohibited above.
 ---------------------------------------------------------------
  

 Cite this work as:
 Gaussian 09, Revision D.01,
 M. J. Frisch, G. W. Trucks, H. B. Schlegel, G. E. Scuseria, 
 M. A. Robb, J. R. Cheeseman, G. Scalmani, V. Barone, B. Mennucci, 
 G. A. Petersson, H. Nakatsuji, M. Caricato, X. Li, H. P. Hratchian, 
 A. F. Izmaylov, J. Bloino, G. Zheng, J. L. Sonnenberg, M. Hada, 
 M. Ehara, K. Toyota, R. Fukuda, J. Hasegawa, M. Ishida, T. Nakajima, 
 Y. Honda, O. Kitao, H. Nakai, T. Vreven, J. A. Montgomery, Jr., 
 J. E. Peralta, F. Ogliaro, M. Bearpark, J. J. Heyd, E. Brothers, 
 K. N. Kudin, V. N. Staroverov, T. Keith, R. Kobayashi, J. Normand, 
 K. Raghavachari, A. Rendell, J. C. Burant, S. S. Iyengar, J. Tomasi, 
 M. Cossi, N. Rega, J. M. Millam, M. Klene, J. E. Knox, J. B. Cross, 
 V. Bakken, C. Adamo, J. Jaramillo, R. Gomperts, R. E. Stratmann, 
 O. Yazyev, A. J. Austin, R. Cammi, C. Pomelli, J. W. Ochterski, 
 R. L. Martin, K. Morokuma, V. G. Zakrzewski, G. A. Voth, 
 P. Salvador, J. J. Dannenberg, S. Dapprich, A. D. Daniels, 
 O. Farkas, J. B. Foresman, J. V. Ortiz, J. Cioslowski, 
 and D. J. Fox, Gaussian, Inc., Wallingford CT, 2013.
 
 ******************************************
 Gaussian 09:  AM64L-G09RevD.01 24-Apr-2013
                 8-Jun-2016 
 ******************************************
 %NPROCS=4
 Will use up to    4 processors via shared memory.
 %rwf=/nqs/iawad//glo_1w_ALPHA_ircro_B3LYP_6-31G_d_B3LYP_6-31G_d.rwf
 %nosave
 %chk=/home/iawad/scratch/MAIN/PRO_Halides/direct/ircro/glo_1w_ALPHA/glo_1w_ALPHA
 _ircro_B3LYP_6-31G_d_B3LYP_6-31G_d.chk
 ----------------------------------------------------------------------
 # IRC=(CalcFC,Reverse,MaxCycle=1000,MaxPoints=10) B3LYP/6-31G(d) geom=
 allcheck guess=read
 ----------------------------------------------------------------------
 1/6=1000,10=4,14=-1,18=10,22=2,26=3,29=7,38=1,42=10,44=3/1,23;
 2/12=2,29=1,40=1/2;
 3/5=1,6=6,7=1,11=2,14=-4,16=1,25=1,30=1,71=2,74=-5,116=-2,140=1/1,2,3;
 4/5=1/1;
 5/5=2,38=6/2;
 8/6=4,10=90,11=11/1;
 11/6=1,8=1,9=11,15=111,16=1/1,2,10;
 10/6=1,13=1/2;
 6/7=2,8=2,9=2,10=2,28=1/1;
 7/10=1,18=20,25=1/1,2,3,16;
 1/6=1000,10=4,14=-1,18=10,22=2,26=3,42=10,44=3/23(2);
 2/29=1/2;
 99/5=20/99;
 2/29=1/2;
 3/5=1,6=6,7=1,11=2,14=-2,16=1,25=1,30=1,71=2,74=-5,140=1/1,2,3;
 4/5=5,16=3,69=1/1;
 5/5=2,38=5/2;
 8/6=4,10=90,11=11/1;
 11/6=1,8=1,9=11,15=111,16=1/1,2,10;
 10/6=1,13=1/2;
 7/10=1,18=20,25=1/1,2,3,16;
 1/6=1000,14=-1,18=10,22=2,26=3,42=10,44=3/23(-8);
 2/29=1/2;
 6/7=2,8=2,9=2,10=2,19=2,28=1/1;
 99/5=20,9=1/99;
 Structure from the checkpoint file:  "/home/iawad/scratch/MAIN/PRO_Halides/direct/ircro/glo_1w_ALPHA/glo_1w_ALPHA_ircro_B3LYP_6-31G_d_B3LYP_6-31G_d.chk"
 --------------------------
 glo_1w_ALPHA_B3LYP_6-31G_d
 --------------------------
 Charge =  0 Multiplicity = 1
 No Z-Matrix found in file; cartesian coordinates used.
  C                                                 0.008959262074      0.029046451339     -0.021540857560
  O                                                -0.028609995701     -0.035173876928      1.762217006990
  H                                                 2.900980765631     -0.026507041809      1.291736619311
  O                                                 2.239718049414      0.669531945103      1.436201302958
  H                                                 1.167115966575      0.191220634808      1.801027042024
  C                                                -1.481223882793     -0.009229497673     -0.319653204691
  C                                                -2.213176783379      1.198724440358      0.276894941983
  C                                                -2.104098393316      1.217958038271      1.808862645812
  C                                                -0.654230344673      1.133782671119      2.314701871887
  H                                                -1.891723543041     -0.921039440963      0.144452037993
  H                                                -2.688404836494      0.383406269025      2.210261470427
  H                                                -0.113177199038      2.033210392868      1.980274581649
  H                                                -1.749186754399      2.111248193611     -0.129654774279
  O                                                -1.649076396017     -0.041551695509     -1.722079865668
  O                                                -3.553594531379      1.062594838601     -0.165116067547
  O                                                -2.736520645035      2.403327164762      2.363292531639
  H                                                -4.037621285174      1.907973281747     -0.019970105446
  H                                                -2.584226270674      0.198028962294     -1.857108748682
  H                                                -2.186184020786      3.166657492082      2.111166410671
  C                                                -0.545118050560      1.046611454074      3.846764125335
  O                                                -0.940444645633      2.241173725467      4.496602152959
  H                                                 0.504359547352      0.881489646286      4.109910136813
  H                                                -1.118266005446      0.172914226074      4.197222711987
  H                                                -1.865998107795      2.396246428016      4.243229306787
  H                                                 0.491256957691     -0.958941723422     -0.094259122155
  O                                                 0.695921802268      1.068391514578     -0.343129663133
  H                                                 1.725404893969      0.948297499969      0.422056275098
  O                                                -4.910450443299      3.253895626244      0.820125288972
  H                                                -5.802060027205      2.917289718040      0.999019083054
  H                                                -4.379710294481      2.999157152005      1.602977493823
 Recover connectivity data from disk.
 IRC-IRC-IRC-IRC-IRC-IRC-IRC-IRC-IRC-IRC-IRC-IRC-IRC-IRC-IRC-IRC-IRC-IRC
 ------------------------------------------------------------------------
 INPUT DATA FOR L123
 ------------------------------------------------------------------------
 GENERAL PARAMETERS:
 Rxn path following direction = Reverse
 Maximum points per path      =  10
 Step size                    =   0.100 bohr
 Integration scheme           = HPC                                 
    Redo corrector integration= Yes                                 
    DWI Weight Power          =  2
    DWI will use Hessian update vectors when possible.
    Max correction cycles     =1000
 Initial Hessian              = CalcFC
 Hessian evaluation           = All updating
 Hessian updating method      = Bofill                              
 ------------------------------------------------------------------------
 IRC-IRC-IRC-IRC-IRC-IRC-IRC-IRC-IRC-IRC-IRC-IRC-IRC-IRC-IRC-IRC-IRC-IRC
                          Input orientation:                          
 ---------------------------------------------------------------------
 Center     Atomic      Atomic             Coordinates (Angstroms)
 Number     Number       Type             X           Y           Z
 ---------------------------------------------------------------------
      1          6           0        0.008959    0.029046   -0.021541
      2          8           0       -0.028610   -0.035174    1.762217
      3          1           0        2.900981   -0.026507    1.291737
      4          8           0        2.239718    0.669532    1.436201
      5          1           0        1.167116    0.191221    1.801027
      6          6           0       -1.481224   -0.009229   -0.319653
      7          6           0       -2.213177    1.198724    0.276895
      8          6           0       -2.104098    1.217958    1.808863
      9          6           0       -0.654230    1.133783    2.314702
     10          1           0       -1.891724   -0.921039    0.144452
     11          1           0       -2.688405    0.383406    2.210261
     12          1           0       -0.113177    2.033210    1.980275
     13          1           0       -1.749187    2.111248   -0.129655
     14          8           0       -1.649076   -0.041552   -1.722080
     15          8           0       -3.553595    1.062595   -0.165116
     16          8           0       -2.736521    2.403327    2.363293
     17          1           0       -4.037621    1.907973   -0.019970
     18          1           0       -2.584226    0.198029   -1.857109
     19          1           0       -2.186184    3.166657    2.111166
     20          6           0       -0.545118    1.046611    3.846764
     21          8           0       -0.940445    2.241174    4.496602
     22          1           0        0.504360    0.881490    4.109910
     23          1           0       -1.118266    0.172914    4.197223
     24          1           0       -1.865998    2.396246    4.243229
     25          1           0        0.491257   -0.958942   -0.094259
     26          8           0        0.695922    1.068392   -0.343130
     27          1           0        1.725405    0.948297    0.422056
     28          8           0       -4.910450    3.253896    0.820125
     29          1           0       -5.802060    2.917290    0.999019
     30          1           0       -4.379710    2.999157    1.602977
 ---------------------------------------------------------------------
                    Distance matrix (angstroms):
                    1          2          3          4          5
     1  C    0.000000
     2  O    1.785309   0.000000
     3  H    3.176724   2.967142   0.000000
     4  O    2.740715   2.397542   0.970880   0.000000
     5  H    2.165498   1.217588   1.820184   1.229778   0.000000
     6  C    1.520191   2.538689   4.669111   4.170030   3.398701
     7  C    2.528853   2.915651   5.355904   4.631664   3.842450
     8  C    3.037911   2.424906   5.183332   4.394131   3.428570
     9  C    2.668013   1.436349   3.877145   3.059776   2.114140
    10  H    2.131387   2.621662   5.008639   4.611653   3.652104
    11  H    3.518847   2.729553   5.679168   4.996742   3.881939
    12  H    2.835288   2.081565   3.715060   2.773401   2.250379
    13  H    2.727330   3.338666   5.311724   4.521262   3.989845
    14  O    2.376110   3.842691   5.457686   5.059951   4.516349
    15  O    3.712227   4.164760   6.705975   6.023387   5.187496
    16  O    4.343075   3.693286   6.231673   5.350560   4.521939
    17  H    4.461522   4.798352   7.321679   6.561948   5.775168
    18  H    3.181584   4.436787   6.328755   5.859919   5.239711
    19  H    4.383115   3.876676   6.061931   5.126385   4.493777
    20  C    4.038097   2.404657   4.422143   3.702474   2.801514
    21  O    5.119423   3.672882   5.492730   4.685034   3.988765
    22  H    4.247466   2.576042   3.809246   3.194544   2.499332
    23  H    4.369130   2.675800   4.963463   4.375606   3.311353
    24  H    5.225645   3.929786   6.107793   5.264775   4.475072
    25  H    1.101826   2.137782   2.932096   2.837490   2.317708
    26  O    1.286692   2.485013   2.955313   2.389229   2.364077
    27  H    1.996994   2.416571   1.757432   1.170777   1.669255
    28  O    5.942108   5.961366   8.485394   7.627804   6.875970
    29  H    6.568975   6.529337   9.192091   8.361444   7.526226
    30  H    5.542656   5.307033   7.890499   7.019387   6.220210
                    6          7          8          9         10
     6  C    0.000000
     7  C    1.533225   0.000000
     8  C    2.534668   1.535966   0.000000
     9  C    2.988348   2.566552   1.537880   0.000000
    10  H    1.102407   2.148086   2.718580   3.234759   0.000000
    11  H    2.830533   2.151393   1.094994   2.170677   2.569795
    12  H    3.366420   2.829818   2.158190   1.101613   3.906541
    13  H    2.145770   1.101485   2.163742   2.851184   3.047986
    14  O    1.412806   2.419172   3.776369   4.320502   2.077575
    15  O    2.338249   1.417965   2.453929   3.815872   2.606233
    16  O    3.820261   2.465362   1.453427   2.439270   4.085138
    17  H    3.209462   1.979839   2.749411   4.182989   3.554606
    18  H    1.903507   2.386009   3.835378   4.690898   2.395437
    19  H    4.061048   2.690361   1.973716   2.553603   4.545761
    20  C    4.398878   3.943289   2.571541   1.538414   4.403647
    21  O    5.343508   4.529070   3.102419   2.463518   5.463125
    22  H    4.935276   4.709315   3.494579   2.151454   4.971437
    23  H    4.535095   4.197629   2.787157   2.163904   4.268480
    24  H    5.172452   4.157692   2.714995   2.604115   5.273047
    25  H    2.200781   3.479546   3.885439   3.390388   2.395207
    26  O    2.429358   2.977293   3.534622   2.981821   3.300224
    27  H    3.427748   3.949204   4.081794   3.046174   4.081066
    28  O    4.868950   3.434256   3.605309   4.984380   5.196088
    29  H    5.382661   4.044133   4.149517   5.604647   5.545610
    30  H    4.598709   3.113506   2.897148   4.226745   4.866756
                   11         12         13         14         15
    11  H    0.000000
    12  H    3.067009   0.000000
    13  H    3.056596   2.671033   0.000000
    14  O    4.089511   4.513430   2.679624   0.000000
    15  O    2.617684   4.169085   2.087299   2.696380   0.000000
    16  O    2.026281   2.676868   2.697207   4.883670   2.976243
    17  H    3.019706   4.406577   2.300062   3.521785   0.984893
    18  H    4.072925   4.919297   2.709575   0.974750   2.133070
    19  H    2.829935   2.366261   2.515181   5.027412   3.387972
    20  C    2.776988   2.154932   4.288956   5.780558   5.014616
    21  O    3.425495   2.656977   4.698212   6.662207   5.472588
    22  H    3.748399   2.498632   4.956278   6.285014   5.897087
    23  H    2.541192   3.063619   4.782998   5.946923   5.074678
    24  H    2.976716   2.885332   4.383718   6.447855   4.905111
    25  H    4.150056   3.690800   3.800909   2.841203   4.522439
    26  O    4.294494   2.642674   2.666773   2.938111   4.253247
    27  H    4.795675   2.643003   3.705351   4.118767   5.312784
    28  O    3.887116   5.084275   3.493038   5.287659   2.759268
    29  H    4.193152   5.840192   4.283619   5.779827   3.138583
    30  H    3.173556   4.390753   3.272621   5.268613   2.749345
                   16         17         18         19         20
    16  O    0.000000
    17  H    2.760105   0.000000
    18  H    4.764275   2.900232   0.000000
    19  H    0.974223   3.090930   4.971760   0.000000
    20  C    2.973821   5.281208   6.116553   3.193743   0.000000
    21  O    2.793420   5.486616   6.873580   2.845820   1.416175
    22  H    3.983713   6.224080   6.753651   4.056599   1.094493
    23  H    3.310104   5.414590   6.229334   3.801918   1.102119
    24  H    2.071720   4.809286   6.523966   2.289486   1.929617
    25  H    5.269057   5.360546   3.728916   5.390098   4.541804
    26  O    4.570387   4.818274   3.716051   4.328143   4.369881
    27  H    5.078808   5.859081   4.932587   4.803618   4.110178
    28  O    2.798357   1.810828   4.681583   3.015962   5.752284
    29  H    3.394544   2.273830   5.089823   3.791255   6.264545
    30  H    1.906086   1.985363   4.800237   2.257846   4.852949
                   21         22         23         24         25
    21  O    0.000000
    22  H    2.021319   0.000000
    23  H    2.097366   1.772743   0.000000
    24  H    0.972057   2.816178   2.346151   0.000000
    25  H    5.776376   4.589379   4.721068   5.968898   0.000000
    26  O    5.241767   4.461075   4.970710   5.418609   2.052780
    27  H    5.037877   3.885316   4.789527   5.440229   2.329649
    28  O    5.504819   6.765439   5.939520   4.660675   6.911045
    29  H    6.027066   7.320728   6.300637   5.127277   7.471698
    30  H    4.558086   5.884162   5.035353   3.695021   6.501806
                   26         27         28         29         30
    26  O    0.000000
    27  H    1.288320   0.000000
    28  O    6.128703   7.036250   0.000000
    29  H    6.887928   7.802086   0.969677   0.000000
    30  H    5.768642   6.547750   0.979507   1.547432   0.000000
 Symmetry turned off by external request.
 Stoichiometry    C6H16O8
 Framework group  C1[X(C6H16O8)]
 Deg. of freedom    84
 Full point group                 C1      NOp   1
 Rotational constants (GHZ):      0.6769525      0.5494313      0.3345952
 Standard basis: 6-31G(d) (6D, 7F)
   242 basis functions,   456 primitive gaussians,   242 cartesian basis functions
    58 alpha electrons       58 beta electrons
       nuclear repulsion energy      1103.7933868413 Hartrees.
 NAtoms=   30 NActive=   30 NUniq=   30 SFac= 1.00D+00 NAtFMM=   60 NAOKFM=F Big=F
 Integral buffers will be    131072 words long.
 Raffenetti 2 integral format.
 Two-electron integral symmetry is turned off.
 One-electron integrals computed using PRISM.
 NBasis=   242 RedAO= T EigKep=  2.00D-03  NBF=   242
 NBsUse=   242 1.00D-06 EigRej= -1.00D+00 NBFU=   242
 Initial guess from the checkpoint file:  "/home/iawad/scratch/MAIN/PRO_Halides/direct/ircro/glo_1w_ALPHA/glo_1w_ALPHA_ircro_B3LYP_6-31G_d_B3LYP_6-31G_d.chk"
 B after Tr=    -2.453797    2.135383    2.274732
         Rot=   -0.145483    0.099544    0.803914    0.568022 Ang= 196.73 deg.
 Requested convergence on RMS density matrix=1.00D-08 within 128 cycles.
 Requested convergence on MAX density matrix=1.00D-06.
 Requested convergence on             energy=1.00D-06.
 No special actions if energy rises.
 SCF Done:  E(RB3LYP) =  -839.959689633     A.U. after    6 cycles
            NFock=  6  Conv=0.39D-08     -V/T= 2.0086
 DoSCS=F DFT=T ScalE2(SS,OS)=  1.000000  1.000000
 Range of M.O.s used for correlation:     1   242
 NBasis=   242 NAE=    58 NBE=    58 NFC=     0 NFV=     0
 NROrb=    242 NOA=    58 NOB=    58 NVA=   184 NVB=   184
 Symmetrizing basis deriv contribution to polar:
 IMax=3 JMax=2 DiffMx= 0.00D+00
 G2DrvN: will do    31 centers at a time, making    1 passes.
 Calling FoFCou, ICntrl=  3107 FMM=F I1Cent=   0 AccDes= 0.00D+00.
 End of G2Drv F.D. properties file   721 does not exist.
 End of G2Drv F.D. properties file   722 does not exist.
 End of G2Drv F.D. properties file   788 does not exist.
          IDoAtm=111111111111111111111111111111
          Differentiating once with respect to nuclear coordinates.
          There are    93 degrees of freedom in the 1st order CPHF.  IDoFFX=6 NUNeed=     0.
     87 vectors produced by pass  0 Test12= 1.15D-14 1.08D-09 XBig12= 1.27D-01 9.91D-02.
 AX will form    87 AO Fock derivatives at one time.
     87 vectors produced by pass  1 Test12= 1.15D-14 1.08D-09 XBig12= 1.60D-02 2.15D-02.
     87 vectors produced by pass  2 Test12= 1.15D-14 1.08D-09 XBig12= 1.57D-04 1.64D-03.
     87 vectors produced by pass  3 Test12= 1.15D-14 1.08D-09 XBig12= 3.86D-07 6.83D-05.
     87 vectors produced by pass  4 Test12= 1.15D-14 1.08D-09 XBig12= 4.20D-10 2.42D-06.
     70 vectors produced by pass  5 Test12= 1.15D-14 1.08D-09 XBig12= 3.58D-13 5.31D-08.
      2 vectors produced by pass  6 Test12= 1.15D-14 1.08D-09 XBig12= 3.79D-16 1.48D-09.
 InvSVY:  IOpt=1 It=  1 EMax= 3.33D-16
 Solved reduced A of dimension   507 with    93 vectors.
 End of Minotr F.D. properties file   721 does not exist.
 End of Minotr F.D. properties file   722 does not exist.
 End of Minotr F.D. properties file   788 does not exist.

 **********************************************************************

            Population analysis using the SCF density.

 **********************************************************************

 Alpha  occ. eigenvalues --  -19.20126 -19.17853 -19.16997 -19.16485 -19.14521
 Alpha  occ. eigenvalues --  -19.14474 -19.13916 -19.13049 -10.29358 -10.26091
 Alpha  occ. eigenvalues --  -10.25425 -10.24470 -10.24100 -10.23916  -1.07274
 Alpha  occ. eigenvalues --   -1.06343  -1.03460  -1.02266  -1.01999  -1.00799
 Alpha  occ. eigenvalues --   -1.00551  -0.99797  -0.79037  -0.75755  -0.69416
 Alpha  occ. eigenvalues --   -0.64998  -0.62556  -0.57909  -0.57074  -0.55029
 Alpha  occ. eigenvalues --   -0.54325  -0.53439  -0.51706  -0.50139  -0.49803
 Alpha  occ. eigenvalues --   -0.48219  -0.47574  -0.44941  -0.43943  -0.43324
 Alpha  occ. eigenvalues --   -0.42482  -0.41564  -0.40481  -0.39939  -0.38220
 Alpha  occ. eigenvalues --   -0.37614  -0.36193  -0.35704  -0.35569  -0.33930
 Alpha  occ. eigenvalues --   -0.32143  -0.31540  -0.30046  -0.28908  -0.27693
 Alpha  occ. eigenvalues --   -0.26864  -0.26244  -0.25870
 Alpha virt. eigenvalues --    0.01675   0.03209   0.05640   0.07041   0.08746
 Alpha virt. eigenvalues --    0.10480   0.11290   0.12320   0.13367   0.14161
 Alpha virt. eigenvalues --    0.15236   0.16076   0.17279   0.17625   0.18257
 Alpha virt. eigenvalues --    0.19114   0.19634   0.22031   0.22996   0.23853
 Alpha virt. eigenvalues --    0.25232   0.25498   0.26468   0.27246   0.28663
 Alpha virt. eigenvalues --    0.28876   0.31315   0.35063   0.50906   0.52319
 Alpha virt. eigenvalues --    0.54110   0.55038   0.56145   0.57818   0.58844
 Alpha virt. eigenvalues --    0.59971   0.62001   0.62408   0.63725   0.66920
 Alpha virt. eigenvalues --    0.67849   0.68704   0.69686   0.70957   0.73950
 Alpha virt. eigenvalues --    0.76154   0.76822   0.78257   0.79016   0.80588
 Alpha virt. eigenvalues --    0.81800   0.83083   0.83253   0.84200   0.85236
 Alpha virt. eigenvalues --    0.86083   0.86459   0.87081   0.87439   0.88664
 Alpha virt. eigenvalues --    0.89327   0.90030   0.91571   0.93728   0.94890
 Alpha virt. eigenvalues --    0.96769   0.97866   0.99423   1.01051   1.02175
 Alpha virt. eigenvalues --    1.03173   1.05033   1.05971   1.07110   1.07692
 Alpha virt. eigenvalues --    1.10851   1.12009   1.14452   1.14642   1.16919
 Alpha virt. eigenvalues --    1.19137   1.21034   1.22409   1.25418   1.26101
 Alpha virt. eigenvalues --    1.27769   1.28520   1.31027   1.35326   1.37574
 Alpha virt. eigenvalues --    1.40356   1.43288   1.43997   1.44877   1.47035
 Alpha virt. eigenvalues --    1.49533   1.54367   1.55842   1.58760   1.60436
 Alpha virt. eigenvalues --    1.61949   1.63194   1.65941   1.67277   1.68096
 Alpha virt. eigenvalues --    1.69247   1.70861   1.71901   1.72733   1.73845
 Alpha virt. eigenvalues --    1.74486   1.76478   1.78376   1.79670   1.80229
 Alpha virt. eigenvalues --    1.80757   1.81670   1.83910   1.84674   1.85967
 Alpha virt. eigenvalues --    1.87948   1.90244   1.91060   1.93169   1.95082
 Alpha virt. eigenvalues --    1.96905   1.97558   1.99821   2.03255   2.04124
 Alpha virt. eigenvalues --    2.08101   2.09582   2.10644   2.11941   2.13332
 Alpha virt. eigenvalues --    2.16054   2.19379   2.21810   2.22396   2.24648
 Alpha virt. eigenvalues --    2.28090   2.30169   2.32960   2.34618   2.37776
 Alpha virt. eigenvalues --    2.41449   2.41569   2.44190   2.47492   2.49033
 Alpha virt. eigenvalues --    2.51816   2.53719   2.55782   2.56189   2.58661
 Alpha virt. eigenvalues --    2.61071   2.61410   2.64032   2.66588   2.68679
 Alpha virt. eigenvalues --    2.71367   2.75774   2.80120   2.86299   2.88610
 Alpha virt. eigenvalues --    2.91488   2.94814   2.99866   3.01586   3.05577
 Alpha virt. eigenvalues --    3.70129   3.72783   3.76670   3.83432   3.89057
 Alpha virt. eigenvalues --    3.96541   3.97964   4.12124   4.26515   4.33535
 Alpha virt. eigenvalues --    4.39382   4.50871   4.63702   4.71004
          Condensed to atoms (all electrons):
               1          2          3          4          5          6
     1  C    4.825612   0.069564   0.000737   0.023471  -0.013096   0.289431
     2  O    0.069564   8.602497   0.003483  -0.097630   0.118730  -0.005837
     3  H    0.000737   0.003483   0.364146   0.225902  -0.002256   0.000071
     4  O    0.023471  -0.097630   0.225902   8.511698   0.124784   0.000147
     5  H   -0.013096   0.118730  -0.002256   0.124784   0.325704   0.002140
     6  C    0.289431  -0.005837   0.000071   0.000147   0.002140   4.942617
     7  C   -0.006461  -0.009194   0.000002  -0.000069   0.000044   0.294465
     8  C   -0.010598  -0.027532  -0.000006  -0.000089   0.002153  -0.031214
     9  C    0.000732   0.115600  -0.000163   0.006414  -0.019549  -0.009988
    10  H   -0.054004   0.003390  -0.000005   0.000038  -0.000096   0.346323
    11  H   -0.000364   0.002293   0.000000   0.000002  -0.000090  -0.004248
    12  H   -0.004488  -0.035314  -0.000129   0.003196  -0.000869  -0.001227
    13  H   -0.008539   0.000028  -0.000001   0.000035  -0.000071  -0.040453
    14  O   -0.041789   0.000639   0.000000   0.000000  -0.000030   0.249456
    15  O    0.002878   0.000001   0.000000   0.000000   0.000002  -0.046524
    16  O    0.000003   0.001223   0.000000   0.000000  -0.000032   0.002565
    17  H   -0.000122   0.000000   0.000000   0.000000   0.000000   0.004471
    18  H    0.007095  -0.000044   0.000000   0.000000   0.000002  -0.037698
    19  H   -0.000005   0.000057   0.000000   0.000000  -0.000002   0.000032
    20  C    0.001896  -0.026538   0.000042  -0.001023  -0.001167  -0.000057
    21  O   -0.000020   0.001388   0.000000   0.000002   0.000079   0.000000
    22  H   -0.000119   0.000453  -0.000047   0.001165   0.003972   0.000003
    23  H   -0.000154   0.005073   0.000000   0.000025  -0.000009   0.000005
    24  H   -0.000002  -0.000020   0.000000   0.000000   0.000011  -0.000009
    25  H    0.357781  -0.037256   0.000184   0.004286  -0.000213  -0.066155
    26  O    0.307549  -0.054188   0.003983  -0.101382   0.012103  -0.050748
    27  H   -0.026687   0.008477  -0.003874   0.126437  -0.019790   0.004168
    28  O    0.000000   0.000000   0.000000   0.000000   0.000000  -0.000002
    29  H    0.000000   0.000000   0.000000   0.000000   0.000000   0.000002
    30  H   -0.000001  -0.000002   0.000000   0.000000   0.000000   0.000062
               7          8          9         10         11         12
     1  C   -0.006461  -0.010598   0.000732  -0.054004  -0.000364  -0.004488
     2  O   -0.009194  -0.027532   0.115600   0.003390   0.002293  -0.035314
     3  H    0.000002  -0.000006  -0.000163  -0.000005   0.000000  -0.000129
     4  O   -0.000069  -0.000089   0.006414   0.000038   0.000002   0.003196
     5  H    0.000044   0.002153  -0.019549  -0.000096  -0.000090  -0.000869
     6  C    0.294465  -0.031214  -0.009988   0.346323  -0.004248  -0.001227
     7  C    4.985420   0.301705  -0.032611  -0.053753  -0.041641  -0.006152
     8  C    0.301705   5.066166   0.284957  -0.005073   0.354153  -0.058857
     9  C   -0.032611   0.284957   5.074261   0.000331  -0.038473   0.352038
    10  H   -0.053753  -0.005073   0.000331   0.667260   0.006321   0.000227
    11  H   -0.041641   0.354153  -0.038473   0.006321   0.584330   0.006060
    12  H   -0.006152  -0.058857   0.352038   0.000227   0.006060   0.622196
    13  H    0.343358  -0.052571  -0.000895   0.008088   0.006420   0.003852
    14  O   -0.027817   0.003322  -0.000060  -0.043268  -0.000071   0.000007
    15  O    0.229527  -0.043260   0.003755  -0.000811   0.002213  -0.000021
    16  O   -0.028960   0.188062  -0.030006  -0.000064  -0.039110  -0.000455
    17  H   -0.016453  -0.002429  -0.000085  -0.000271  -0.000384   0.000003
    18  H   -0.013354   0.001167  -0.000075  -0.000847   0.000009  -0.000003
    19  H   -0.002934  -0.029445  -0.003950   0.000019   0.007301   0.008159
    20  C    0.003427  -0.023701   0.329549  -0.000033  -0.008049  -0.051570
    21  O    0.000038  -0.002467  -0.041047   0.000000   0.000082   0.006910
    22  H   -0.000124   0.004498  -0.037270   0.000001  -0.000019  -0.005904
    23  H   -0.000015  -0.013309  -0.048451  -0.000005   0.006050   0.007183
    24  H    0.000253   0.000662  -0.006928   0.000001  -0.000776  -0.000912
    25  H    0.006356  -0.000561   0.003684  -0.000444  -0.000037   0.000599
    26  O   -0.003462  -0.002845   0.003355   0.003640  -0.000002   0.011458
    27  H   -0.000068   0.000119  -0.000365  -0.000195   0.000002  -0.000687
    28  O    0.000748   0.000688  -0.000009   0.000000   0.000073   0.000000
    29  H   -0.000160   0.000105   0.000002   0.000000   0.000033   0.000000
    30  H   -0.000245  -0.002546   0.000527   0.000001  -0.000453  -0.000025
              13         14         15         16         17         18
     1  C   -0.008539  -0.041789   0.002878   0.000003  -0.000122   0.007095
     2  O    0.000028   0.000639   0.000001   0.001223   0.000000  -0.000044
     3  H   -0.000001   0.000000   0.000000   0.000000   0.000000   0.000000
     4  O    0.000035   0.000000   0.000000   0.000000   0.000000   0.000000
     5  H   -0.000071  -0.000030   0.000002  -0.000032   0.000000   0.000002
     6  C   -0.040453   0.249456  -0.046524   0.002565   0.004471  -0.037698
     7  C    0.343358  -0.027817   0.229527  -0.028960  -0.016453  -0.013354
     8  C   -0.052571   0.003322  -0.043260   0.188062  -0.002429   0.001167
     9  C   -0.000895  -0.000060   0.003755  -0.030006  -0.000085  -0.000075
    10  H    0.008088  -0.043268  -0.000811  -0.000064  -0.000271  -0.000847
    11  H    0.006420  -0.000071   0.002213  -0.039110  -0.000384   0.000009
    12  H    0.003852   0.000007  -0.000021  -0.000455   0.000003  -0.000003
    13  H    0.628854   0.001705  -0.039147  -0.002918  -0.004433  -0.000493
    14  O    0.001705   8.274240  -0.010284  -0.000010  -0.000007   0.235676
    15  O   -0.039147  -0.010284   8.379885   0.000116   0.198599   0.033537
    16  O   -0.002918  -0.000010   0.000116   8.279549   0.002331  -0.000009
    17  H   -0.004433  -0.000007   0.198599   0.002331   0.326199  -0.000490
    18  H   -0.000493   0.235676   0.033537  -0.000009  -0.000490   0.362807
    19  H    0.004927  -0.000001  -0.000154   0.227358   0.000003   0.000000
    20  C   -0.000094   0.000000  -0.000040  -0.000052   0.000001   0.000000
    21  O   -0.000011   0.000000   0.000000  -0.011981   0.000000   0.000000
    22  H    0.000005   0.000000   0.000000  -0.000075   0.000000   0.000000
    23  H   -0.000005   0.000000  -0.000001   0.000276   0.000000   0.000000
    24  H   -0.000013   0.000000   0.000000   0.035056  -0.000001   0.000000
    25  H    0.000354   0.001614  -0.000050   0.000002   0.000004  -0.000468
    26  O    0.011455   0.001099   0.000030   0.000006   0.000004  -0.000079
    27  H   -0.000167  -0.000058   0.000001  -0.000002   0.000000   0.000009
    28  O    0.000222   0.000000  -0.025586  -0.016923   0.080075   0.000010
    29  H    0.000010   0.000000   0.001836   0.000519  -0.004061  -0.000001
    30  H    0.000037   0.000000   0.005934   0.049429  -0.010678  -0.000005
              19         20         21         22         23         24
     1  C   -0.000005   0.001896  -0.000020  -0.000119  -0.000154  -0.000002
     2  O    0.000057  -0.026538   0.001388   0.000453   0.005073  -0.000020
     3  H    0.000000   0.000042   0.000000  -0.000047   0.000000   0.000000
     4  O    0.000000  -0.001023   0.000002   0.001165   0.000025   0.000000
     5  H   -0.000002  -0.001167   0.000079   0.003972  -0.000009   0.000011
     6  C    0.000032  -0.000057   0.000000   0.000003   0.000005  -0.000009
     7  C   -0.002934   0.003427   0.000038  -0.000124  -0.000015   0.000253
     8  C   -0.029445  -0.023701  -0.002467   0.004498  -0.013309   0.000662
     9  C   -0.003950   0.329549  -0.041047  -0.037270  -0.048451  -0.006928
    10  H    0.000019  -0.000033   0.000000   0.000001  -0.000005   0.000001
    11  H    0.007301  -0.008049   0.000082  -0.000019   0.006050  -0.000776
    12  H    0.008159  -0.051570   0.006910  -0.005904   0.007183  -0.000912
    13  H    0.004927  -0.000094  -0.000011   0.000005  -0.000005  -0.000013
    14  O   -0.000001   0.000000   0.000000   0.000000   0.000000   0.000000
    15  O   -0.000154  -0.000040   0.000000   0.000000  -0.000001   0.000000
    16  O    0.227358  -0.000052  -0.011981  -0.000075   0.000276   0.035056
    17  H    0.000003   0.000001   0.000000   0.000000   0.000000  -0.000001
    18  H    0.000000   0.000000   0.000000   0.000000   0.000000   0.000000
    19  H    0.378803  -0.001913   0.004705  -0.000020   0.000346  -0.003323
    20  C   -0.001913   4.859298   0.263696   0.375574   0.351219  -0.029525
    21  O    0.004705   0.263696   8.249209  -0.035196  -0.034312   0.228394
    22  H   -0.000020   0.375574  -0.035196   0.569666  -0.042680   0.006200
    23  H    0.000346   0.351219  -0.034312  -0.042680   0.645423  -0.005548
    24  H   -0.003323  -0.029525   0.228394   0.006200  -0.005548   0.373018
    25  H   -0.000001  -0.000038   0.000000  -0.000007   0.000005   0.000000
    26  O   -0.000036   0.000150   0.000001   0.000021   0.000001   0.000000
    27  H    0.000001  -0.000088   0.000000   0.000030   0.000000   0.000000
    28  O    0.001748   0.000000   0.000000   0.000000   0.000000   0.000002
    29  H   -0.000045   0.000000   0.000000   0.000000   0.000000  -0.000001
    30  H   -0.004632  -0.000008   0.000013   0.000000  -0.000002   0.000053
              25         26         27         28         29         30
     1  C    0.357781   0.307549  -0.026687   0.000000   0.000000  -0.000001
     2  O   -0.037256  -0.054188   0.008477   0.000000   0.000000  -0.000002
     3  H    0.000184   0.003983  -0.003874   0.000000   0.000000   0.000000
     4  O    0.004286  -0.101382   0.126437   0.000000   0.000000   0.000000
     5  H   -0.000213   0.012103  -0.019790   0.000000   0.000000   0.000000
     6  C   -0.066155  -0.050748   0.004168  -0.000002   0.000002   0.000062
     7  C    0.006356  -0.003462  -0.000068   0.000748  -0.000160  -0.000245
     8  C   -0.000561  -0.002845   0.000119   0.000688   0.000105  -0.002546
     9  C    0.003684   0.003355  -0.000365  -0.000009   0.000002   0.000527
    10  H   -0.000444   0.003640  -0.000195   0.000000   0.000000   0.000001
    11  H   -0.000037  -0.000002   0.000002   0.000073   0.000033  -0.000453
    12  H    0.000599   0.011458  -0.000687   0.000000   0.000000  -0.000025
    13  H    0.000354   0.011455  -0.000167   0.000222   0.000010   0.000037
    14  O    0.001614   0.001099  -0.000058   0.000000   0.000000   0.000000
    15  O   -0.000050   0.000030   0.000001  -0.025586   0.001836   0.005934
    16  O    0.000002   0.000006  -0.000002  -0.016923   0.000519   0.049429
    17  H    0.000004   0.000004   0.000000   0.080075  -0.004061  -0.010678
    18  H   -0.000468  -0.000079   0.000009   0.000010  -0.000001  -0.000005
    19  H   -0.000001  -0.000036   0.000001   0.001748  -0.000045  -0.004632
    20  C   -0.000038   0.000150  -0.000088   0.000000   0.000000  -0.000008
    21  O    0.000000   0.000001   0.000000   0.000000   0.000000   0.000013
    22  H   -0.000007   0.000021   0.000030   0.000000   0.000000   0.000000
    23  H    0.000005   0.000001   0.000000   0.000000   0.000000  -0.000002
    24  H    0.000000   0.000000   0.000000   0.000002  -0.000001   0.000053
    25  H    0.656898  -0.050526  -0.006402   0.000000   0.000000   0.000000
    26  O   -0.050526   8.365310   0.133020   0.000000   0.000000   0.000000
    27  H   -0.006402   0.133020   0.319442   0.000000   0.000000   0.000000
    28  O    0.000000   0.000000   0.000000   8.307305   0.240537   0.209058
    29  H    0.000000   0.000000   0.000000   0.240537   0.370958  -0.012032
    30  H    0.000000   0.000000   0.000000   0.209058  -0.012032   0.345054
 Mulliken charges:
               1
     1  C    0.279699
     2  O   -0.639340
     3  H    0.407932
     4  O   -0.827408
     5  H    0.467545
     6  C    0.158203
     7  C    0.078130
     8  C    0.098745
     9  C    0.094720
    10  H    0.123228
    11  H    0.158376
    12  H    0.144722
    13  H    0.140462
    14  O   -0.644363
    15  O   -0.692436
    16  O   -0.655896
    17  H    0.427726
    18  H    0.413253
    19  H    0.413003
    20  C   -0.040957
    21  O   -0.629482
    22  H    0.159874
    23  H    0.128884
    24  H    0.403408
    25  H    0.130393
    26  O   -0.589913
    27  H    0.466676
    28  O   -0.797947
    29  H    0.402299
    30  H    0.420462
 Sum of Mulliken charges =   0.00000
 Mulliken charges with hydrogens summed into heavy atoms:
               1
     1  C    0.410092
     2  O   -0.171795
     4  O    0.047200
     6  C    0.281431
     7  C    0.218592
     8  C    0.257121
     9  C    0.239442
    14  O   -0.231110
    15  O   -0.264710
    16  O   -0.242893
    20  C    0.247801
    21  O   -0.226073
    26  O   -0.589913
    28  O    0.024814
 APT charges:
               1
     1  C   -0.044648
     2  O   -0.492381
     3  H    0.687539
     4  O   -1.031154
     5  H    0.391390
     6  C   -0.199411
     7  C   -0.114782
     8  C   -0.164514
     9  C   -0.252147
    10  H    0.345023
    11  H    0.426184
    12  H    0.292240
    13  H    0.281589
    14  O   -0.936287
    15  O   -1.001471
    16  O   -0.768326
    17  H    0.760122
    18  H    0.771762
    19  H    0.553531
    20  C   -0.643673
    21  O   -0.576932
    22  H    0.391958
    23  H    0.406898
    24  H    0.548319
    25  H    0.310027
    26  O   -0.451259
    27  H    0.383483
    28  O   -1.079070
    29  H    1.062791
    30  H    0.143199
 Sum of APT charges =   0.00000
 APT charges with hydrogens summed into heavy atoms:
               1
     1  C    0.265379
     2  O   -0.100991
     4  O    0.039868
     6  C    0.145611
     7  C    0.166807
     8  C    0.261670
     9  C    0.040093
    14  O   -0.164524
    15  O   -0.241349
    16  O   -0.214795
    20  C    0.155183
    21  O   -0.028614
    26  O   -0.451259
    28  O    0.126921
 Electronic spatial extent (au):  <R**2>=           5125.7819
 Charge=              0.0000 electrons
 Dipole moment (field-independent basis, Debye):
    X=             -1.2801    Y=             -1.2470    Z=              1.8827  Tot=              2.5958
 Quadrupole moment (field-independent basis, Debye-Ang):
   XX=            -64.8683   YY=            -86.0554   ZZ=            -95.2463
   XY=             -8.9078   XZ=             -7.5520   YZ=             -1.7270
 Traceless Quadrupole moment (field-independent basis, Debye-Ang):
   XX=             17.1884   YY=             -3.9987   ZZ=            -13.1897
   XY=             -8.9078   XZ=             -7.5520   YZ=             -1.7270
 Octapole moment (field-independent basis, Debye-Ang**2):
  XXX=            237.3622  YYY=           -284.4499  ZZZ=           -364.9174  XYY=            104.8541
  XXY=            -75.2393  XXZ=            -60.4138  XZZ=             88.6866  YZZ=           -121.1598
  YYZ=           -103.7038  XYZ=            -23.5170
 Hexadecapole moment (field-independent basis, Debye-Ang**3):
 XXXX=          -1757.4281 YYYY=          -1241.2767 ZZZZ=          -2595.1609 XXXY=            378.9825
 XXXZ=             98.1014 YYYX=            667.9970 YYYZ=           -493.8505 ZZZX=            281.7782
 ZZZY=           -703.7788 XXYY=           -643.6718 XXZZ=           -686.7356 YYZZ=           -640.5989
 XXYZ=            -84.1322 YYXZ=             35.8284 ZZXY=            152.8695
 N-N= 1.103793386841D+03 E-N=-4.179518072184D+03  KE= 8.328187865609D+02
  Exact polarizability:   0.000   0.000   0.000   0.000   0.000   0.000
 Approx polarizability: 143.688  -2.926 130.121   0.299   0.546 138.969
 Calling FoFJK, ICntrl=    100147 FMM=F ISym2X=0 I1Cent= 0 IOpClX= 0 NMat=1 NMatS=1 NMatT=0.
 -------------------------------------------------------------------
 Center     Atomic                   Forces (Hartrees/Bohr)
 Number     Number              X              Y              Z
 -------------------------------------------------------------------
      1        6          -0.000318120    0.000024233   -0.000207045
      2        8           0.000246942   -0.000092152    0.000182839
      3        1           0.000020651   -0.000015969    0.000018058
      4        8          -0.000025246   -0.000003535   -0.000010313
      5        1          -0.000053094    0.000009973   -0.000018566
      6        6           0.000019999    0.000087528    0.000075484
      7        6           0.000162568   -0.000021617    0.000097850
      8        6          -0.000355200   -0.000070103   -0.000389392
      9        6           0.000248157    0.000088629    0.000428807
     10        1          -0.000008980   -0.000020689   -0.000008996
     11        1          -0.000011203    0.000005274   -0.000046478
     12        1           0.000029678   -0.000006116   -0.000009105
     13        1           0.000046566   -0.000018658    0.000036966
     14        8          -0.000021667   -0.000005194   -0.000023568
     15        8           0.000064453   -0.000061635    0.000013898
     16        8          -0.000016581   -0.000005685    0.000049409
     17        1          -0.000053142    0.000035950   -0.000018202
     18        1           0.000026334    0.000018384    0.000023827
     19        1           0.000048237    0.000031253   -0.000041455
     20        6          -0.000060178   -0.000008704   -0.000037609
     21        8           0.000002606   -0.000020666    0.000000559
     22        1          -0.000000344    0.000025441    0.000056656
     23        1           0.000011066   -0.000001079   -0.000041836
     24        1          -0.000030075   -0.000039665   -0.000028551
     25        1           0.000029501   -0.000001307    0.000017339
     26        8           0.000138077    0.000068212    0.000054263
     27        1          -0.000093820   -0.000046064   -0.000154423
     28        8          -0.000104713    0.000102776   -0.000049233
     29        1           0.000069000    0.000014719    0.000046740
     30        1          -0.000011474   -0.000073534   -0.000017925
 -------------------------------------------------------------------
 Cartesian Forces:  Max     0.000428807 RMS     0.000104551
 IRC-IRC-IRC-IRC-IRC-IRC-IRC-IRC-IRC-IRC-IRC-IRC-IRC-IRC-IRC-IRC-IRC-IRC
          ******** Start new reaction path calculation ********
 Supplied step size of   0.1000 bohr.
    Integration on MW PES will use step size of   0.1056 sqrt(amu)*bohr.
 Point Number:   0          Path Number:   1
 Calculating another point on the path.
 IRC-IRC-IRC-IRC-IRC-IRC-IRC-IRC-IRC-IRC-IRC-IRC-IRC-IRC-IRC-IRC-IRC-IRC
                          Input orientation:                          
 ---------------------------------------------------------------------
 Center     Atomic      Atomic             Coordinates (Angstroms)
 Number     Number       Type             X           Y           Z
 ---------------------------------------------------------------------
      1          6           0        1.302517   -1.100761   -1.204583
      2          8           0        1.265017   -1.163655    0.574159
      3          1           0        4.194121   -1.156626    0.107709
      4          8           0        3.533484   -0.459480    0.250370
      5          1           0        2.497756   -0.927460    0.609521
      6          6           0       -0.186485   -1.137602   -1.506365
      7          6           0       -0.918610    0.070289   -0.909553
      8          6           0       -0.809516    0.089584    0.622447
      9          6           0        0.640441    0.004855    1.127625
     10          1           0       -0.596655   -2.049331   -1.042126
     11          1           0       -1.393707   -0.745086    1.023745
     12          1           0        1.181052    0.905387    0.794291
     13          1           0       -0.454912    0.983006   -1.316149
     14          8           0       -0.354481   -1.170020   -2.908675
     15          8           0       -2.258998   -0.065915   -1.351696
     16          8           0       -1.442079    1.274921    1.176728
     17          1           0       -2.743064    0.779443   -1.206323
     18          1           0       -1.289615   -0.930277   -3.043629
     19          1           0       -0.891411    2.038093    0.924933
     20          6           0        0.749510   -0.081994    2.660107
     21          8           0        0.354124    1.112677    3.310053
     22          1           0        1.798941   -0.247106    2.923305
     23          1           0        0.176308   -0.955574    3.010727
     24          1           0       -0.571395    1.267720    3.056561
     25          1           0        1.785699   -2.087130   -1.281652
     26          8           0        1.992223   -0.059402   -1.528989
     27          1           0        2.994715   -0.174141   -0.790283
     28          8           0       -3.615873    2.125403   -0.366409
     29          1           0       -4.507460    1.788783   -0.187443
     30          1           0       -3.084960    1.870677    0.416428
 ---------------------------------------------------------------------
                    Distance matrix (angstroms):
                    1          2          3          4          5
     1  C    0.000000
     2  O    1.780249   0.000000
     3  H    3.175941   2.966020   0.000000
     4  O    2.739588   2.397216   0.970981   0.000000
     5  H    2.179359   1.255660   1.783812   1.191943   0.000000
     6  C    1.519723   2.536951   4.668544   4.169429   3.424366
     7  C    2.528202   2.914146   5.355386   4.631114   3.869709
     8  C    3.035728   2.424175   5.182120   4.393354   3.460143
     9  C    2.664569   1.435909   3.875294   3.058575   2.141789
    10  H    2.129092   2.619661   5.007052   4.610447   3.682650
    11  H    3.515904   2.728762   5.677351   4.995688   3.917694
    12  H    2.834587   2.082412   3.715087   2.773563   2.264327
    13  H    2.728202   3.337600   5.312146   4.521289   4.009530
    14  O    2.377891   3.840957   5.457887   5.059713   4.535614
    15  O    3.711730   4.163248   6.705390   6.022819   5.216832
    16  O    4.341350   3.692981   6.230728   5.350002   4.549122
    17  H    4.461155   4.796923   7.321173   6.561398   5.803190
    18  H    3.182814   4.434975   6.328785   5.859553   5.262100
    19  H    4.381845   3.876134   6.061082   5.125681   4.514470
    20  C    4.034791   2.405601   4.419831   3.701330   2.824195
    21  O    5.116708   3.673762   5.490930   4.684194   4.006269
    22  H    4.244364   2.577522   3.806796   3.193482   2.510940
    23  H    4.365578   2.676835   4.960923   4.374507   3.340015
    24  H    5.222892   3.930179   6.106007   5.263835   4.497389
    25  H    1.101058   2.137277   2.932005   2.837444   2.329891
    26  O    1.290488   2.484237   2.954832   2.387816   2.362692
    27  H    1.973272   2.415098   1.791714   1.206088   1.665506
    28  O    5.941484   5.960340   8.484839   7.627276   6.902816
    29  H    6.568096   6.528279   9.191303   8.360811   7.555540
    30  H    5.541397   5.306067   7.889542   7.018619   6.247685
                    6          7          8          9         10
     6  C    0.000000
     7  C    1.533360   0.000000
     8  C    2.534955   1.536001   0.000000
     9  C    2.987795   2.566129   1.537777   0.000000
    10  H    1.102273   2.148027   2.718652   3.233868   0.000000
    11  H    2.830709   2.151325   1.094985   2.170475   2.569859
    12  H    3.367043   2.830027   2.158107   1.101966   3.906792
    13  H    2.145976   1.101539   2.163816   2.851071   3.047990
    14  O    1.412709   2.419317   3.776570   4.319944   2.077460
    15  O    2.338321   1.417985   2.454061   3.815597   2.606368
    16  O    3.820441   2.465305   1.453406   2.439748   4.085181
    17  H    3.209546   1.979800   2.749349   4.182752   3.554715
    18  H    1.903434   2.386013   3.835457   4.690304   2.395514
    19  H    4.061178   2.690415   1.973548   2.553764   4.545683
    20  C    4.398851   3.943132   2.571393   1.538811   4.403306
    21  O    5.343585   4.528963   3.102258   2.464192   5.462943
    22  H    4.935269   4.709206   3.494474   2.151760   4.971070
    23  H    4.535292   4.197599   2.787128   2.164236   4.268418
    24  H    5.172429   4.157459   2.714704   2.604644   5.272827
    25  H    2.200366   3.479397   3.885720   3.390078   2.394663
    26  O    2.431007   2.978836   3.535621   2.981449   3.301384
    27  H    3.400157   3.922765   4.066637   3.041878   4.059273
    28  O    4.869024   3.434199   3.605279   4.984483   5.196217
    29  H    5.382761   4.044071   4.149457   5.604703   5.545809
    30  H    4.598699   3.113309   2.896961   4.226784   4.866775
                   11         12         13         14         15
    11  H    0.000000
    12  H    3.066935   0.000000
    13  H    3.056590   2.671397   0.000000
    14  O    4.089559   4.514104   2.679878   0.000000
    15  O    2.617770   4.169248   2.087156   2.696371   0.000000
    16  O    2.026369   2.676496   2.697063   4.883761   2.976260
    17  H    3.019629   4.406474   2.299813   3.521894   0.984928
    18  H    4.072919   4.919704   2.709533   0.974764   2.132948
    19  H    2.829867   2.365416   2.515191   5.027607   3.388241
    20  C    2.776824   2.154627   4.288994   5.780479   5.014573
    21  O    3.425405   2.656282   4.698201   6.662237   5.472603
    22  H    3.748241   2.498544   4.956409   6.284981   5.897061
    23  H    2.541131   3.063539   4.783135   5.947020   5.074735
    24  H    2.976562   2.884479   4.383517   6.447765   4.905029
    25  H    4.150249   3.691923   3.800956   2.840540   4.522145
    26  O    4.295478   2.643189   2.668405   2.940072   4.254921
    27  H    4.782774   2.639248   3.676337   4.086131   5.284732
    28  O    3.887191   5.083911   3.492671   5.287684   2.759306
    29  H    4.193200   5.839808   4.283270   5.779867   3.138626
    30  H    3.173544   4.390150   3.272145   5.268554   2.749338
                   16         17         18         19         20
    16  O    0.000000
    17  H    2.759890   0.000000
    18  H    4.764195   2.900233   0.000000
    19  H    0.974201   3.091128   4.971848   0.000000
    20  C    2.974004   5.281045   6.116390   3.193465   0.000000
    21  O    2.793519   5.486463   6.873487   2.845443   1.416333
    22  H    3.983881   6.223941   6.753533   4.056305   1.094458
    23  H    3.310262   5.414474   6.229350   3.801657   1.102105
    24  H    2.071694   4.809028   6.523753   2.289044   1.929688
    25  H    5.269305   5.360282   3.728328   5.390121   4.542215
    26  O    4.571187   4.819826   3.717932   4.328575   4.369596
    27  H    5.064984   5.831340   4.899469   4.789355   4.117600
    28  O    2.798208   1.810762   4.681470   3.016269   5.752301
    29  H    3.394345   2.273758   5.089756   3.791484   6.264510
    30  H    1.905790   1.985197   4.800063   2.257933   4.852853
                   21         22         23         24         25
    21  O    0.000000
    22  H    2.021405   0.000000
    23  H    2.097350   1.772712   0.000000
    24  H    0.972050   2.816193   2.346102   0.000000
    25  H    5.776844   4.589937   4.721766   5.969171   0.000000
    26  O    5.241513   4.460438   4.970884   5.418547   2.053170
    27  H    5.043945   3.902043   4.796013   5.440066   2.315748
    28  O    5.504803   6.765443   5.939536   4.660599   6.910867
    29  H    6.026989   7.320675   6.300593   5.127151   7.471536
    30  H    4.557952   5.884039   5.035270   3.694843   6.501618
                   26         27         28         29         30
    26  O    0.000000
    27  H    1.250537   0.000000
    28  O    6.129902   7.011950   0.000000
    29  H    6.889225   7.778119   0.969675   0.000000
    30  H    5.769544   6.526859   0.979585   1.547538   0.000000
 Symmetry turned off by external request.
 Stoichiometry    C6H16O8
 Framework group  C1[X(C6H16O8)]
 Deg. of freedom    84
 Full point group                 C1      NOp   1
 Rotational constants (GHZ):      0.6770542      0.5494407      0.3346303
 Standard basis: 6-31G(d) (6D, 7F)
   242 basis functions,   456 primitive gaussians,   242 cartesian basis functions
    58 alpha electrons       58 beta electrons
       nuclear repulsion energy      1103.7898954224 Hartrees.
 NAtoms=   30 NActive=   30 NUniq=   30 SFac= 1.00D+00 NAtFMM=   60 NAOKFM=F Big=F
 Integral buffers will be    131072 words long.
 Raffenetti 2 integral format.
 Two-electron integral symmetry is turned off.
 One-electron integrals computed using PRISM.
 NBasis=   242 RedAO= T EigKep=  2.00D-03  NBF=   242
 NBsUse=   242 1.00D-06 EigRej= -1.00D+00 NBFU=   242
 Initial guess from the checkpoint file:  "/home/iawad/scratch/MAIN/PRO_Halides/direct/ircro/glo_1w_ALPHA/glo_1w_ALPHA_ircro_B3LYP_6-31G_d_B3LYP_6-31G_d.chk"
 B after Tr=     2.446412   -2.132244   -2.242651
         Rot=    1.000000    0.000004   -0.000046   -0.000036 Ang=   0.01 deg.
 ExpMin= 1.61D-01 ExpMax= 5.48D+03 ExpMxC= 8.25D+02 IAcc=1 IRadAn=         1 AccDes= 0.00D+00
 Harris functional with IExCor=  402 and IRadAn=       1 diagonalized for initial guess.
 HarFok:  IExCor=  402 AccDes= 0.00D+00 IRadAn=         1 IDoV= 1 UseB2=F ITyADJ=14
 ICtDFT=  3500011 ScaDFX=  1.000000  1.000000  1.000000  1.000000
 FoFCou: FMM=F IPFlag=           0 FMFlag=      100000 FMFlg1=           0
         NFxFlg=           0 DoJE=T BraDBF=F KetDBF=T FulRan=T
         wScrn=  0.000000 ICntrl=     500 IOpCl=  0 I1Cent=   200000004 NGrid=           0
         NMat0=    1 NMatS0=      1 NMatT0=    0 NMatD0=    1 NMtDS0=    0 NMtDT0=    0
 Symmetry not used in FoFCou.
 Requested convergence on RMS density matrix=1.00D-08 within 128 cycles.
 Requested convergence on MAX density matrix=1.00D-06.
 Requested convergence on             energy=1.00D-06.
 No special actions if energy rises.
 Integral accuracy reduced to 1.0D-05 until final iterations.
 Initial convergence to 1.0D-05 achieved.  Increase integral accuracy.
 SCF Done:  E(RB3LYP) =  -839.960164746     A.U. after   11 cycles
            NFock= 11  Conv=0.94D-08     -V/T= 2.0086
 DoSCS=F DFT=T ScalE2(SS,OS)=  1.000000  1.000000
 Range of M.O.s used for correlation:     1   242
 NBasis=   242 NAE=    58 NBE=    58 NFC=     0 NFV=     0
 NROrb=    242 NOA=    58 NOB=    58 NVA=   184 NVB=   184
 Symmetrizing basis deriv contribution to polar:
 IMax=3 JMax=2 DiffMx= 0.00D+00
 Calling FoFJK, ICntrl=      2147 FMM=F ISym2X=0 I1Cent= 0 IOpClX= 0 NMat=1 NMatS=1 NMatT=0.
 -------------------------------------------------------------------
 Center     Atomic                   Forces (Hartrees/Bohr)
 Number     Number              X              Y              Z
 -------------------------------------------------------------------
      1        6          -0.002223722   -0.002462146    0.006255176
      2        8          -0.002676414   -0.000185486   -0.003593044
      3        1          -0.000202294   -0.000213909    0.000445740
      4        8          -0.001019980   -0.001353582    0.002197394
      5        1           0.005576986    0.001446563   -0.000636451
      6        6           0.000333646    0.000302652   -0.000255483
      7        6           0.000150032    0.000065623    0.000247298
      8        6          -0.000335812    0.000136841   -0.000177456
      9        6           0.000422740   -0.000721335   -0.000594835
     10        1           0.000069287    0.000009149   -0.000016339
     11        1           0.000008826    0.000004355   -0.000044396
     12        1          -0.000018040    0.000090557    0.000074957
     13        1           0.000000386    0.000020899    0.000042101
     14        8           0.000032447    0.000038689   -0.000188149
     15        8           0.000124544   -0.000118655   -0.000107300
     16        8          -0.000337646    0.000191879   -0.000036667
     17        1          -0.000056060    0.000028827    0.000009267
     18        1           0.000031811    0.000045524    0.000024196
     19        1           0.000079142    0.000019178    0.000004464
     20        6           0.000049894   -0.000231785   -0.000271091
     21        8          -0.000000536   -0.000045045   -0.000053250
     22        1           0.000001552    0.000008564    0.000043112
     23        1           0.000011116   -0.000001139   -0.000036491
     24        1          -0.000025447   -0.000045540   -0.000050099
     25        1           0.000013688    0.000049797   -0.000130312
     26        8           0.004200033    0.001800971    0.001527519
     27        1          -0.004208358    0.001096296   -0.004658107
     28        8          -0.000091305    0.000083712   -0.000058341
     29        1           0.000073289    0.000011313    0.000057417
     30        1           0.000016196   -0.000072766   -0.000020832
 -------------------------------------------------------------------
 Cartesian Forces:  Max     0.006255176 RMS     0.001405123
 IRC-IRC-IRC-IRC-IRC-IRC-IRC-IRC-IRC-IRC-IRC-IRC-IRC-IRC-IRC-IRC-IRC-IRC
 Pt  1 Step number   1 out of a maximum of1000
 Modified Bulirsch-Stoer Extrapolation Cycles:
    EPS =    0.000010000000000
 Maximum DWI energy   std dev =  0.000005708 at pt    36
 Maximum DWI gradient std dev =  0.099725668 at pt     1
 CORRECTOR INTEGRATION CONVERGENCE:
   Recorrection delta-x convergence threshold:    0.010000
   Delta-x Convergence Met
 Point Number:   1          Path Number:   1
   CHANGE IN THE REACTION COORDINATE =    0.10554
   NET REACTION COORDINATE UP TO THIS POINT =    0.10554
  # OF POINTS ALONG THE PATH =   1
  # OF STEPS =   1

 Calculating another point on the path.
 IRC-IRC-IRC-IRC-IRC-IRC-IRC-IRC-IRC-IRC-IRC-IRC-IRC-IRC-IRC-IRC-IRC-IRC
                          Input orientation:                          
 ---------------------------------------------------------------------
 Center     Atomic      Atomic             Coordinates (Angstroms)
 Number     Number       Type             X           Y           Z
 ---------------------------------------------------------------------
      1          6           0        1.301393   -1.102069   -1.201375
      2          8           0        1.263918   -1.163745    0.572796
      3          1           0        4.193172   -1.158077    0.110509
      4          8           0        3.533161   -0.459982    0.251220
      5          1           0        2.532333   -0.918505    0.605365
      6          6           0       -0.186324   -1.137459   -1.506512
      7          6           0       -0.918545    0.070332   -0.909437
      8          6           0       -0.809650    0.089664    0.622395
      9          6           0        0.640625    0.004491    1.127291
     10          1           0       -0.596154   -2.049179   -1.042229
     11          1           0       -1.393715   -0.745125    1.023513
     12          1           0        1.180955    0.905908    0.794808
     13          1           0       -0.454951    0.983189   -1.315955
     14          8           0       -0.354466   -1.170004   -2.908741
     15          8           0       -2.258950   -0.065947   -1.351737
     16          8           0       -1.442199    1.275004    1.176700
     17          1           0       -2.743214    0.779415   -1.206299
     18          1           0       -1.289537   -0.929951   -3.043543
     19          1           0       -0.891126    2.037990    0.925060
     20          6           0        0.749554   -0.082108    2.659994
     21          8           0        0.354104    1.112660    3.310027
     22          1           0        1.798903   -0.247113    2.923486
     23          1           0        0.176305   -0.955632    3.010572
     24          1           0       -0.571429    1.267482    3.056345
     25          1           0        1.785718   -2.086682   -1.282492
     26          8           0        1.993820   -0.058685   -1.528433
     27          1           0        2.968681   -0.167596   -0.818416
     28          8           0       -3.615894    2.125435   -0.366426
     29          1           0       -4.507348    1.788798   -0.187130
     30          1           0       -3.084761    1.870313    0.416249
 ---------------------------------------------------------------------
                    Distance matrix (angstroms):
                    1          2          3          4          5
     1  C    0.000000
     2  O    1.775638   0.000000
     3  H    3.175936   2.965514   0.000000
     4  O    2.739178   2.397531   0.970954   0.000000
     5  H    2.193906   1.292316   1.749475   1.156425   0.000000
     6  C    1.519099   2.535234   4.668530   4.169312   3.449502
     7  C    2.527425   2.912576   5.355272   4.630987   3.896278
     8  C    3.033623   2.423464   5.181421   4.393164   3.490780
     9  C    2.661536   1.435525   3.873758   3.057776   2.168614
    10  H    2.126741   2.617664   5.006048   4.609750   3.712199
    11  H    3.512996   2.727893   5.676039   4.995183   3.952058
    12  H    2.833942   2.083180   3.715072   2.773809   2.278288
    13  H    2.728768   3.336348   5.312709   4.521484   4.028868
    14  O    2.379407   3.839310   5.458665   5.059953   4.554756
    15  O    3.711091   4.161680   6.705281   6.022730   5.245331
    16  O    4.339702   3.692596   6.230093   5.349850   4.575457
    17  H    4.460813   4.795639   7.321292   6.561505   5.830648
    18  H    3.183728   4.433136   6.329312   5.859585   5.284066
    19  H    4.380506   3.875488   6.060398   5.125255   4.534660
    20  C    4.031751   2.406430   4.417702   3.700466   2.845937
    21  O    5.114209   3.674536   5.489226   4.683578   4.023122
    22  H    4.241810   2.579180   3.804632   3.192800   2.522375
    23  H    4.362083   2.677493   4.958485   4.373577   3.367086
    24  H    5.220193   3.930315   6.104319   5.263128   4.518758
    25  H    1.100279   2.136862   2.932336   2.837601   2.342237
    26  O    1.294246   2.483762   2.954987   2.387001   2.362706
    27  H    1.949295   2.415368   1.828479   1.244286   1.667758
    28  O    5.940844   5.959313   8.484718   7.627244   6.928972
    29  H    6.567135   6.527059   9.190849   8.360558   7.583841
    30  H    5.539865   5.304811   7.888786   7.018148   6.274155
                    6          7          8          9         10
     6  C    0.000000
     7  C    1.533429   0.000000
     8  C    2.535076   1.535819   0.000000
     9  C    2.987442   2.565854   1.538010   0.000000
    10  H    1.102158   2.147998   2.718676   3.233264   0.000000
    11  H    2.830679   2.151058   1.094942   2.170538   2.569815
    12  H    3.367622   2.830290   2.158354   1.102295   3.907091
    13  H    2.146072   1.101583   2.163655   2.850893   3.047970
    14  O    1.412649   2.419470   3.776623   4.319629   2.077313
    15  O    2.338348   1.418057   2.453952   3.815505   2.606510
    16  O    3.820579   2.465241   1.453411   2.440246   4.085294
    17  H    3.209708   1.979986   2.749282   4.182884   3.554959
    18  H    1.903314   2.385919   3.835232   4.689836   2.395560
    19  H    4.061129   2.690318   1.973378   2.553875   4.545567
    20  C    4.398795   3.942921   2.571465   1.539007   4.403039
    21  O    5.343607   4.528792   3.102291   2.464644   5.462815
    22  H    4.935456   4.709203   3.494709   2.152029   4.970979
    23  H    4.535263   4.197352   2.787138   2.164296   4.268224
    24  H    5.172205   4.157052   2.714427   2.604894   5.272490
    25  H    2.200037   3.479213   3.886002   3.389881   2.394253
    26  O    2.432542   2.980213   3.536596   2.981274   3.302488
    27  H    3.371672   3.895565   4.051902   3.038953   4.037140
    28  O    4.869109   3.434240   3.605154   4.984732   5.196435
    29  H    5.382842   4.044052   4.149139   5.604737   5.546052
    30  H    4.598330   3.112855   2.896436   4.226746   4.866491
                   11         12         13         14         15
    11  H    0.000000
    12  H    3.067106   0.000000
    13  H    3.056380   2.671607   0.000000
    14  O    4.089399   4.514777   2.680169   0.000000
    15  O    2.617580   4.169545   2.087194   2.696343   0.000000
    16  O    2.026509   2.676379   2.696876   4.883857   2.976277
    17  H    3.019508   4.406760   2.299934   3.522026   0.985039
    18  H    4.072586   4.920025   2.709464   0.974759   2.132714
    19  H    2.829844   2.364761   2.514956   5.027650   3.388407
    20  C    2.776916   2.154345   4.288807   5.780414   5.014513
    21  O    3.425548   2.655702   4.697983   6.662259   5.472587
    22  H    3.748430   2.498517   4.956447   6.285189   5.897162
    23  H    2.541197   3.063374   4.782923   5.946927   5.074618
    24  H    2.976432   2.883770   4.383081   6.447531   4.904788
    25  H    4.150450   3.692765   3.800767   2.839960   4.521892
    26  O    4.296396   2.643603   2.669668   2.941892   4.256445
    27  H    4.770403   2.636450   3.645972   4.051862   5.255748
    28  O    3.887174   5.083844   3.492548   5.287741   2.759401
    29  H    4.192985   5.839562   4.283126   5.779974   3.138739
    30  H    3.173157   4.389728   3.271608   5.268168   2.748971
                   16         17         18         19         20
    16  O    0.000000
    17  H    2.759879   0.000000
    18  H    4.763988   2.900099   0.000000
    19  H    0.974244   3.091429   4.971641   0.000000
    20  C    2.974172   5.281086   6.116131   3.193218   0.000000
    21  O    2.793590   5.486495   6.873257   2.845153   1.416473
    22  H    3.984074   6.224124   6.753530   4.056064   1.094435
    23  H    3.310344   5.414424   6.229098   3.801387   1.102072
    24  H    2.071560   4.808845   6.523267   2.288725   1.929633
    25  H    5.269536   5.360182   3.727804   5.389963   4.542592
    26  O    4.571946   4.821376   3.719556   4.328808   4.369401
    27  H    5.051479   5.802847   4.864648   4.775189   4.126884
    28  O    2.798110   1.810725   4.681269   3.016612   5.752356
    29  H    3.393988   2.273703   5.089695   3.791586   6.264297
    30  H    1.905437   1.984785   4.799423   2.258105   4.852661
                   21         22         23         24         25
    21  O    0.000000
    22  H    2.021346   0.000000
    23  H    2.097407   1.772683   0.000000
    24  H    0.972078   2.816047   2.345940   0.000000
    25  H    5.777243   4.590691   4.722275   5.969260   0.000000
    26  O    5.241317   4.460166   4.970959   5.418432   2.053428
    27  H    5.051644   3.921293   4.804114   5.441103   2.301665
    28  O    5.504807   6.765540   5.939517   4.660495   6.910755
    29  H    6.026689   7.320496   6.300301   5.126730   7.471402
    30  H    4.557827   5.883868   5.034981   3.694638   6.501162
                   26         27         28         29         30
    26  O    0.000000
    27  H    1.210926   0.000000
    28  O    6.131030   6.987054   0.000000
    29  H    6.890389   7.753516   0.969619   0.000000
    30  H    5.770165   6.505508   0.979678   1.547406   0.000000
 Symmetry turned off by external request.
 Stoichiometry    C6H16O8
 Framework group  C1[X(C6H16O8)]
 Deg. of freedom    84
 Full point group                 C1      NOp   1
 Rotational constants (GHZ):      0.6771284      0.5494226      0.3346540
 Standard basis: 6-31G(d) (6D, 7F)
   242 basis functions,   456 primitive gaussians,   242 cartesian basis functions
    58 alpha electrons       58 beta electrons
       nuclear repulsion energy      1103.7890428280 Hartrees.
 NAtoms=   30 NActive=   30 NUniq=   30 SFac= 1.00D+00 NAtFMM=   60 NAOKFM=F Big=F
 Integral buffers will be    131072 words long.
 Raffenetti 2 integral format.
 Two-electron integral symmetry is turned off.
 One-electron integrals computed using PRISM.
 NBasis=   242 RedAO= T EigKep=  2.00D-03  NBF=   242
 NBsUse=   242 1.00D-06 EigRej= -1.00D+00 NBFU=   242
 Initial guess from the checkpoint file:  "/home/iawad/scratch/MAIN/PRO_Halides/direct/ircro/glo_1w_ALPHA/glo_1w_ALPHA_ircro_B3LYP_6-31G_d_B3LYP_6-31G_d.chk"
 B after Tr=     0.000065    0.000121   -0.000242
         Rot=    1.000000    0.000002   -0.000046   -0.000036 Ang=   0.01 deg.
 ExpMin= 1.61D-01 ExpMax= 5.48D+03 ExpMxC= 8.25D+02 IAcc=1 IRadAn=         1 AccDes= 0.00D+00
 Harris functional with IExCor=  402 and IRadAn=       1 diagonalized for initial guess.
 HarFok:  IExCor=  402 AccDes= 0.00D+00 IRadAn=         1 IDoV= 1 UseB2=F ITyADJ=14
 ICtDFT=  3500011 ScaDFX=  1.000000  1.000000  1.000000  1.000000
 FoFCou: FMM=F IPFlag=           0 FMFlag=      100000 FMFlg1=           0
         NFxFlg=           0 DoJE=T BraDBF=F KetDBF=T FulRan=T
         wScrn=  0.000000 ICntrl=     500 IOpCl=  0 I1Cent=   200000004 NGrid=           0
         NMat0=    1 NMatS0=      1 NMatT0=    0 NMatD0=    1 NMtDS0=    0 NMtDT0=    0
 Symmetry not used in FoFCou.
 Requested convergence on RMS density matrix=1.00D-08 within 128 cycles.
 Requested convergence on MAX density matrix=1.00D-06.
 Requested convergence on             energy=1.00D-06.
 No special actions if energy rises.
 Integral accuracy reduced to 1.0D-05 until final iterations.
 Initial convergence to 1.0D-05 achieved.  Increase integral accuracy.
 SCF Done:  E(RB3LYP) =  -839.961580891     A.U. after   11 cycles
            NFock= 11  Conv=0.83D-08     -V/T= 2.0086
 DoSCS=F DFT=T ScalE2(SS,OS)=  1.000000  1.000000
 Range of M.O.s used for correlation:     1   242
 NBasis=   242 NAE=    58 NBE=    58 NFC=     0 NFV=     0
 NROrb=    242 NOA=    58 NOB=    58 NVA=   184 NVB=   184
 Symmetrizing basis deriv contribution to polar:
 IMax=3 JMax=2 DiffMx= 0.00D+00
 Calling FoFJK, ICntrl=      2147 FMM=F ISym2X=0 I1Cent= 0 IOpClX= 0 NMat=1 NMatS=1 NMatT=0.
 -------------------------------------------------------------------
 Center     Atomic                   Forces (Hartrees/Bohr)
 Number     Number              X              Y              Z
 -------------------------------------------------------------------
      1        6          -0.004059028   -0.005092521    0.012775111
      2        8          -0.006246595   -0.000411879   -0.007345593
      3        1          -0.000349908   -0.000364476    0.000924359
      4        8          -0.000332043   -0.002548990    0.004795071
      5        1           0.010689546    0.002617003   -0.001050035
      6        6           0.000622696    0.000481398   -0.000642415
      7        6           0.000072534    0.000182851    0.000344973
      8        6          -0.000149667    0.000383348    0.000221289
      9        6           0.000443300   -0.001514581   -0.001785356
     10        1           0.000162814    0.000056033   -0.000016399
     11        1           0.000021708   -0.000007321   -0.000024436
     12        1          -0.000061440    0.000174666    0.000170844
     13        1          -0.000067803    0.000073750    0.000025725
     14        8           0.000089316    0.000094887   -0.000332132
     15        8           0.000187048   -0.000123672   -0.000237815
     16        8          -0.000631939    0.000405597   -0.000181599
     17        1          -0.000015645   -0.000019176    0.000035916
     18        1           0.000011655    0.000074673    0.000008103
     19        1           0.000067563   -0.000030018    0.000074309
     20        6           0.000212277   -0.000454799   -0.000417725
     21        8          -0.000075374   -0.000075710   -0.000128944
     22        1          -0.000000032   -0.000023825   -0.000002156
     23        1          -0.000001904   -0.000003608   -0.000008054
     24        1           0.000004237   -0.000030571   -0.000047899
     25        1          -0.000008259    0.000125801   -0.000305596
     26        8           0.007545367    0.003670548    0.002395427
     27        1          -0.008177305    0.002359285   -0.009224151
     28        8          -0.000026823    0.000044513   -0.000040582
     29        1           0.000007877   -0.000001868    0.000050488
     30        1           0.000065828   -0.000041336   -0.000030729
 -------------------------------------------------------------------
 Cartesian Forces:  Max     0.012775111 RMS     0.002776836
 IRC-IRC-IRC-IRC-IRC-IRC-IRC-IRC-IRC-IRC-IRC-IRC-IRC-IRC-IRC-IRC-IRC-IRC
 Pt  2 Step number   1 out of a maximum of1000
 Modified Bulirsch-Stoer Extrapolation Cycles:
    EPS =    0.000010000000000
 Maximum DWI energy   std dev =  0.000004427 at pt    38
 Maximum DWI gradient std dev =  0.023864528 at pt    55
 CORRECTOR INTEGRATION CONVERGENCE:
   Recorrection delta-x convergence threshold:    0.010000
   Delta-x Convergence Met
 Point Number:   2          Path Number:   1
   CHANGE IN THE REACTION COORDINATE =    0.10553
   NET REACTION COORDINATE UP TO THIS POINT =    0.21108
  # OF POINTS ALONG THE PATH =   2
  # OF STEPS =   1

 Calculating another point on the path.
 IRC-IRC-IRC-IRC-IRC-IRC-IRC-IRC-IRC-IRC-IRC-IRC-IRC-IRC-IRC-IRC-IRC-IRC
                          Input orientation:                          
 ---------------------------------------------------------------------
 Center     Atomic      Atomic             Coordinates (Angstroms)
 Number     Number       Type             X           Y           Z
 ---------------------------------------------------------------------
      1          6           0        1.300320   -1.103443   -1.197961
      2          8           0        1.262585   -1.163848    0.571318
      3          1           0        4.192452   -1.159381    0.113466
      4          8           0        3.533269   -0.460461    0.252234
      5          1           0        2.565668   -0.910468    0.602150
      6          6           0       -0.186160   -1.137332   -1.506685
      7          6           0       -0.918534    0.070382   -0.909349
      8          6           0       -0.809681    0.089769    0.622468
      9          6           0        0.640723    0.004102    1.126807
     10          1           0       -0.595633   -2.048993   -1.042277
     11          1           0       -1.393636   -0.745143    1.023457
     12          1           0        1.180795    0.906417    0.795334
     13          1           0       -0.455191    0.983430   -1.315885
     14          8           0       -0.354446   -1.169984   -2.908806
     15          8           0       -2.258912   -0.065971   -1.351785
     16          8           0       -1.442323    1.275083    1.176662
     17          1           0       -2.743265    0.779363   -1.206168
     18          1           0       -1.289502   -0.929735   -3.043521
     19          1           0       -0.890923    2.037905    0.925309
     20          6           0        0.749613   -0.082231    2.659886
     21          8           0        0.354090    1.112643    3.309999
     22          1           0        1.798911   -0.247187    2.923443
     23          1           0        0.176294   -0.955644    3.010566
     24          1           0       -0.571416    1.267405    3.056207
     25          1           0        1.785725   -2.086248   -1.283461
     26          8           0        1.995252   -0.057935   -1.528016
     27          1           0        2.942690   -0.160042   -0.847783
     28          8           0       -3.615897    2.125441   -0.366433
     29          1           0       -4.507321    1.788794   -0.186990
     30          1           0       -3.084563    1.870217    0.416167
 ---------------------------------------------------------------------
                    Distance matrix (angstroms):
                    1          2          3          4          5
     1  C    0.000000
     2  O    1.770712   0.000000
     3  H    3.176066   2.965429   0.000000
     4  O    2.739079   2.398453   0.970704   0.000000
     5  H    2.208788   1.327848   1.716739   1.123031   0.000000
     6  C    1.518578   2.533310   4.668792   4.169664   3.474365
     7  C    2.526752   2.910838   5.355432   4.631374   3.922546
     8  C    3.031472   2.422490   5.180810   4.393296   3.520493
     9  C    2.658246   1.435057   3.872381   3.057372   2.194794
    10  H    2.124368   2.615367   5.005288   4.609449   3.740883
    11  H    3.510054   2.726766   5.674862   4.995020   3.985088
    12  H    2.833205   2.083955   3.715177   2.774428   2.292655
    13  H    2.729609   3.335130   5.313687   4.522348   4.048617
    14  O    2.381107   3.837458   5.459718   5.060625   4.573973
    15  O    3.710545   4.159880   6.705416   6.023111   5.273293
    16  O    4.338008   3.692066   6.229582   5.350066   4.601162
    17  H    4.460449   4.793991   7.321498   6.561934   5.857501
    18  H    3.184877   4.431141   6.330176   5.860148   5.305999
    19  H    4.379257   3.874807   6.059903   5.125265   4.554707
    20  C    4.028541   2.407313   4.415614   3.699809   2.866760
    21  O    5.111565   3.675343   5.487526   4.683136   4.039369
    22  H    4.238837   2.580777   3.802251   3.191997   2.533034
    23  H    4.358552   2.678303   4.956231   4.372972   3.392878
    24  H    5.217496   3.930550   6.102741   5.262720   4.539474
    25  H    1.099469   2.136516   2.933057   2.838212   2.355058
    26  O    1.298058   2.483354   2.955560   2.386800   2.364274
    27  H    1.926139   2.417484   1.866704   1.284162   1.675586
    28  O    5.940229   5.958052   8.484732   7.627596   6.954613
    29  H    6.566262   6.525714   9.190651   8.360811   7.611566
    30  H    5.538525   5.303519   7.888285   7.018165   6.300152
                    6          7          8          9         10
     6  C    0.000000
     7  C    1.533544   0.000000
     8  C    2.535320   1.535802   0.000000
     9  C    2.986953   2.565465   1.537976   0.000000
    10  H    1.102029   2.147949   2.718731   3.232445   0.000000
    11  H    2.830800   2.150940   1.094931   2.170407   2.569843
[...]
 00003696,0.00018673,-0.00009859,0.00013839,0.00027847,-0.00496575,0.00
 024314,-0.00008675,0.00017585,0.00007015,0.00000194,0.00002328,-0.0000
 0185,0.00039424,0.00021929,0.00326592,0.04134802,-0.01430305,0.0069648
 4,0.05502885,-0.04670942,-0.00370705,0.00081149,-0.00467425,-0.0034284
 0,0.00028356,0.00067809,0.00108403,-0.09707252,0.06776902,0.00027399,0
 .00001634,-0.00018114,-0.00141305,0.00095468,-0.00047020,0.00004960,0.
 00001020,0.00005067,-0.00036256,-0.00001342,-0.00028417,0.00032980,0.0
 0004723,0.00031589,0.00048853,-0.00059303,-0.00001456,-0.00095869,0.00
 084894,-0.00031534,0.00155194,-0.00688900,-0.00430900,0.00342966,-0.00
 143755,0.00098751,-0.00003326,0.00009802,-0.00000970,-0.00003608,0.000
 55668,0.00022567,0.00014712,0.00030824,-0.00031450,0.00008809,0.000024
 94,-0.00007365,-0.00023221,0.00046215,0.00062415,0.00027887,0.00019877
 ,0.00048609,0.00174354,0.00284207,0.00390153,-0.00026174,-0.00003567,-
 0.00038289,-0.00002114,-0.00016979,-0.00024114,-0.00053112,0.00180368,
 -0.00237520,0.02445480,-0.00742664,0.00483326,-0.14574245,0.01426064,-
 0.06095102,0.00182392,-0.00402049,-0.00183192,-0.00101861,-0.00078052,
 -0.00015922,0.11705516,-0.00136724,0.06008402,-0.12391374,0.10793158,0
 .03123250,0.00323040,-0.00076841,-0.00042183,-0.00010638,-0.00000538,-
 0.00018608,-0.00020346,0.00007186,0.00018554,-0.00001690,-0.00003818,-
 0.00004249,-0.01629423,0.02782703,0.00909077,-0.00267759,-0.00333415,-
 0.00302133,0.00005629,-0.00050776,-0.00108190,0.00077523,-0.00020877,-
 0.00034711,0.00096384,-0.00037607,0.00036414,-0.00003823,0.00002062,0.
 00008768,-0.00005582,-0.00000973,0.00017596,0.00009614,0.00020868,-0.0
 0001142,0.00194827,-0.00126616,0.00008402,-0.00218659,0.00205197,0.000
 20452,0.00011349,0.00024557,0.00058087,-0.00021111,-0.00063897,-0.0001
 8171,-0.00002945,-0.00011307,0.00021505,-0.00007325,-0.00003788,-0.000
 11066,0.00016043,0.00005411,-0.00003378,0.00003574,-0.00005433,0.00003
 055,0.00003359,-0.00001016,0.00005759,-0.00001574,-0.00001397,0.000003
 96,-0.00003798,0.00001442,-0.00010771,0.12526003,0.10492000,-0.2243859
 5,-0.05173529,0.00243073,0.00119611,-0.00498367,-0.00066130,-0.0000298
 7,-0.00050634,-0.00007829,0.00152586,0.00056036,0.00037721,-0.00057561
 ,-0.00080145,-0.00031698,0.00174293,-0.00081064,-0.00078155,0.00081707
 ,-0.00038798,-0.00007535,0.00005916,0.00002516,-0.00089291,0.00225106,
 0.00037791,0.00058440,0.00092744,0.00021864,0.00005180,-0.00001685,-0.
 00003202,-0.00009647,0.00021422,0.00048811,-0.00024345,0.00028301,-0.0
 0003380,0.00004023,0.00034000,0.00062669,0.00001023,0.00017553,0.00012
 192,0.00004503,-0.00001814,0.00002711,-0.00010925,0.00000788,0.0000502
 7,0.00003623,0.00000923,0.00016239,-0.00006480,0.00002180,0.00002291,0
 .00013811,-0.00011646,0.00019233,0.00003052,-0.00004275,-0.00016289,-0
 .00000771,-0.00000539,-0.00000580,0.00002109,0.00003063,-0.00006013,-0
 .00004046,0.00000417,0.00004436,-0.10879378,0.25325970,0.02301896,-0.0
 4779155,-0.05753960,0.01984292,-0.03227148,-0.02755573,-0.00037772,-0.
 00010286,-0.00002879,0.00023601,0.00041285,0.00066249,0.00054915,-0.00
 048044,-0.00072470,-0.00567733,0.00945047,0.00596499,-0.00114743,-0.00
 120240,-0.00145228,-0.00082930,-0.00023311,-0.00071587,-0.00096824,0.0
 0327543,-0.00529028,0.00055977,-0.00036530,0.00018235,0.00003395,0.000
 01800,0.00006814,0.00005916,-0.00039434,-0.00013718,0.00011713,-0.0000
 1835,0.00004872,0.00119635,-0.00029244,0.00114031,-0.00094086,0.000976
 69,0.00041289,0.00066252,-0.00022763,0.00042757,-0.00011638,-0.0002287
 7,-0.00015475,0.00016517,-0.00012589,0.00018418,-0.00011235,0.00011506
 ,-0.00016996,0.00099640,-0.00177592,0.00081931,0.00017207,-0.00041835,
 -0.00133467,-0.00007996,-0.00000199,0.00001123,0.00002777,0.00013339,-
 0.00005504,-0.00022667,0.00009744,0.00006652,-0.03489256,0.05275379,0.
 07932383,-0.13855194,-0.07349529,0.00985216,0.00532159,-0.00649800,0.0
 2362584,0.00030940,-0.00066666,-0.00231589,-0.00938270,0.00679745,-0.0
 1231479,-0.00474978,-0.00052057,0.00236388,-0.02340087,-0.04042179,0.0
 1651659,0.00244202,-0.00056569,-0.00015222,0.00053380,-0.00053994,-0.0
 0137892,0.00134559,-0.00383456,-0.00032352,-0.00812475,-0.00039836,-0.
 00266357,0.00021122,-0.00003024,0.00002076,-0.00126379,0.00094529,0.00
 127549,-0.00182865,-0.00040971,0.00056777,0.00084604,0.00053724,-0.001
 12938,-0.00206810,0.00056393,-0.00002639,-0.00065165,0.00118636,0.0010
 8412,0.00081356,-0.00065072,-0.00032634,0.00039464,-0.00033517,0.00053
 982,-0.00011396,-0.00034857,-0.00023380,-0.00039174,0.00000616,-0.0009
 5201,0.00011260,0.00046897,0.00086463,0.00014729,-0.00009237,0.0002700
 4,0.00012829,0.00012421,0.00003930,-0.00001070,-0.00008943,-0.00039884
 ,0.01101377,0.00068712,-0.00136688,0.55463406,-0.03729840,-0.21462735,
 0.03908032,-0.01136755,-0.00110789,0.03468127,-0.00043044,0.00024513,-
 0.00060136,0.00262889,0.00316414,0.00144016,-0.00174867,-0.00146869,0.
 00009790,-0.00975042,-0.00598074,0.00443919,-0.00033705,-0.00240937,-0
 .00006477,0.00038452,0.00046379,-0.00001729,0.00257972,-0.00865250,-0.
 00291663,0.00013086,0.00151817,-0.00035009,0.00053523,0.00002020,-0.00
 013914,0.00032808,0.00442815,0.00076569,0.00030882,0.00161449,-0.00031
 605,0.00001952,0.00189848,-0.00080819,-0.00003947,0.00166577,-0.000423
 30,-0.00093520,0.00103704,0.00014846,-0.00009882,-0.00028238,0.0000831
 7,0.00010856,-0.00031807,0.00005958,-0.00022634,-0.00016648,0.00025039
 ,0.00004162,0.00223616,-0.00055821,-0.00016215,0.00078901,0.00125147,-
 0.00007562,-0.00008439,-0.00009759,0.00012698,0.00011977,-0.00078941,0
 .00009908,-0.00016173,0.00001064,-0.02224069,-0.03794892,0.01913486,0.
 06306631,0.30048213,0.00278419,0.04094598,-0.08401316,0.02504837,0.039
 23373,-0.04143452,-0.00069977,-0.00008119,-0.00253864,-0.00802198,0.00
 396195,0.00015927,0.00202090,-0.00104966,0.00093038,-0.00132528,-0.007
 54207,0.00308217,-0.00007669,0.00007670,-0.00121434,-0.00165449,0.0002
 1303,-0.00145648,-0.00350133,0.00554595,0.00302822,-0.00282489,-0.0002
 6787,-0.00009806,0.00024124,0.00000889,0.00017102,0.00131709,0.0004480
 1,-0.00120829,0.00023869,-0.00034744,0.00036480,-0.00127145,-0.0008229
 7,0.00262007,-0.00008013,0.00036019,0.00139140,0.00165599,-0.00073437,
 0.00091134,0.00007993,-0.00009681,-0.00033158,0.00000147,-0.00021518,0
 .00037103,-0.00050534,0.00036881,-0.00040814,0.00047178,0.00118154,0.0
 0130559,0.00046152,-0.00090988,-0.00100955,0.00006079,0.00005478,0.000
 20642,-0.00003487,-0.00009201,-0.00040651,-0.00037024,0.00013696,0.000
 07962,-0.00139668,0.00174617,0.00652819,0.10055416,-0.11401560,0.17762
 130,-0.02952560,-0.00922014,0.00181856,0.00119287,0.00257695,-0.007186
 32,-0.00154334,0.00065541,0.00121361,-0.00388442,-0.00237739,0.0037897
 2,0.00601424,-0.00111779,0.00015045,0.00036630,-0.00298594,0.00042404,
 -0.00030761,0.00000785,0.00017044,-0.00049200,0.00042029,0.00024136,-0
 .00150324,0.00095428,0.00081095,0.00000820,0.00024728,-0.00017138,0.00
 011973,0.00001463,-0.00002235,-0.00011927,0.00025128,0.00069104,-0.000
 16417,0.00022481,-0.00005068,0.00059042,0.00036557,0.00032974,0.000871
 00,-0.00026291,-0.00001617,0.00047725,-0.00047607,-0.00034307,-0.00022
 454,0.00029031,0.00007952,-0.00002662,0.00009427,-0.00017043,-0.000116
 96,0.00019728,0.00010136,0.00068602,-0.00006994,0.00077088,-0.00005238
 ,-0.00021450,-0.00069413,-0.00012438,0.00003391,-0.00016514,-0.0000615
 4,0.00003869,-0.00017914,-0.00006273,0.00004553,0.00026234,0.00228865,
 0.00280343,-0.00076020,-0.38762172,0.01430969,-0.11283666,0.41322344,-
 0.04479653,-0.00169658,-0.01222328,0.00259687,-0.00028796,0.00113266,0
 .00121084,-0.00124979,0.00140409,-0.00317059,-0.00352116,-0.00651437,-
 0.00062064,0.00002438,0.00445467,-0.00187840,-0.00581822,0.00381548,0.
 00030677,-0.00084187,0.00022967,-0.00021013,-0.00024547,0.00005057,0.0
 0016134,0.00131429,0.00017567,-0.00182348,0.00011363,-0.00042495,-0.00
 007351,0.00000130,-0.00010071,0.00028463,-0.00047372,-0.00026660,-0.00
 013982,0.00055036,-0.00004977,0.00064500,0.00034877,0.00000417,0.00015
 423,0.00029420,-0.00010622,0.00016124,-0.00012400,0.00000888,-0.000034
 57,0.00005182,-0.00000876,0.00005474,-0.00005299,0.00003158,0.00006986
 ,0.00005265,0.00000646,-0.00021018,0.00004822,-0.00003320,0.00003857,-
 0.00017504,0.00001240,0.00003066,0.00004317,0.00004979,-0.00001671,-0.
 00003561,0.00008187,0.00000966,0.00002252,-0.00003486,-0.00023287,0.00
 026998,-0.00056179,0.05419759,-0.04658132,0.03173387,-0.00670633,0.057
 96847,0.01763988,-0.00051085,0.00803620,-0.00207380,-0.00041896,-0.001
 56096,0.00013978,-0.00049392,0.00445359,0.00463851,-0.00296574,-0.0050
 8777,0.00007647,0.00326869,-0.00606976,0.00034597,0.00294629,-0.000257
 60,-0.00038236,-0.00000572,0.00058193,-0.00002809,-0.00019450,0.000644
 40,0.00108703,-0.00038673,-0.00108472,0.00088539,0.00036654,0.00018779
 ,-0.00010382,0.00002971,-0.00005637,0.00055682,-0.00036712,-0.00001831
 ,-0.00000511,0.00020435,-0.00017943,0.00014679,-0.00031207,0.00008486,
 0.00027126,-0.00006521,-0.00043557,-0.00034327,0.00004567,-0.00045881,
 -0.00011270,0.00010831,0.00012574,-0.00004997,0.00001330,0.00006609,0.
 00015639,-0.00003810,0.00018677,0.00039996,-0.00014877,-0.00006492,-0.
 00032000,0.00016443,0.00013043,-0.00013393,0.00005927,-0.00026728,-0.0
 0011182,-0.00003400,0.00004991,0.00011154,-0.00002023,0.00008982,-0.00
 056300,0.00210713,-0.00071556,-0.13412714,0.01958987,-0.06466677,0.111
 79693,-0.02286904,0.06630180,0.00058911,0.00021289,-0.00020302,-0.0011
 1144,0.00057736,0.00013580,0.00010276,0.00000805,0.00000532,-0.0004751
 0,0.00001003,-0.00009529,0.00042257,-0.00003957,0.00007107,-0.00015038
 ,-0.00055599,-0.00046605,0.00276839,0.00029743,0.00114401,0.00014771,-
 0.00370097,-0.00157836,0.00086750,0.00033480,0.00029171,-0.00003703,0.
 00006069,0.00001886,-0.00006527,0.00036142,0.00001523,0.00006431,0.000
 03068,-0.00003966,0.00009396,-0.00010367,-0.00026107,-0.00038106,0.000
 51482,0.00074678,-0.00374772,0.01115968,0.00445392,-0.01027750,0.00588
 033,-0.00720887,-0.00644016,-0.00463623,-0.00394294,0.00018823,-0.0003
 7715,-0.00076688,0.00099967,0.00065693,0.00071571,0.00003988,-0.000332
 49,0.00039588,-0.00034949,0.00017321,-0.00094170,-0.00011546,0.0000593
 1,-0.00011912,0.00004371,0.00008665,-0.00003208,0.00007720,-0.00003171
 ,0.00121640,-0.00021498,0.00006130,0.00001303,-0.00060789,-0.00012907,
 0.00023237,0.00030341,-0.00001250,0.00000189,0.60195718,-0.00079052,-0
 .00072690,-0.00077468,0.00036596,0.00014665,0.00036182,-0.00010562,-0.
 00001849,-0.00001896,0.00042008,0.00003436,0.00017134,-0.00032681,0.00
 000321,-0.00011083,0.00144284,0.00063565,0.00056736,-0.00629660,-0.002
 70816,-0.00273312,-0.00008813,-0.00060457,-0.00066466,-0.00058213,0.00
 012507,0.00038279,-0.00015242,0.00018632,0.00003809,-0.00015441,0.0002
 6402,-0.00021139,0.00013096,0.00003759,0.00000947,0.00113848,0.0006189
 8,0.00020118,0.00073301,-0.00034775,-0.00028262,0.01481345,-0.00951710
 ,-0.00580446,0.00190446,0.00444322,0.00166907,-0.00763625,-0.00318270,
 0.00470849,-0.00066760,0.00048339,0.00112203,0.00192204,-0.00128870,0.
 00050120,0.00031004,-0.00028647,-0.00048376,-0.00006334,0.00038845,0.0
 0051902,0.00006514,-0.00000153,0.00015325,-0.00001667,0.00004917,0.000
 01993,0.00004213,-0.00022441,-0.00044163,0.00035351,-0.00001019,0.0001
 1762,0.00078431,0.00031465,0.00000905,-0.00029589,-0.00001959,-0.00008
 095,0.10890281,0.12318115,-0.00021842,-0.00033351,-0.00136601,-0.00075
 698,0.00068939,0.00079322,-0.00001482,-0.00000554,-0.00002906,0.000006
 65,0.00001028,0.00016298,0.00007674,-0.00002362,-0.00008937,0.00107628
 ,0.00009007,0.00014841,-0.00449364,-0.00143005,-0.00249884,0.00066810,
 -0.00383139,-0.00247865,0.00037693,0.00038340,0.00074303,-0.00010152,0
 .00005985,0.00004922,-0.00004909,0.00014259,0.00003123,0.00006848,0.00
 003530,-0.00005519,0.00045521,0.00036801,0.00015634,0.00040060,-0.0000
 8880,0.00056503,0.00969734,-0.00785383,0.00167248,-0.00786124,0.004045
 96,0.00102078,-0.00626774,0.00252586,-0.00394375,-0.00047708,0.0003623
 2,0.00041196,-0.00056998,0.00049372,-0.00071172,0.00044695,-0.00055225
 ,-0.00024009,-0.00045867,0.00047510,-0.00010725,-0.00007411,0.00004689
 ,0.00005896,0.00001599,0.00005637,0.00003052,0.00031005,-0.00017396,0.
 00048700,0.00018431,0.00001660,0.00016493,0.00023699,0.00001341,0.0003
 8821,-0.00005793,0.00000132,-0.00014423,0.09463694,-0.13809675,0.38273
 928,-0.00016095,-0.00008740,-0.00003173,0.00014010,-0.00005426,-0.0000
 1169,-0.00002546,-0.00000289,-0.00000131,0.00010640,-0.00000117,0.0000
 2537,-0.00008908,0.00000941,-0.00001620,0.00011265,0.00015946,0.000149
 23,-0.00084748,-0.00036178,-0.00033552,-0.00011142,0.00002608,0.000013
 21,-0.00015056,0.00010341,0.00004589,-0.00001621,0.00001222,0.00000503
 ,-0.00004553,0.00010298,-0.00006301,0.00003387,-0.00000310,0.00001263,
 0.00014485,0.00011269,0.00002500,0.00010097,-0.00010423,-0.00014467,0.
 00188661,-0.00043806,-0.00059328,-0.00010722,0.00067437,-0.00079958,-0
 .00331130,0.00046866,0.00191015,-0.00007664,0.00010316,0.00017578,0.00
 024050,-0.00009034,0.00011340,0.00003339,-0.00000961,-0.00007066,0.000
 02706,0.00001247,0.00006747,0.00002605,-0.00000341,0.00002812,-0.00000
 958,0.00000379,-0.00000157,-0.00006606,-0.00000301,-0.00008591,0.00006
 029,-0.00001025,0.00000749,0.00015354,0.00004132,-0.00003542,-0.000070
 10,0.00000195,-0.00000575,-0.41051312,-0.14523707,0.06682064,0.4367557
 1,0.00014708,0.00007641,0.00005949,-0.00006434,-0.00003143,-0.00004106
 ,0.00002101,0.00000501,0.00000280,-0.00007886,-0.00000756,-0.00002791,
 0.00006192,-0.00000020,0.00001722,-0.00009474,-0.00002848,-0.00011005,
 0.00045960,0.00021880,0.00025701,0.00008885,0.00043816,0.00001680,0.00
 008031,-0.00009007,-0.00004014,0.00002752,-0.00003935,0.00000664,0.000
 04423,-0.00011581,0.00008297,-0.00004428,-0.00000921,-0.00000586,-0.00
 020899,-0.00007462,-0.00000051,-0.00007367,0.00001171,0.00006629,-0.00
 101688,-0.00227963,-0.00018935,0.00065720,-0.00077299,0.00066679,0.003
 19892,0.00330684,-0.00015315,0.00007923,-0.00002665,-0.00010188,-0.000
 11023,0.00003695,-0.00000534,-0.00003960,0.00010846,0.00008691,0.00002
 950,-0.00011069,-0.00006896,-0.00001493,-0.00000697,-0.00002362,0.0000
 0135,-0.00002695,0.00000104,-0.00000236,0.00006940,0.00004064,-0.00003
 673,0.00000113,-0.00000920,-0.00013210,-0.00005302,0.00000908,0.000052
 79,0.00000427,0.00001275,-0.17268261,-0.07314015,0.04579769,0.15894011
 ,0.07015753,0.00001575,0.00003146,0.00010422,-0.00000363,-0.00004391,-
 0.00011840,-0.00000128,0.00000032,0.00000731,0.00000616,-0.00000573,-0
 .00002259,-0.00000917,0.00000813,0.00001451,-0.00007938,-0.00002166,0.
 00007084,0.00005982,0.00028894,0.00012617,-0.00025542,-0.00009168,-0.0
 0012272,-0.00000354,0.00011089,0.00003908,0.00002466,-0.00000865,-0.00
 001396,-0.00001444,0.00007558,0.00001712,0.00000834,-0.00000934,0.0000
 0533,-0.00016067,-0.00002467,0.00000796,-0.00002059,-0.00003153,-0.000
 13257,-0.00060527,-0.00160492,-0.00050731,-0.00136647,0.00123669,-0.00
 133110,0.00285196,0.00300931,0.00014596,0.00006443,0.00000658,0.000056
 67,0.00031242,-0.00005508,0.00009452,-0.00004909,0.00004191,0.00007660
 ,0.00004931,-0.00005249,-0.00012050,0.00001417,-0.00000111,-0.00001096
 ,-0.00000193,0.00000655,-0.00001045,-0.00009425,0.00001678,0.00009448,
 -0.00000375,-0.00000808,-0.00000735,-0.00000338,-0.00001111,-0.0000473
 3,-0.00000205,0.00000382,0.00001929,0.11963454,0.05978760,-0.06959659,
 -0.08241754,-0.04695627,0.06150829,-0.00038389,0.00005633,0.00140083,0
 .00186325,-0.00121467,-0.00078553,-0.00008477,-0.00000307,0.00000999,0
 .00045271,-0.00000747,-0.00002470,-0.00047813,0.00004849,-0.00000794,-
 0.00079657,0.00061286,0.00023789,0.00256025,-0.00007354,0.00165445,-0.
 00114766,0.00855161,0.00372756,-0.00120933,-0.00070791,-0.00104719,0.0
 0010309,-0.00014711,-0.00003396,0.00019972,-0.00074901,-0.00006201,-0.
 00011866,-0.00005472,0.00010305,-0.00046957,-0.00025053,0.00010446,-0.
 00007771,-0.00041102,-0.00113229,-0.00455136,0.00216481,-0.00057220,0.
 00184421,-0.00799233,0.00167786,0.00622119,-0.00321102,0.00061647,0.00
 027252,0.00000828,0.00012147,-0.00326562,-0.00107915,-0.00159706,-0.00
 036647,0.00075161,-0.00033186,0.00074032,-0.00047340,0.00127582,0.0001
 5878,-0.00009783,0.00009403,-0.00005662,-0.00014484,0.00002890,-0.0002
 7892,0.00011501,-0.00199038,0.00003925,-0.00006487,-0.00016199,0.00036
 081,0.00013068,-0.00053327,-0.00024093,0.00000235,0.00010615,-0.174178
 98,0.02908426,-0.15407702,-0.02422131,0.01071070,-0.03794969,0.1971103
 9,0.00036582,0.00015879,-0.00017964,-0.00042992,0.00022329,0.00010729,
 0.00005226,0.00000842,0.00000215,-0.00022944,-0.00001558,-0.00003972,0
 .00021197,-0.00001318,0.00002774,0.00006212,-0.00028452,-0.00013372,0.
 00199883,0.00034322,-0.00040316,0.00243354,-0.00180253,0.00036567,0.00
 043633,-0.00024859,-0.00006061,0.00000752,-0.00003983,0.00000131,0.000
 19834,-0.00029564,0.00018683,-0.00007096,0.00001703,-0.00002301,-0.000
 26451,-0.00015142,-0.00001438,-0.00020719,0.00021151,0.00045770,-0.000
 89013,-0.00000009,0.00215946,-0.00150931,-0.00598031,-0.00082017,-0.00
 109619,-0.00019798,-0.00616083,0.00010174,-0.00013056,-0.00034932,-0.0
 0399860,0.00229663,-0.00097556,-0.00002241,-0.00001026,0.00025034,-0.0
 0018285,-0.00010182,-0.00053241,-0.00006503,0.00001161,-0.00007699,0.0
 0001857,-0.00002010,-0.00000333,0.00007127,0.00017106,0.00068161,-0.00
 009227,0.00001324,0.00001620,-0.00033575,-0.00015422,0.00014038,0.0001
 4265,0.00001531,-0.00000440,0.05321358,-0.03883516,0.09677558,-0.01436
 551,0.00237910,-0.01569834,-0.03555447,0.04243258,0.00008651,0.0001039
 5,0.00106011,0.00090762,-0.00064675,-0.00058613,-0.00000403,0.00000302
 ,0.00001773,0.00006707,0.00000230,-0.00010690,-0.00013181,0.00001344,0
 .00005236,-0.00031365,0.00016996,-0.00017376,0.00359429,-0.00088255,0.
 00133933,0.00150757,0.00381549,0.00285701,-0.00044428,-0.00071902,-0.0
 0085462,0.00001481,0.00004818,0.00001190,-0.00004863,-0.00014693,-0.00
 000616,-0.00006771,-0.00000309,0.00003592,-0.00008603,-0.00002646,-0.0
 0028445,-0.00026555,0.00003790,-0.00033362,-0.00335879,0.00274564,0.00
 131834,-0.00060517,-0.00308358,-0.00678753,0.00162205,-0.00505160,-0.0
 0715545,0.00026613,-0.00022707,-0.00029648,0.00146236,-0.00063175,0.00
 115427,-0.00031557,0.00042607,0.00011058,0.00033699,-0.00034340,0.0000
 8516,0.00007052,-0.00004667,-0.00002883,-0.00001703,-0.00004408,-0.000
 01706,-0.00037656,0.00016484,-0.00041257,-0.00009545,-0.00001374,-0.00
 012388,-0.00009848,0.00006236,-0.00032562,0.00000470,-0.00000344,0.000
 10945,-0.20807446,0.07936448,-0.30836282,0.01521442,0.00060920,0.00965
 347,0.18914816,-0.07569667,0.30805026\\0.00000921,0.00000335,0.0000027
 6,0.00000276,-0.00000563,0.00000378,0.00000152,0.00000729,0.00000452,-
 0.00000736,0.00000199,0.00000876,0.00000900,0.00000721,0.00000372,-0.0
 0000824,-0.00000336,-0.00000635,0.00000633,-0.00000623,-0.00000581,-0.
 00000597,0.00000037,0.00000671,0.00000165,0.00000804,0.00000094,0.0000
 0423,0.00000008,0.00000203,0.00000197,0.00000081,0.00000135,-0.0000045
 7,0.00000157,-0.00000410,-0.00000035,-0.00000208,0.00000091,0.00000352
 ,0.00000005,0.00000548,0.00000676,0.00000581,-0.00000407,0.00000329,0.
 00000336,-0.00000229,-0.00000072,-0.00002226,-0.00000638,0.00000395,-0
 .00000885,-0.00000113,0.00000308,-0.00000600,0.00000303,-0.00000861,0.
 00000626,-0.00000276,-0.00000016,0.00000390,-0.00000376,-0.00000347,0.
 00000842,0.00000447,-0.00000130,0.00000244,-0.00000041,-0.00000046,-0.
 00000282,-0.00000132,0.00000402,-0.00000039,0.00000687,0.00000518,0.00
 000163,0.00000159,-0.00000067,0.00000600,0.00000007,0.00000249,-0.0000
 1254,-0.00000027,-0.00000379,0.00000014,-0.00000318,-0.00002329,0.0000
 0143,-0.00001516\\\@


 WE LEARN WISDOM FROM FAILURE MUCH MORE THAN FROM SUCCESS.
 WE DISCOVER WHAT WILL DO BY FINDING OUT WHAT WILL NOT DO...
 AND HE WHO NEVER MADE A MISTAKE NEVER MADE A DISCOVERY
 Job cpu time:       0 days  0 hours 50 minutes 39.7 seconds.
 File lengths (MBytes):  RWF=    220 Int=      0 D2E=      0 Chk=     10 Scr=      1
 Normal termination of Gaussian 09 at Wed Jun  8 21:28:55 2016.
