 Entering Gaussian System, Link 0=g09
 Initial command:
 /global/software/gaussian/g09.e01/l1.exe "/scratch/10464855.yak.local/Gau-10188.inp" -scrdir="/scratch/10464855.yak.local/"
 Entering Link 1 = /global/software/gaussian/g09.e01/l1.exe PID=     10189.
  
 Copyright (c) 1988,1990,1992,1993,1995,1998,2003,2009,2015,
            Gaussian, Inc.  All Rights Reserved.
  
 This is part of the Gaussian(R) 09 program.  It is based on
 the Gaussian(R) 03 system (copyright 2003, Gaussian, Inc.),
 the Gaussian(R) 98 system (copyright 1998, Gaussian, Inc.),
 the Gaussian(R) 94 system (copyright 1995, Gaussian, Inc.),
 the Gaussian 92(TM) system (copyright 1992, Gaussian, Inc.),
 the Gaussian 90(TM) system (copyright 1990, Gaussian, Inc.),
 the Gaussian 88(TM) system (copyright 1988, Gaussian, Inc.),
 the Gaussian 86(TM) system (copyright 1986, Carnegie Mellon
 University), and the Gaussian 82(TM) system (copyright 1983,
 Carnegie Mellon University). Gaussian is a federally registered
 trademark of Gaussian, Inc.
  
 This software contains proprietary and confidential information,
 including trade secrets, belonging to Gaussian, Inc.
  
 This software is provided under written license and may be
 used, copied, transmitted, or stored only in accord with that
 written license.
  
 The following legend is applicable only to US Government
 contracts under FAR:
  
                    RESTRICTED RIGHTS LEGEND
  
 Use, reproduction and disclosure by the US Government is
 subject to restrictions as set forth in subparagraphs (a)
 and (c) of the Commercial Computer Software - Restricted
 Rights clause in FAR 52.227-19.
  
 Gaussian, Inc.
 340 Quinnipiac St., Bldg. 40, Wallingford CT 06492
  
  
 ---------------------------------------------------------------
 Warning -- This program may not be used in any manner that
 competes with the business of Gaussian, Inc. or will provide
 assistance to any competitor of Gaussian, Inc.  The licensee
 of this program is prohibited from giving any competitor of
 Gaussian, Inc. access to this program.  By using this program,
 the user acknowledges that Gaussian, Inc. is engaged in the
 business of creating and licensing software in the field of
 computational chemistry and represents and warrants to the
 licensee that it is not a competitor of Gaussian, Inc. and that
 it will not use this program in any manner prohibited above.
 ---------------------------------------------------------------
  

 Cite this work as:
 Gaussian 09, Revision E.01,
 M. J. Frisch, G. W. Trucks, H. B. Schlegel, G. E. Scuseria, 
 M. A. Robb, J. R. Cheeseman, G. Scalmani, V. Barone, B. Mennucci, 
 G. A. Petersson, H. Nakatsuji, M. Caricato, X. Li, H. P. Hratchian, 
 A. F. Izmaylov, J. Bloino, G. Zheng, J. L. Sonnenberg, M. Hada, 
 M. Ehara, K. Toyota, R. Fukuda, J. Hasegawa, M. Ishida, T. Nakajima, 
 Y. Honda, O. Kitao, H. Nakai, T. Vreven, J. A. Montgomery, Jr., 
 J. E. Peralta, F. Ogliaro, M. Bearpark, J. J. Heyd, E. Brothers, 
 K. N. Kudin, V. N. Staroverov, T. Keith, R. Kobayashi, J. Normand, 
 K. Raghavachari, A. Rendell, J. C. Burant, S. S. Iyengar, J. Tomasi, 
 M. Cossi, N. Rega, J. M. Millam, M. Klene, J. E. Knox, J. B. Cross, 
 V. Bakken, C. Adamo, J. Jaramillo, R. Gomperts, R. E. Stratmann, 
 O. Yazyev, A. J. Austin, R. Cammi, C. Pomelli, J. W. Ochterski, 
 R. L. Martin, K. Morokuma, V. G. Zakrzewski, G. A. Voth, 
 P. Salvador, J. J. Dannenberg, S. Dapprich, A. D. Daniels, 
 O. Farkas, J. B. Foresman, J. V. Ortiz, J. Cioslowski, 
 and D. J. Fox, Gaussian, Inc., Wallingford CT, 2013.
 
 ******************************************
 Gaussian 09:  ES64L-G09RevE.01 30-Nov-2015
                15-Jan-2017 
 ******************************************
 -------------------------
 # b3lyp/6-31g(d) opt freq
 -------------------------
 1/14=-1,18=20,19=15,26=3,38=1/1,3;
 2/9=110,12=2,17=6,18=5,40=1/2;
 3/5=1,6=6,7=1,11=2,16=1,25=1,30=1,71=1,74=-5/1,2,3;
 4//1;
 5/5=2,38=5/2;
 6/7=2,8=2,9=2,10=2,28=1/1;
 7//1,2,3,16;
 1/14=-1,18=20,19=15,26=3/3(2);
 2/9=110/2;
 99//99;
 2/9=110/2;
 3/5=1,6=6,7=1,11=2,16=1,25=1,30=1,71=1,74=-5/1,2,3;
 4/5=5,16=3,69=1/1;
 5/5=2,38=5/2;
 7//1,2,3,16;
 1/14=-1,18=20,19=15,26=3/3(-5);
 2/9=110/2;
 6/7=2,8=2,9=2,10=2,19=2,28=1/1;
 99/9=1/99;
 ----------------------------------
 glo_1w_beta_ircf_boat5_B3LYP_631Gd
 ----------------------------------
 Symbolic Z-matrix:
 Charge =  0 Multiplicity = 1
 8                     1.16373   0.69571  -0.49481 
 6                     0.53129  -1.0751    1.02686 
 6                    -1.26594   0.59001   0.00153 
 6                    -0.91638  -0.83018   0.54359 
 6                    -0.13963   1.56858   0.26786 
 6                     1.60083  -0.52216   0.0844 
 1                    -1.5758   -0.98624   1.41163 
 1                     2.50632  -0.36641   0.69698 
 1                     0.68885  -2.16172   1.12253 
 1                    -1.32934   0.51612  -1.09274 
 6                     1.93562  -1.49971  -1.06233 
 1                     2.67892  -1.02924  -1.72214 
 1                     1.03314  -1.68277  -1.64891 
 1                     0.2252    1.60997   1.29606 
 8                    -0.21161   2.72273  -0.38028 
 8                     2.3751   -2.77484  -0.59952 
 1                     3.23729  -2.6555   -0.17086 
 8                    -2.47204   1.06281   0.56171 
 1                    -3.18726   0.5409    0.13244 
 8                    -1.28057  -1.76019  -0.49875 
 1                    -1.11422  -2.662    -0.17778 
 8                     0.73941  -0.44257   2.29252 
 1                     0.05321  -0.7519    2.90573 
 8                     2.21199   2.88016  -0.49648 
 1                     2.04974   1.88608  -0.55213 
 1                     2.44791   3.15078  -1.39655 
 1                     0.72366   3.11375  -0.34162 
 8                    -3.91932  -0.84466  -0.88981 
 1                    -3.08159  -1.35529  -0.90298 
 1                    -4.03182  -0.53388  -1.80098 
 
 Add virtual bond connecting atoms O24        and H27        Dist= 2.86D+00.
 Add virtual bond connecting atoms H25        and O1         Dist= 2.81D+00.
 Add virtual bond connecting atoms O28        and H19        Dist= 3.54D+00.
 Add virtual bond connecting atoms H29        and O20        Dist= 3.57D+00.

 GradGradGradGradGradGradGradGradGradGradGradGradGradGradGradGradGradGrad
 Berny optimization.
 Initialization pass.
                           ----------------------------
                           !    Initial Parameters    !
                           ! (Angstroms and Degrees)  !
 --------------------------                            --------------------------
 ! Name  Definition              Value          Derivative Info.                !
 --------------------------------------------------------------------------------
 ! R1    R(1,6)                  1.4177         estimate D2E/DX2                !
 ! R2    R(1,25)                 1.485          estimate D2E/DX2                !
 ! R3    R(2,4)                  1.5457         estimate D2E/DX2                !
 ! R4    R(2,6)                  1.529          estimate D2E/DX2                !
 ! R5    R(2,9)                  1.1021         estimate D2E/DX2                !
 ! R6    R(2,22)                 1.4301         estimate D2E/DX2                !
 ! R7    R(3,4)                  1.5598         estimate D2E/DX2                !
 ! R8    R(3,5)                  1.5156         estimate D2E/DX2                !
 ! R9    R(3,10)                 1.0986         estimate D2E/DX2                !
 ! R10   R(3,18)                 1.4114         estimate D2E/DX2                !
 ! R11   R(4,7)                  1.1012         estimate D2E/DX2                !
 ! R12   R(4,20)                 1.4436         estimate D2E/DX2                !
 ! R13   R(5,14)                 1.0918         estimate D2E/DX2                !
 ! R14   R(5,15)                 1.3256         estimate D2E/DX2                !
 ! R15   R(6,8)                  1.1043         estimate D2E/DX2                !
 ! R16   R(6,11)                 1.5436         estimate D2E/DX2                !
 ! R17   R(11,12)                1.0996         estimate D2E/DX2                !
 ! R18   R(11,13)                1.0918         estimate D2E/DX2                !
 ! R19   R(11,16)                1.4259         estimate D2E/DX2                !
 ! R20   R(15,27)                1.0145         estimate D2E/DX2                !
 ! R21   R(16,17)                0.9702         estimate D2E/DX2                !
 ! R22   R(18,19)                0.984          estimate D2E/DX2                !
 ! R23   R(19,28)                1.871          estimate D2E/DX2                !
 ! R24   R(20,21)                0.9716         estimate D2E/DX2                !
 ! R25   R(20,29)                1.8897         estimate D2E/DX2                !
 ! R26   R(22,23)                0.9709         estimate D2E/DX2                !
 ! R27   R(24,25)                1.0088         estimate D2E/DX2                !
 ! R28   R(24,26)                0.969          estimate D2E/DX2                !
 ! R29   R(24,27)                1.5145         estimate D2E/DX2                !
 ! R30   R(28,29)                0.9812         estimate D2E/DX2                !
 ! R31   R(28,30)                0.9693         estimate D2E/DX2                !
 ! A1    A(6,1,25)             121.3615         estimate D2E/DX2                !
 ! A2    A(4,2,6)              113.8981         estimate D2E/DX2                !
 ! A3    A(4,2,9)              108.496          estimate D2E/DX2                !
 ! A4    A(4,2,22)             110.0539         estimate D2E/DX2                !
 ! A5    A(6,2,9)              108.0618         estimate D2E/DX2                !
 ! A6    A(6,2,22)             106.4847         estimate D2E/DX2                !
 ! A7    A(9,2,22)             109.7814         estimate D2E/DX2                !
 ! A8    A(4,3,5)              111.1163         estimate D2E/DX2                !
 ! A9    A(4,3,10)             107.3283         estimate D2E/DX2                !
 ! A10   A(4,3,18)             111.0137         estimate D2E/DX2                !
 ! A11   A(5,3,10)             105.1497         estimate D2E/DX2                !
 ! A12   A(5,3,18)             110.4267         estimate D2E/DX2                !
 ! A13   A(10,3,18)            111.6264         estimate D2E/DX2                !
 ! A14   A(2,4,3)              117.5685         estimate D2E/DX2                !
 ! A15   A(2,4,7)              106.9727         estimate D2E/DX2                !
 ! A16   A(2,4,20)             111.0965         estimate D2E/DX2                !
 ! A17   A(3,4,7)              105.591          estimate D2E/DX2                !
 ! A18   A(3,4,20)             106.2071         estimate D2E/DX2                !
 ! A19   A(7,4,20)             109.0736         estimate D2E/DX2                !
 ! A20   A(3,5,14)             115.9947         estimate D2E/DX2                !
 ! A21   A(3,5,15)             115.8409         estimate D2E/DX2                !
 ! A22   A(14,5,15)            116.4605         estimate D2E/DX2                !
 ! A23   A(1,6,2)              110.2933         estimate D2E/DX2                !
 ! A24   A(1,6,8)              110.9957         estimate D2E/DX2                !
 ! A25   A(1,6,11)             107.902          estimate D2E/DX2                !
 ! A26   A(2,6,8)              106.419          estimate D2E/DX2                !
 ! A27   A(2,6,11)             112.3713         estimate D2E/DX2                !
 ! A28   A(8,6,11)             108.8801         estimate D2E/DX2                !
 ! A29   A(6,11,12)            108.749          estimate D2E/DX2                !
 ! A30   A(6,11,13)            109.0285         estimate D2E/DX2                !
 ! A31   A(6,11,16)            113.0817         estimate D2E/DX2                !
 ! A32   A(12,11,13)           107.945          estimate D2E/DX2                !
 ! A33   A(12,11,16)           111.6541         estimate D2E/DX2                !
 ! A34   A(13,11,16)           106.2121         estimate D2E/DX2                !
 ! A35   A(5,15,27)            105.4795         estimate D2E/DX2                !
 ! A36   A(11,16,17)           107.8953         estimate D2E/DX2                !
 ! A37   A(3,18,19)            105.6826         estimate D2E/DX2                !
 ! A38   A(18,19,28)           156.2836         estimate D2E/DX2                !
 ! A39   A(4,20,21)            108.4361         estimate D2E/DX2                !
 ! A40   A(4,20,29)            104.8833         estimate D2E/DX2                !
 ! A41   A(21,20,29)           115.6407         estimate D2E/DX2                !
 ! A42   A(2,22,23)            108.373          estimate D2E/DX2                !
 ! A43   A(25,24,26)           105.2553         estimate D2E/DX2                !
 ! A44   A(25,24,27)            89.9757         estimate D2E/DX2                !
 ! A45   A(26,24,27)           106.9274         estimate D2E/DX2                !
 ! A46   A(1,25,24)            152.0972         estimate D2E/DX2                !
 ! A47   A(15,27,24)           147.4236         estimate D2E/DX2                !
 ! A48   A(19,28,29)            93.3633         estimate D2E/DX2                !
 ! A49   A(19,28,30)           108.759          estimate D2E/DX2                !
 ! A50   A(29,28,30)           104.6756         estimate D2E/DX2                !
 ! A51   A(20,29,28)           157.2743         estimate D2E/DX2                !
 ! D1    D(25,1,6,2)           133.4221         estimate D2E/DX2                !
 ! D2    D(25,1,6,8)            15.7306         estimate D2E/DX2                !
 ! D3    D(25,1,6,11)         -103.4923         estimate D2E/DX2                !
 ! D4    D(6,1,25,24)         -141.909          estimate D2E/DX2                !
 ! D5    D(6,2,4,3)            -44.8891         estimate D2E/DX2                !
 ! D6    D(6,2,4,7)           -163.3362         estimate D2E/DX2                !
 ! D7    D(6,2,4,20)            77.7196         estimate D2E/DX2                !
 ! D8    D(9,2,4,3)           -165.2744         estimate D2E/DX2                !
 ! D9    D(9,2,4,7)             76.2786         estimate D2E/DX2                !
 ! D10   D(9,2,4,20)           -42.6657         estimate D2E/DX2                !
 ! D11   D(22,2,4,3)            74.5926         estimate D2E/DX2                !
 ! D12   D(22,2,4,7)           -43.8544         estimate D2E/DX2                !
 ! D13   D(22,2,4,20)         -162.7987         estimate D2E/DX2                !
 ! D14   D(4,2,6,1)             36.0705         estimate D2E/DX2                !
 ! D15   D(4,2,6,8)            156.5491         estimate D2E/DX2                !
 ! D16   D(4,2,6,11)           -84.3672         estimate D2E/DX2                !
 ! D17   D(9,2,6,1)            156.6991         estimate D2E/DX2                !
 ! D18   D(9,2,6,8)            -82.8223         estimate D2E/DX2                !
 ! D19   D(9,2,6,11)            36.2614         estimate D2E/DX2                !
 ! D20   D(22,2,6,1)           -85.4134         estimate D2E/DX2                !
 ! D21   D(22,2,6,8)            35.0652         estimate D2E/DX2                !
 ! D22   D(22,2,6,11)          154.1489         estimate D2E/DX2                !
 ! D23   D(4,2,22,23)           54.1528         estimate D2E/DX2                !
 ! D24   D(6,2,22,23)          178.0543         estimate D2E/DX2                !
 ! D25   D(9,2,22,23)          -65.1994         estimate D2E/DX2                !
 ! D26   D(5,3,4,2)             -9.5981         estimate D2E/DX2                !
 ! D27   D(5,3,4,7)            109.5827         estimate D2E/DX2                !
 ! D28   D(5,3,4,20)          -134.6695         estimate D2E/DX2                !
 ! D29   D(10,3,4,2)           104.8563         estimate D2E/DX2                !
 ! D30   D(10,3,4,7)          -135.963          estimate D2E/DX2                !
 ! D31   D(10,3,4,20)          -20.2152         estimate D2E/DX2                !
 ! D32   D(18,3,4,2)          -132.906          estimate D2E/DX2                !
 ! D33   D(18,3,4,7)           -13.7252         estimate D2E/DX2                !
 ! D34   D(18,3,4,20)          102.0226         estimate D2E/DX2                !
 ! D35   D(4,3,5,14)           -51.1868         estimate D2E/DX2                !
 ! D36   D(4,3,5,15)           166.9108         estimate D2E/DX2                !
 ! D37   D(10,3,5,14)         -166.994          estimate D2E/DX2                !
 ! D38   D(10,3,5,15)           51.1036         estimate D2E/DX2                !
 ! D39   D(18,3,5,14)           72.4568         estimate D2E/DX2                !
 ! D40   D(18,3,5,15)          -69.4456         estimate D2E/DX2                !
 ! D41   D(4,3,18,19)          -72.8271         estimate D2E/DX2                !
 ! D42   D(5,3,18,19)          163.4699         estimate D2E/DX2                !
 ! D43   D(10,3,18,19)          46.8771         estimate D2E/DX2                !
 ! D44   D(2,4,20,21)           53.6555         estimate D2E/DX2                !
 ! D45   D(2,4,20,29)          177.7505         estimate D2E/DX2                !
 ! D46   D(3,4,20,21)         -177.3886         estimate D2E/DX2                !
 ! D47   D(3,4,20,29)          -53.2936         estimate D2E/DX2                !
 ! D48   D(7,4,20,21)          -64.0197         estimate D2E/DX2                !
 ! D49   D(7,4,20,29)           60.0753         estimate D2E/DX2                !
 ! D50   D(3,5,15,27)         -161.8824         estimate D2E/DX2                !
 ! D51   D(14,5,15,27)          56.3957         estimate D2E/DX2                !
 ! D52   D(1,6,11,12)           56.0613         estimate D2E/DX2                !
 ! D53   D(1,6,11,13)          -61.4059         estimate D2E/DX2                !
 ! D54   D(1,6,11,16)         -179.3109         estimate D2E/DX2                !
 ! D55   D(2,6,11,12)          177.8704         estimate D2E/DX2                !
 ! D56   D(2,6,11,13)           60.4032         estimate D2E/DX2                !
 ! D57   D(2,6,11,16)          -57.5018         estimate D2E/DX2                !
 ! D58   D(8,6,11,12)          -64.4968         estimate D2E/DX2                !
 ! D59   D(8,6,11,13)          178.036          estimate D2E/DX2                !
 ! D60   D(8,6,11,16)           60.131          estimate D2E/DX2                !
 ! D61   D(6,11,16,17)         -67.5823         estimate D2E/DX2                !
 ! D62   D(12,11,16,17)         55.4502         estimate D2E/DX2                !
 ! D63   D(13,11,16,17)        172.88           estimate D2E/DX2                !
 ! D64   D(5,15,27,24)          45.6774         estimate D2E/DX2                !
 ! D65   D(3,18,19,28)          12.506          estimate D2E/DX2                !
 ! D66   D(18,19,28,29)         12.2209         estimate D2E/DX2                !
 ! D67   D(18,19,28,30)        -94.5161         estimate D2E/DX2                !
 ! D68   D(4,20,29,28)          11.014          estimate D2E/DX2                !
 ! D69   D(21,20,29,28)        130.3897         estimate D2E/DX2                !
 ! D70   D(26,24,25,1)        -112.455          estimate D2E/DX2                !
 ! D71   D(27,24,25,1)          -4.8965         estimate D2E/DX2                !
 ! D72   D(25,24,27,15)        -10.2348         estimate D2E/DX2                !
 ! D73   D(26,24,27,15)         95.7217         estimate D2E/DX2                !
 ! D74   D(19,28,29,20)          2.7291         estimate D2E/DX2                !
 ! D75   D(30,28,29,20)        113.1184         estimate D2E/DX2                !
 --------------------------------------------------------------------------------
 Trust Radius=3.00D-01 FncErr=1.00D-07 GrdErr=1.00D-06
 Number of steps in this run=    167 maximum allowed number of steps=    180.
 GradGradGradGradGradGradGradGradGradGradGradGradGradGradGradGradGradGrad

                          Input orientation:                          
 ---------------------------------------------------------------------
 Center     Atomic      Atomic             Coordinates (Angstroms)
 Number     Number       Type             X           Y           Z
 ---------------------------------------------------------------------
      1          8           0        1.163732    0.695705   -0.494808
      2          6           0        0.531291   -1.075097    1.026859
      3          6           0       -1.265941    0.590007    0.001532
      4          6           0       -0.916379   -0.830180    0.543585
      5          6           0       -0.139634    1.568579    0.267858
      6          6           0        1.600832   -0.522164    0.084403
      7          1           0       -1.575803   -0.986244    1.411632
      8          1           0        2.506320   -0.366408    0.696977
      9          1           0        0.688845   -2.161718    1.122528
     10          1           0       -1.329342    0.516119   -1.092744
     11          6           0        1.935618   -1.499705   -1.062328
     12          1           0        2.678923   -1.029242   -1.722136
     13          1           0        1.033144   -1.682772   -1.648914
     14          1           0        0.225198    1.609969    1.296059
     15          8           0       -0.211605    2.722733   -0.380279
     16          8           0        2.375104   -2.774843   -0.599518
     17          1           0        3.237291   -2.655495   -0.170858
     18          8           0       -2.472036    1.062809    0.561712
     19          1           0       -3.187261    0.540897    0.132437
     20          8           0       -1.280566   -1.760187   -0.498747
     21          1           0       -1.114216   -2.662000   -0.177783
     22          8           0        0.739407   -0.442569    2.292523
     23          1           0        0.053214   -0.751898    2.905730
     24          8           0        2.211985    2.880157   -0.496476
     25          1           0        2.049740    1.886076   -0.552133
     26          1           0        2.447911    3.150785   -1.396548
     27          1           0        0.723662    3.113746   -0.341617
     28          8           0       -3.919323   -0.844656   -0.889808
     29          1           0       -3.081594   -1.355287   -0.902979
     30          1           0       -4.031824   -0.533878   -1.800979
 ---------------------------------------------------------------------
                    Distance matrix (angstroms):
                    1          2          3          4          5
     1  O    0.000000
     2  C    2.418924   0.000000
     3  C    2.482103   2.655920   0.000000
     4  C    2.780908   1.545732   1.559790   0.000000
     5  C    1.744228   2.831121   1.515619   2.536415   0.000000
     6  C    1.417655   1.529011   3.076066   2.577222   2.726552
     7  H    3.737448   2.143779   2.137513   1.101227   3.146096
     8  H    2.085900   2.124100   3.953268   3.457381   3.305963
     9  H    3.317553   1.102144   3.556657   2.164466   3.915604
    10  H    2.570058   3.238308   1.098599   2.158850   2.091486
    11  C    2.395352   2.552867   3.968460   3.340824   3.935789
    12  H    2.603379   3.488753   4.599451   4.254329   4.318913
    13  H    2.646916   2.789424   3.629778   3.055259   3.952304
    14  H    2.218993   2.715832   2.222525   2.797095   1.091793
    15  O    2.452246   4.117699   2.409549   3.738104   1.325644
    16  O    3.677375   2.988961   4.994065   3.990271   5.093286
    17  H    3.954128   3.354791   5.553566   4.592949   5.425762
    18  O    3.803920   3.715774   1.411385   2.450266   2.404631
    19  H    4.398698   4.151994   1.926400   2.684362   3.219084
    20  O    3.464970   2.465694   2.402895   1.443607   3.601401
    21  H    4.069857   2.584012   3.260479   1.978655   4.364196
    22  O    3.040548   1.430143   3.215008   2.439396   2.986084
    23  H    3.859075   1.965495   3.460527   2.554597   3.518547
    24  O    2.422946   4.559530   4.193897   4.963365   2.799028
    25  H    1.485018   3.683402   3.602788   4.168514   2.359353
    26  H    2.913704   5.234922   4.722807   5.561533   3.459626
    27  H    2.462529   4.410911   3.231954   4.362095   1.871972
    28  O    5.325991   4.851256   3.145343   3.327536   4.631408
    29  H    4.732437   4.105572   2.810499   2.656396   4.309870
    30  H    5.496522   5.395517   3.487445   3.910342   4.883601
                    6          7          8          9         10
     6  C    0.000000
     7  H    3.473891   0.000000
     8  H    1.104271   4.190305   0.000000
     9  H    2.144192   2.567869   2.589874   0.000000
    10  H    3.324098   2.930825   4.323686   4.018870   0.000000
    11  C    1.543587   4.325991   2.169151   2.601211   3.837243
    12  H    2.164022   5.284415   2.514209   3.651715   4.341712
    13  H    2.161867   4.081507   3.066964   2.833518   3.275025
    14  H    2.811845   3.161848   3.077090   3.804038   3.052783
    15  O    3.745693   4.339181   4.253280   5.189133   2.574119
    16  O    2.478267   4.780531   2.738371   2.486933   4.979621
    17  H    2.700788   5.334468   2.554873   2.900214   5.635880
    18  O    4.396387   2.392533   5.181215   4.550083   2.083709
    19  H    4.904920   2.562283   5.792993   4.827899   2.225656
    20  O    3.189862   2.082235   4.208667   2.582313   2.353036
    21  H    3.466861   2.355305   4.375298   2.278622   3.314193
    22  O    2.371536   2.536089   2.381921   2.080125   4.081524
    23  H    3.226110   2.222823   3.323390   2.360387   4.416687
    24  O    3.505241   5.739100   3.471476   5.510139   4.299443
    25  H    2.531070   5.025053   2.615803   4.587065   3.686087
    26  H    4.049853   6.418034   4.093520   6.136998   4.615344
    27  H    3.764407   5.017105   4.045741   5.474984   3.395097
    28  O    5.614731   3.287668   6.635925   5.198015   2.932728
    29  H    4.857379   2.785861   5.895975   4.355367   2.570712
    30  H    5.939833   4.069096   7.001083   5.786318   2.984543
                   11         12         13         14         15
    11  C    0.000000
    12  H    1.099629   0.000000
    13  H    1.091813   1.772301   0.000000
    14  H    4.261173   4.700607   4.490856   0.000000
    15  O    4.785890   4.922707   4.750506   2.058920   0.000000
    16  O    1.425945   2.097546   2.023538   5.238500   6.079677
    17  H    1.955741   2.315802   2.826500   5.423904   6.392502
    18  O    5.350831   6.010409   4.971053   2.848459   2.958419
    19  H    5.642288   6.349558   5.092125   3.760559   3.725294
    20  O    3.275563   4.208149   2.584982   4.104462   4.610128
    21  H    3.381544   4.408949   2.781055   4.713381   5.463612
    22  O    3.715304   4.497043   4.142380   2.338859   4.250580
    23  H    4.455126   5.328078   4.750955   2.863396   4.789681
    24  O    4.424902   4.123551   4.851608   2.962074   2.431475
    25  H    3.425907   3.203726   3.869505   2.611705   2.417273
    26  H    4.690544   4.199047   5.042671   3.816373   2.879072
    27  H    4.824126   4.784687   4.981103   2.278551   1.014451
    28  O    5.893996   6.653096   5.079922   5.289636   5.170402
    29  H    5.021819   5.827596   4.194608   4.956146   5.014010
    30  H    6.090057   6.729467   5.195862   5.684185   5.217085
                   16         17         18         19         20
    16  O    0.000000
    17  H    0.970237   0.000000
    18  O    6.290532   6.852653   0.000000
    19  H    6.516885   7.182185   0.983980   0.000000
    20  O    3.795208   4.617371   3.242450   3.054319   0.000000
    21  H    3.516525   4.351517   4.032956   3.827832   0.971574
    22  O    4.059422   4.147856   3.946547   4.588235   3.688848
    23  H    4.665859   4.819484   3.894158   4.456810   3.792899
    24  O    5.658290   5.639213   5.134449   5.917730   5.807815
    25  H    4.672502   4.709726   4.729152   5.450167   4.938524
    26  H    5.979433   5.986512   5.692127   6.395661   6.230990
    27  H    6.121213   6.295366   3.903182   4.705273   5.272271
    28  O    6.590122   7.417085   2.799995   1.871004   2.820313
    29  H    5.646484   6.492677   2.892070   2.163045   1.889722
    30  H    6.893052   7.745875   3.250332   2.367810   3.281625
                   21         22         23         24         25
    21  H    0.000000
    22  O    3.803183   0.000000
    23  H    3.810438   0.970859   0.000000
    24  O    6.471529   4.581213   5.424677   0.000000
    25  H    5.552995   3.902772   4.785587   1.008771   0.000000
    26  H    6.925504   5.425903   6.282922   0.969036   1.571962
    27  H    6.063322   4.425643   5.092933   1.514480   1.819333
    28  O    3.417359   5.656206   5.495067   7.184837   6.572719
    29  H    2.470624   5.064024   4.969644   6.791628   6.079483
    30  H    3.959306   6.287268   6.236039   7.234813   6.663424
                   26         27         28         29         30
    26  H    0.000000
    27  H    2.021704   0.000000
    28  O    7.534056   6.125910   0.000000
    29  H    7.150085   5.896385   0.981177   0.000000
    30  H    7.465070   6.168431   0.969264   1.544038   0.000000
 Stoichiometry    C6H16O8
 Framework group  C1[X(C6H16O8)]
 Deg. of freedom    84
 Full point group                 C1      NOp   1
 Largest Abelian subgroup         C1      NOp   1
 Largest concise Abelian subgroup C1      NOp   1
                         Standard orientation:                         
 ---------------------------------------------------------------------
 Center     Atomic      Atomic             Coordinates (Angstroms)
 Number     Number       Type             X           Y           Z
 ---------------------------------------------------------------------
      1          8           0        1.165768    0.698027   -0.484331
      2          6           0        0.514267   -1.068976    1.033707
      3          6           0       -1.264643    0.618678    0.013307
      4          6           0       -0.930835   -0.806604    0.551909
      5          6           0       -0.127180    1.583841    0.281143
      6          6           0        1.589419   -0.526025    0.091833
      7          1           0       -1.591453   -0.957180    1.420017
      8          1           0        2.496983   -0.381915    0.704185
      9          1           0        0.659580   -2.157524    1.126806
     10          1           0       -1.329541    0.548007   -1.081093
     11          6           0        1.912431   -1.504671   -1.057330
     12          1           0        2.660608   -1.041140   -1.716537
     13          1           0        1.007588   -1.676184   -1.643758
     14          1           0        0.238722    1.618759    1.309204
     15          8           0       -0.186488    2.740210   -0.364323
     16          8           0        2.337750   -2.785749   -0.597698
     17          1           0        3.201492   -2.677136   -0.169315
     18          8           0       -2.464973    1.103809    0.575325
     19          1           0       -3.186316    0.590998    0.145318
     20          8           0       -1.306150   -1.730054   -0.492304
     21          1           0       -1.149814   -2.634420   -0.173496
     22          8           0        0.730292   -0.441729    2.300674
     23          1           0        0.041018   -0.744677    2.913611
     24          8           0        2.238656    2.870484   -0.481698
     25          1           0        2.065146    1.878431   -0.539511
     26          1           0        2.477081    3.140479   -1.381301
     27          1           0        0.753165    3.120534   -0.325365
     28          8           0       -3.934622   -0.783854   -0.879610
     29          1           0       -3.102729   -1.303894   -0.894472
     30          1           0       -4.044155   -0.469747   -1.790000
 ---------------------------------------------------------------------
 Rotational constants (GHZ):      0.6451712      0.5398392      0.3716375
 Standard basis: 6-31G(d) (6D, 7F)
 There are   242 symmetry adapted cartesian basis functions of A   symmetry.
 There are   242 symmetry adapted basis functions of A   symmetry.
   242 basis functions,   456 primitive gaussians,   242 cartesian basis functions
    58 alpha electrons       58 beta electrons
       nuclear repulsion energy      1104.3024713621 Hartrees.
 NAtoms=   30 NActive=   30 NUniq=   30 SFac= 1.00D+00 NAtFMM=   60 NAOKFM=F Big=F
 Integral buffers will be    131072 words long.
 Raffenetti 2 integral format.
 Two-electron integral symmetry is turned on.
 One-electron integrals computed using PRISM.
 NBasis=   242 RedAO= T EigKep=  1.48D-03  NBF=   242
 NBsUse=   242 1.00D-06 EigRej= -1.00D+00 NBFU=   242
 ExpMin= 1.61D-01 ExpMax= 5.48D+03 ExpMxC= 8.25D+02 IAcc=1 IRadAn=         1 AccDes= 0.00D+00
 Harris functional with IExCor=  402 and IRadAn=       1 diagonalized for initial guess.
 HarFok:  IExCor=  402 AccDes= 0.00D+00 IRadAn=         1 IDoV= 1 UseB2=F ITyADJ=14
 ICtDFT=  3500011 ScaDFX=  1.000000  1.000000  1.000000  1.000000
 FoFCou: FMM=F IPFlag=           0 FMFlag=      100000 FMFlg1=           0
         NFxFlg=           0 DoJE=T BraDBF=F KetDBF=T FulRan=T
         wScrn=  0.000000 ICntrl=     500 IOpCl=  0 I1Cent=   200000004 NGrid=           0
         NMat0=    1 NMatS0=      1 NMatT0=    0 NMatD0=    1 NMtDS0=    0 NMtDT0=    0
 Petite list used in FoFCou.
 Requested convergence on RMS density matrix=1.00D-08 within 128 cycles.
 Requested convergence on MAX density matrix=1.00D-06.
 Requested convergence on             energy=1.00D-06.
 No special actions if energy rises.
 Integral accuracy reduced to 1.0D-05 until final iterations.
 Initial convergence to 1.0D-05 achieved.  Increase integral accuracy.
 SCF Done:  E(RB3LYP) =  -839.958052203     A.U. after   14 cycles
            NFock= 14  Conv=0.44D-08     -V/T= 2.0085

 **********************************************************************

            Population analysis using the SCF density.

 **********************************************************************

 Orbital symmetries:
       Occupied  (A) (A) (A) (A) (A) (A) (A) (A) (A) (A) (A) (A)
                 (A) (A) (A) (A) (A) (A) (A) (A) (A) (A) (A) (A)
                 (A) (A) (A) (A) (A) (A) (A) (A) (A) (A) (A) (A)
                 (A) (A) (A) (A) (A) (A) (A) (A) (A) (A) (A) (A)
                 (A) (A) (A) (A) (A) (A) (A) (A) (A) (A)
       Virtual   (A) (A) (A) (A) (A) (A) (A) (A) (A) (A) (A) (A)
                 (A) (A) (A) (A) (A) (A) (A) (A) (A) (A) (A) (A)
                 (A) (A) (A) (A) (A) (A) (A) (A) (A) (A) (A) (A)
                 (A) (A) (A) (A) (A) (A) (A) (A) (A) (A) (A) (A)
                 (A) (A) (A) (A) (A) (A) (A) (A) (A) (A) (A) (A)
                 (A) (A) (A) (A) (A) (A) (A) (A) (A) (A) (A) (A)
                 (A) (A) (A) (A) (A) (A) (A) (A) (A) (A) (A) (A)
                 (A) (A) (A) (A) (A) (A) (A) (A) (A) (A) (A) (A)
                 (A) (A) (A) (A) (A) (A) (A) (A) (A) (A) (A) (A)
                 (A) (A) (A) (A) (A) (A) (A) (A) (A) (A) (A) (A)
                 (A) (A) (A) (A) (A) (A) (A) (A) (A) (A) (A) (A)
                 (A) (A) (A) (A) (A) (A) (A) (A) (A) (A) (A) (A)
                 (A) (A) (A) (A) (A) (A) (A) (A) (A) (A) (A) (A)
                 (A) (A) (A) (A) (A) (A) (A) (A) (A) (A) (A) (A)
                 (A) (A) (A) (A) (A) (A) (A) (A) (A) (A) (A) (A)
                 (A) (A) (A) (A)
 The electronic state is 1-A.
 Alpha  occ. eigenvalues --  -19.18624 -19.16350 -19.15785 -19.15361 -19.14538
 Alpha  occ. eigenvalues --  -19.14410 -19.13658 -19.12602 -10.29012 -10.25445
 Alpha  occ. eigenvalues --  -10.24966 -10.24063 -10.24026 -10.23434  -1.06209
 Alpha  occ. eigenvalues --   -1.05337  -1.03611  -1.02703  -1.01345  -1.00295
 Alpha  occ. eigenvalues --   -0.99666  -0.98114  -0.77587  -0.75737  -0.69110
 Alpha  occ. eigenvalues --   -0.66077  -0.61217  -0.56608  -0.55575  -0.54826
 Alpha  occ. eigenvalues --   -0.53560  -0.53274  -0.52197  -0.50631  -0.49307
 Alpha  occ. eigenvalues --   -0.48219  -0.45045  -0.44624  -0.43107  -0.42381
 Alpha  occ. eigenvalues --   -0.41360  -0.41307  -0.40242  -0.39439  -0.38111
 Alpha  occ. eigenvalues --   -0.35787  -0.35534  -0.34438  -0.33653  -0.32550
 Alpha  occ. eigenvalues --   -0.31041  -0.30393  -0.29365  -0.29254  -0.28172
 Alpha  occ. eigenvalues --   -0.26784  -0.25568  -0.25371
 Alpha virt. eigenvalues --    0.02760   0.04110   0.05595   0.06332   0.07536
 Alpha virt. eigenvalues --    0.08205   0.11186   0.12976   0.14051   0.15086
 Alpha virt. eigenvalues --    0.16093   0.16608   0.17631   0.18068   0.19053
 Alpha virt. eigenvalues --    0.20511   0.20778   0.20886   0.22317   0.23433
 Alpha virt. eigenvalues --    0.24784   0.26229   0.26863   0.27498   0.30575
 Alpha virt. eigenvalues --    0.32556   0.33951   0.33978   0.53065   0.53620
 Alpha virt. eigenvalues --    0.54374   0.54641   0.56701   0.58130   0.58836
 Alpha virt. eigenvalues --    0.60159   0.61901   0.62631   0.64200   0.65943
 Alpha virt. eigenvalues --    0.68097   0.69449   0.70289   0.72146   0.75292
 Alpha virt. eigenvalues --    0.77171   0.77975   0.78583   0.79215   0.80238
 Alpha virt. eigenvalues --    0.82395   0.83097   0.83790   0.84794   0.85720
 Alpha virt. eigenvalues --    0.85970   0.86665   0.86959   0.88069   0.88777
 Alpha virt. eigenvalues --    0.90284   0.91264   0.93316   0.93946   0.95319
 Alpha virt. eigenvalues --    0.95745   0.97634   0.99086   1.00232   1.02861
 Alpha virt. eigenvalues --    1.04326   1.04685   1.05934   1.07045   1.07535
 Alpha virt. eigenvalues --    1.10169   1.11369   1.12565   1.13511   1.14076
 Alpha virt. eigenvalues --    1.15538   1.18081   1.19243   1.22578   1.22670
 Alpha virt. eigenvalues --    1.31364   1.32649   1.34074   1.35992   1.38415
 Alpha virt. eigenvalues --    1.40680   1.42926   1.45067   1.46455   1.48561
 Alpha virt. eigenvalues --    1.50773   1.54942   1.55986   1.58179   1.58881
 Alpha virt. eigenvalues --    1.61293   1.62977   1.65835   1.66353   1.68417
 Alpha virt. eigenvalues --    1.70748   1.71282   1.71675   1.72995   1.73413
 Alpha virt. eigenvalues --    1.76354   1.77363   1.78285   1.78808   1.80884
 Alpha virt. eigenvalues --    1.82261   1.82641   1.83635   1.84029   1.84823
 Alpha virt. eigenvalues --    1.87042   1.88597   1.92133   1.94690   1.95768
 Alpha virt. eigenvalues --    1.97362   1.99014   1.99708   2.04654   2.05666
 Alpha virt. eigenvalues --    2.07815   2.08466   2.12158   2.13560   2.14837
 Alpha virt. eigenvalues --    2.18379   2.19240   2.23237   2.25601   2.29001
 Alpha virt. eigenvalues --    2.30908   2.32685   2.34065   2.36880   2.40616
 Alpha virt. eigenvalues --    2.41917   2.43328   2.45128   2.46380   2.49770
 Alpha virt. eigenvalues --    2.52163   2.54297   2.55359   2.57990   2.59015
 Alpha virt. eigenvalues --    2.60180   2.62889   2.63475   2.67194   2.70291
 Alpha virt. eigenvalues --    2.72949   2.76788   2.79974   2.85717   2.88842
 Alpha virt. eigenvalues --    2.91918   2.95917   2.98446   3.07085   3.08569
 Alpha virt. eigenvalues --    3.71531   3.72795   3.77773   3.79882   3.87434
 Alpha virt. eigenvalues --    3.95556   3.98530   4.15342   4.29459   4.34146
 Alpha virt. eigenvalues --    4.44533   4.49524   4.66577   4.80660
          Condensed to atoms (all electrons):
               1          2          3          4          5          6
     1  O    8.530026  -0.035276  -0.015307  -0.002425   0.109595   0.159682
     2  C   -0.035276   5.063335  -0.014834   0.272794  -0.004083   0.309710
     3  C   -0.015307  -0.014834   4.934712   0.286381   0.318892  -0.015086
     4  C   -0.002425   0.272794   0.286381   5.156131  -0.044813  -0.031751
     5  C    0.109595  -0.004083   0.318892  -0.044813   4.741464  -0.001634
     6  C    0.159682   0.309710  -0.015086  -0.031751  -0.001634   4.948627
     7  H    0.000250  -0.054942  -0.044938   0.341592   0.000533   0.005797
     8  H   -0.035094  -0.058680   0.000319   0.005123  -0.000855   0.357636
     9  H    0.003734   0.344271   0.003672  -0.047291   0.000292  -0.050705
    10  H    0.002144   0.000967   0.329272  -0.061807  -0.027453   0.001363
    11  C   -0.038477  -0.024011  -0.000087  -0.003451   0.001639   0.315428
    12  H    0.005068   0.006280  -0.000029  -0.000122  -0.000168  -0.048398
    13  H    0.005212  -0.012513  -0.000370   0.000789  -0.000124  -0.033110
    14  H   -0.036547  -0.004413  -0.059871  -0.003952   0.353109  -0.000586
    15  O   -0.038691  -0.000137  -0.038530   0.003135   0.316544   0.001777
    16  O    0.001507  -0.006751   0.000005   0.000365  -0.000022  -0.038629
    17  H   -0.000002  -0.000965   0.000001   0.000022  -0.000001  -0.002809
    18  O    0.000832   0.003288   0.240442  -0.050973  -0.040344   0.000058
    19  H   -0.000052   0.000015  -0.023558   0.000978   0.005522  -0.000022
    20  O   -0.000587  -0.024167  -0.035276   0.157512   0.002295   0.001950
    21  H    0.000041  -0.003693   0.005999  -0.020633  -0.000234  -0.000993
    22  O    0.000725   0.192982  -0.000584  -0.035657  -0.005209  -0.042163
    23  H   -0.000159  -0.026738  -0.000697  -0.002939   0.000362   0.007059
    24  O   -0.069919  -0.000205  -0.000300   0.000020   0.009195   0.002462
    25  H    0.077081   0.002119   0.000852  -0.000012  -0.009040  -0.003209
    26  H    0.003430   0.000008  -0.000029  -0.000001  -0.000426  -0.000020
    27  H    0.004863   0.000050   0.005154  -0.000203  -0.029903  -0.000244
    28  O    0.000000  -0.000001   0.006852   0.000331   0.000214  -0.000001
    29  H   -0.000004   0.000526  -0.001356  -0.004262   0.000072  -0.000012
    30  H   -0.000000  -0.000005   0.000469  -0.000288   0.000012   0.000000
               7          8          9         10         11         12
     1  O    0.000250  -0.035094   0.003734   0.002144  -0.038477   0.005068
     2  C   -0.054942  -0.058680   0.344271   0.000967  -0.024011   0.006280
     3  C   -0.044938   0.000319   0.003672   0.329272  -0.000087  -0.000029
     4  C    0.341592   0.005123  -0.047291  -0.061807  -0.003451  -0.000122
     5  C    0.000533  -0.000855   0.000292  -0.027453   0.001639  -0.000168
     6  C    0.005797   0.357636  -0.050705   0.001363   0.315428  -0.048398
     7  H    0.633921  -0.000195  -0.003692   0.007072  -0.000064   0.000007
     8  H   -0.000195   0.652947   0.002278   0.000063  -0.056882  -0.006896
     9  H   -0.003692   0.002278   0.635620  -0.000277  -0.006264   0.000673
    10  H    0.007072   0.000063  -0.000277   0.635944  -0.000254   0.000024
    11  C   -0.000064  -0.056882  -0.006264  -0.000254   4.970194   0.356040
    12  H    0.000007  -0.006896   0.000673   0.000024   0.356040   0.627109
    13  H    0.000145   0.006031  -0.000175   0.000806   0.360763  -0.036524
    14  H    0.000889   0.001414   0.000329   0.007157  -0.000112   0.000006
    15  O   -0.000102  -0.000058   0.000003  -0.000732  -0.000036   0.000003
    16  O   -0.000001   0.002549   0.019111   0.000005   0.225949  -0.030199
    17  H   -0.000001   0.005444  -0.000117   0.000000  -0.031421  -0.006868
    18  O    0.008215   0.000006  -0.000065  -0.035944  -0.000002  -0.000000
    19  H    0.000551  -0.000000   0.000003  -0.006266   0.000000   0.000000
    20  O   -0.032765  -0.000129  -0.000733   0.000274  -0.003838   0.000154
    21  H   -0.004161  -0.000004   0.008854   0.000045   0.000807  -0.000009
    22  O    0.000119   0.000846  -0.033835  -0.000071   0.002686  -0.000058
    23  H    0.009312  -0.000195  -0.003292   0.000029  -0.000283   0.000007
    24  O    0.000000   0.001107   0.000002   0.000005  -0.000076  -0.000057
    25  H   -0.000001  -0.002737  -0.000040   0.000093  -0.000467   0.001010
    26  H    0.000000  -0.000086  -0.000000   0.000003  -0.000003   0.000022
    27  H    0.000004  -0.000040  -0.000000  -0.000280   0.000004  -0.000000
    28  O    0.000437  -0.000000   0.000001   0.003294  -0.000000   0.000000
    29  H   -0.000830   0.000000  -0.000034   0.000439   0.000003  -0.000000
    30  H   -0.000012  -0.000000  -0.000000   0.000580   0.000000  -0.000000
              13         14         15         16         17         18
     1  O    0.005212  -0.036547  -0.038691   0.001507  -0.000002   0.000832
     2  C   -0.012513  -0.004413  -0.000137  -0.006751  -0.000965   0.003288
     3  C   -0.000370  -0.059871  -0.038530   0.000005   0.000001   0.240442
     4  C    0.000789  -0.003952   0.003135   0.000365   0.000022  -0.050973
     5  C   -0.000124   0.353109   0.316544  -0.000022  -0.000001  -0.040344
     6  C   -0.033110  -0.000586   0.001777  -0.038629  -0.002809   0.000058
     7  H    0.000145   0.000889  -0.000102  -0.000001  -0.000001   0.008215
     8  H    0.006031   0.001414  -0.000058   0.002549   0.005444   0.000006
     9  H   -0.000175   0.000329   0.000003   0.019111  -0.000117  -0.000065
    10  H    0.000806   0.007157  -0.000732   0.000005   0.000000  -0.035944
    11  C    0.360763  -0.000112  -0.000036   0.225949  -0.031421  -0.000002
    12  H   -0.036524   0.000006   0.000003  -0.030199  -0.006868  -0.000000
    13  H    0.555870   0.000030  -0.000004  -0.033937   0.007080   0.000004
    14  H    0.000030   0.591301  -0.043102   0.000003   0.000001   0.001813
    15  O   -0.000004  -0.043102   8.266540   0.000000  -0.000000   0.002119
    16  O   -0.033937   0.000003   0.000000   8.241279   0.234650   0.000000
    17  H    0.007080   0.000001  -0.000000   0.234650   0.401338   0.000000
    18  O    0.000004   0.001813   0.002119   0.000000   0.000000   8.338123
    19  H   -0.000001  -0.000262  -0.000117   0.000000  -0.000000   0.214509
    20  O    0.013053  -0.000019  -0.000007  -0.000089  -0.000011   0.000791
    21  H   -0.000826   0.000016   0.000001   0.000137   0.000000  -0.000226
    22  O    0.000013   0.017863   0.000116  -0.000003  -0.000049  -0.000053
    23  H    0.000008  -0.000106  -0.000008   0.000015   0.000001  -0.000035
    24  O    0.000007   0.000766  -0.072319   0.000000   0.000000   0.000000
    25  H   -0.000073   0.000542   0.011346   0.000006  -0.000002  -0.000017
    26  H   -0.000001  -0.000020   0.004492  -0.000000  -0.000000  -0.000000
    27  H   -0.000000  -0.003954   0.188142  -0.000000  -0.000000  -0.000108
    28  O    0.000001   0.000000  -0.000000  -0.000000  -0.000000  -0.022985
    29  H    0.000009  -0.000002  -0.000002   0.000000   0.000000   0.003422
    30  H   -0.000001   0.000000  -0.000000  -0.000000  -0.000000   0.001127
              19         20         21         22         23         24
     1  O   -0.000052  -0.000587   0.000041   0.000725  -0.000159  -0.069919
     2  C    0.000015  -0.024167  -0.003693   0.192982  -0.026738  -0.000205
     3  C   -0.023558  -0.035276   0.005999  -0.000584  -0.000697  -0.000300
     4  C    0.000978   0.157512  -0.020633  -0.035657  -0.002939   0.000020
     5  C    0.005522   0.002295  -0.000234  -0.005209   0.000362   0.009195
     6  C   -0.000022   0.001950  -0.000993  -0.042163   0.007059   0.002462
     7  H    0.000551  -0.032765  -0.004161   0.000119   0.009312   0.000000
     8  H   -0.000000  -0.000129  -0.000004   0.000846  -0.000195   0.001107
     9  H    0.000003  -0.000733   0.008854  -0.033835  -0.003292   0.000002
    10  H   -0.006266   0.000274   0.000045  -0.000071   0.000029   0.000005
    11  C    0.000000  -0.003838   0.000807   0.002686  -0.000283  -0.000076
    12  H    0.000000   0.000154  -0.000009  -0.000058   0.000007  -0.000057
    13  H   -0.000001   0.013053  -0.000826   0.000013   0.000008   0.000007
    14  H   -0.000262  -0.000019   0.000016   0.017863  -0.000106   0.000766
    15  O   -0.000117  -0.000007   0.000001   0.000116  -0.000008  -0.072319
    16  O    0.000000  -0.000089   0.000137  -0.000003   0.000015   0.000000
    17  H   -0.000000  -0.000011   0.000000  -0.000049   0.000001   0.000000
    18  O    0.214509   0.000791  -0.000226  -0.000053  -0.000035   0.000000
    19  H    0.326081   0.000354  -0.000053  -0.000002   0.000002  -0.000000
    20  O    0.000354   8.298295   0.228786   0.001593   0.000003  -0.000000
    21  H   -0.000053   0.228786   0.378962  -0.000027  -0.000042   0.000000
    22  O   -0.000002   0.001593  -0.000027   8.300221   0.229309   0.000003
    23  H    0.000002   0.000003  -0.000042   0.229309   0.392075  -0.000000
    24  O   -0.000000  -0.000000   0.000000   0.000003  -0.000000   8.435518
    25  H    0.000001  -0.000000  -0.000000  -0.000112   0.000011   0.176601
    26  H   -0.000000   0.000000  -0.000000  -0.000000   0.000000   0.232708
    27  H    0.000015   0.000001  -0.000000   0.000007   0.000000   0.105135
    28  O    0.064755  -0.017623   0.000720   0.000000   0.000000   0.000000
    29  H   -0.007176   0.054237  -0.002683  -0.000007  -0.000002  -0.000000
    30  H   -0.003463   0.000634  -0.000024  -0.000000   0.000000  -0.000000
              25         26         27         28         29         30
     1  O    0.077081   0.003430   0.004863   0.000000  -0.000004  -0.000000
     2  C    0.002119   0.000008   0.000050  -0.000001   0.000526  -0.000005
     3  C    0.000852  -0.000029   0.005154   0.006852  -0.001356   0.000469
     4  C   -0.000012  -0.000001  -0.000203   0.000331  -0.004262  -0.000288
     5  C   -0.009040  -0.000426  -0.029903   0.000214   0.000072   0.000012
     6  C   -0.003209  -0.000020  -0.000244  -0.000001  -0.000012   0.000000
     7  H   -0.000001   0.000000   0.000004   0.000437  -0.000830  -0.000012
     8  H   -0.002737  -0.000086  -0.000040  -0.000000   0.000000  -0.000000
     9  H   -0.000040  -0.000000  -0.000000   0.000001  -0.000034  -0.000000
    10  H    0.000093   0.000003  -0.000280   0.003294   0.000439   0.000580
    11  C   -0.000467  -0.000003   0.000004  -0.000000   0.000003   0.000000
    12  H    0.001010   0.000022  -0.000000   0.000000  -0.000000  -0.000000
    13  H   -0.000073  -0.000001  -0.000000   0.000001   0.000009  -0.000001
    14  H    0.000542  -0.000020  -0.003954   0.000000  -0.000002   0.000000
    15  O    0.011346   0.004492   0.188142  -0.000000  -0.000002  -0.000000
    16  O    0.000006  -0.000000  -0.000000  -0.000000   0.000000  -0.000000
    17  H   -0.000002  -0.000000  -0.000000  -0.000000   0.000000  -0.000000
    18  O   -0.000017  -0.000000  -0.000108  -0.022985   0.003422   0.001127
    19  H    0.000001  -0.000000   0.000015   0.064755  -0.007176  -0.003463
    20  O   -0.000000   0.000000   0.000001  -0.017623   0.054237   0.000634
    21  H   -0.000000  -0.000000  -0.000000   0.000720  -0.002683  -0.000024
    22  O   -0.000112  -0.000000   0.000007   0.000000  -0.000007  -0.000000
    23  H    0.000011   0.000000   0.000000   0.000000  -0.000002   0.000000
    24  O    0.176601   0.232708   0.105135   0.000000  -0.000000  -0.000000
    25  H    0.329435  -0.007906  -0.016383   0.000000   0.000000   0.000000
    26  H   -0.007906   0.380998  -0.006032  -0.000000  -0.000000   0.000000
    27  H   -0.016383  -0.006032   0.308288   0.000000   0.000000   0.000000
    28  O    0.000000  -0.000000   0.000000   8.315760   0.213352   0.242114
    29  H    0.000000  -0.000000   0.000000   0.213352   0.334150  -0.015901
    30  H    0.000000   0.000000   0.000000   0.242114  -0.015901   0.375852
 Mulliken charges:
               1
     1  O   -0.631652
     2  C    0.075069
     3  C    0.117828
     4  C    0.085408
     5  C    0.304571
     6  C    0.157824
     7  H    0.132861
     8  H    0.126088
     9  H    0.127680
    10  H    0.143505
    11  C   -0.067785
    12  H    0.132927
    13  H    0.167840
    14  H    0.177711
    15  O   -0.600373
    16  O   -0.615951
    17  H    0.393711
    18  O   -0.663994
    19  H    0.428186
    20  O   -0.644687
    21  H    0.409239
    22  O   -0.628653
    23  H    0.396305
    24  O   -0.820652
    25  H    0.440903
    26  H    0.392864
    27  H    0.445483
    28  O   -0.807221
    29  H    0.426062
    30  H    0.398906
 Sum of Mulliken charges =  -0.00000
 Mulliken charges with hydrogens summed into heavy atoms:
               1
     1  O   -0.631652
     2  C    0.202748
     3  C    0.261333
     4  C    0.218269
     5  C    0.482282
     6  C    0.283912
    11  C    0.232982
    15  O   -0.154890
    16  O   -0.222240
    18  O   -0.235809
    20  O   -0.235449
    22  O   -0.232348
    24  O    0.013116
    28  O    0.017746
 Electronic spatial extent (au):  <R**2>=           3212.8829
 Charge=             -0.0000 electrons
 Dipole moment (field-independent basis, Debye):
    X=              1.5550    Y=             -3.4770    Z=             -1.0159  Tot=              3.9420
 Quadrupole moment (field-independent basis, Debye-Ang):
   XX=            -83.9187   YY=            -87.5402   ZZ=            -75.7378
   XY=              3.9490   XZ=              0.9559   YZ=             -8.8949
 Traceless Quadrupole moment (field-independent basis, Debye-Ang):
   XX=             -1.5198   YY=             -5.1413   ZZ=              6.6611
   XY=              3.9490   XZ=              0.9559   YZ=             -8.8949
 Octapole moment (field-independent basis, Debye-Ang**2):
  XXX=             52.2172  YYY=             -3.8317  ZZZ=             -4.7437  XYY=             -0.8220
  XXY=            -11.8006  XXZ=            -37.9316  XZZ=            -19.6284  YZZ=              3.4670
  YYZ=             -1.9765  XYZ=            -13.0700
 Hexadecapole moment (field-independent basis, Debye-Ang**3):
 XXXX=          -1799.1120 YYYY=          -1445.3798 ZZZZ=           -417.6880 XXXY=           -115.3886
 XXXZ=             74.6178 YYYX=            100.9172 YYYZ=            -81.3786 ZZZX=              9.8287
 ZZZY=            -34.0867 XXYY=           -546.0983 XXZZ=           -312.0805 YYZZ=           -291.2646
 XXYZ=            -55.7411 YYXZ=            -18.8703 ZZXY=             46.7871
 N-N= 1.104302471362D+03 E-N=-4.181292813400D+03  KE= 8.328623536609D+02
 Calling FoFJK, ICntrl=      2127 FMM=F ISym2X=0 I1Cent= 0 IOpClX= 0 NMat=1 NMatS=1 NMatT=0.
 ***** Axes restored to original set *****
 -------------------------------------------------------------------
 Center     Atomic                   Forces (Hartrees/Bohr)
 Number     Number              X              Y              Z
 -------------------------------------------------------------------
      1        8          -0.022391898    0.002774600    0.006691163
      2        6          -0.001180641   -0.002427037    0.001632143
      3        6           0.001200989   -0.000970074    0.000619620
      4        6          -0.000939352   -0.001034248    0.000257767
      5        6           0.020028155   -0.018514968   -0.007819593
      6        6          -0.006171736    0.000480361    0.001637232
      7        1          -0.000095947   -0.000033351    0.000008691
      8        1          -0.000462726    0.000615098   -0.000144598
      9        1          -0.000077279   -0.000185979    0.000189207
     10        1          -0.000090531   -0.000113049    0.000056090
     11        6          -0.001438202    0.001357817   -0.000049191
     12        1          -0.000075511    0.000175617    0.000097988
     13        1          -0.000017368   -0.000035523   -0.000107474
     14        1           0.000253430   -0.000378082   -0.000202389
     15        8          -0.013228474   -0.005929930   -0.002446217
     16        8          -0.000127772    0.001615091    0.000287848
     17        1          -0.000018295    0.000112799    0.000040727
     18        8           0.002107335    0.001455754    0.000075356
     19        1           0.000181668    0.000077682   -0.000074983
     20        8          -0.000230367   -0.000068648   -0.000042780
     21        1           0.000032801   -0.000032833   -0.000092179
     22        8          -0.000566288   -0.000037480    0.000238279
     23        1           0.000082799   -0.000041867    0.000125983
     24        8           0.022874366    0.015338897   -0.001600063
     25        1           0.001574718    0.002391488   -0.000455626
     26        1           0.000920727    0.001033330   -0.000229451
     27        1          -0.002290169    0.002263176    0.001233211
     28        8           0.000189730    0.000221571    0.000084621
     29        1          -0.000016083   -0.000034981    0.000006297
     30        1          -0.000028080   -0.000075232   -0.000017678
 -------------------------------------------------------------------
 Cartesian Forces:  Max     0.022874366 RMS     0.005195099

 GradGradGradGradGradGradGradGradGradGradGradGradGradGradGradGradGradGrad
 Berny optimization.
 FormGI is forming the generalized inverse of G from B-inverse, IUseBI=4.
 Internal  Forces:  Max     0.032841818 RMS     0.005605919
 Search for a local minimum.
 Step number   1 out of a maximum of  167
 All quantities printed in internal units (Hartrees-Bohrs-Radians)
 Mixed Optimization -- RFO/linear search
 Second derivative matrix not updated -- first step.
 ITU=  0
     Eigenvalues ---    0.00230   0.00453   0.00522   0.00563   0.00574
     Eigenvalues ---    0.00696   0.00711   0.00789   0.01293   0.01349
     Eigenvalues ---    0.01389   0.01547   0.02248   0.02345   0.03395
     Eigenvalues ---    0.03556   0.03965   0.04427   0.04502   0.04625
     Eigenvalues ---    0.04684   0.04865   0.05406   0.05728   0.05806
     Eigenvalues ---    0.05841   0.06064   0.06756   0.07087   0.07435
     Eigenvalues ---    0.07453   0.08324   0.09090   0.09387   0.09920
     Eigenvalues ---    0.11038   0.11359   0.11635   0.11919   0.12911
     Eigenvalues ---    0.13757   0.13994   0.14444   0.15733   0.16000
     Eigenvalues ---    0.16000   0.16167   0.16695   0.17268   0.18677
     Eigenvalues ---    0.18950   0.20493   0.20607   0.21316   0.21968
     Eigenvalues ---    0.22075   0.23042   0.25548   0.27782   0.28204
     Eigenvalues ---    0.29084   0.30439   0.33214   0.33446   0.33547
     Eigenvalues ---    0.33723   0.33838   0.34604   0.34606   0.37990
     Eigenvalues ---    0.40969   0.41578   0.41846   0.42659   0.44331
     Eigenvalues ---    0.45575   0.49289   0.50146   0.53057   0.53202
     Eigenvalues ---    0.53329   0.53528   0.53574   0.59302
 RFO step:  Lambda=-3.69526731D-02 EMin= 2.30000000D-03
 Linear search not attempted -- first point.
 Maximum step size (   0.300) exceeded in Quadratic search.
    -- Step size scaled by   0.946
 Iteration  1 RMS(Cart)=  0.13418948 RMS(Int)=  0.00481605
 Iteration  2 RMS(Cart)=  0.00891248 RMS(Int)=  0.00238805
 Iteration  3 RMS(Cart)=  0.00004637 RMS(Int)=  0.00238793
 Iteration  4 RMS(Cart)=  0.00000043 RMS(Int)=  0.00238793
 Variable       Old X    -DE/DX   Delta X   Delta X   Delta X     New X
                                 (Linear)    (Quad)   (Total)
    R1        2.67898   0.00959   0.00000   0.01906   0.02049   2.69947
    R2        2.80628   0.01933   0.00000   0.11399   0.11424   2.92052
    R3        2.92101  -0.01141   0.00000  -0.03529  -0.03639   2.88462
    R4        2.88941  -0.00385   0.00000  -0.01083  -0.01089   2.87852
    R5        2.08275   0.00019   0.00000   0.00048   0.00048   2.08323
    R6        2.70258   0.00022   0.00000   0.00047   0.00047   2.70304
    R7        2.94758  -0.01220   0.00000  -0.03757  -0.03877   2.90881
    R8        2.86410  -0.00209   0.00000  -0.00338  -0.00329   2.86081
    R9        2.07605  -0.00004   0.00000  -0.00011  -0.00011   2.07594
   R10        2.66713  -0.00104   0.00000  -0.00422  -0.00405   2.66308
   R11        2.08102   0.00007   0.00000   0.00018   0.00018   2.08119
   R12        2.72802   0.00014   0.00000  -0.00205  -0.00193   2.72609
   R13        2.06319  -0.00012   0.00000  -0.00030  -0.00030   2.06289
   R14        2.50510   0.00564   0.00000   0.00865   0.00743   2.51254
   R15        2.08677  -0.00037   0.00000  -0.00095  -0.00095   2.08582
   R16        2.91696  -0.00262   0.00000  -0.00776  -0.00776   2.90920
   R17        2.07800  -0.00003   0.00000  -0.00008  -0.00008   2.07791
   R18        2.06323   0.00008   0.00000   0.00019   0.00019   2.06342
   R19        2.69464  -0.00149   0.00000  -0.00311  -0.00311   2.69154
   R20        1.91703   0.00732   0.00000   0.01529   0.01554   1.93258
   R21        1.83348   0.00002   0.00000   0.00003   0.00003   1.83351
   R22        1.85945   0.00007   0.00000   0.00089   0.00086   1.86032
   R23        3.53569   0.00011   0.00000   0.01008   0.00998   3.54567
   R24        1.83601   0.00001   0.00000   0.00001   0.00001   1.83602
   R25        3.57106  -0.00026   0.00000   0.00113   0.00103   3.57208
   R26        1.83466   0.00003   0.00000   0.00006   0.00006   1.83471
   R27        1.90630   0.00900   0.00000   0.01548   0.01644   1.92274
   R28        1.83121   0.00073   0.00000   0.00120   0.00120   1.83241
   R29        2.86195   0.00305   0.00000   0.02017   0.02122   2.88317
   R30        1.85415  -0.00017   0.00000   0.00101   0.00086   1.85501
   R31        1.83164  -0.00001   0.00000  -0.00001  -0.00001   1.83163
    A1        2.11816  -0.01889   0.00000  -0.07660  -0.08096   2.03720
    A2        1.98790  -0.01333   0.00000  -0.06523  -0.06233   1.92556
    A3        1.89361   0.00018   0.00000   0.00309   0.00251   1.89612
    A4        1.92080   0.00766   0.00000   0.02224   0.02124   1.94204
    A5        1.88603   0.00774   0.00000   0.04473   0.04645   1.93248
    A6        1.85851   0.00028   0.00000  -0.00524  -0.00903   1.84948
    A7        1.91605  -0.00240   0.00000   0.00202   0.00224   1.91828
    A8        1.93935  -0.00249   0.00000  -0.01621  -0.01546   1.92389
    A9        1.87323   0.00283   0.00000   0.01687   0.01550   1.88873
   A10        1.93755  -0.00163   0.00000  -0.00527  -0.00470   1.93285
   A11        1.83521  -0.00161   0.00000  -0.01048  -0.01262   1.82258
   A12        1.92731   0.00262   0.00000   0.01451   0.01611   1.94342
   A13        1.94825   0.00027   0.00000   0.00018   0.00061   1.94886
   A14        2.05196  -0.01279   0.00000  -0.07329  -0.07346   1.97849
   A15        1.86703   0.00058   0.00000   0.00760   0.00660   1.87363
   A16        1.93900   0.00841   0.00000   0.03822   0.03910   1.97810
   A17        1.84291   0.00648   0.00000   0.04238   0.04465   1.88756
   A18        1.85366  -0.00012   0.00000  -0.00952  -0.01129   1.84237
   A19        1.90369  -0.00234   0.00000  -0.00199  -0.00251   1.90119
   A20        2.02449   0.00205   0.00000  -0.02078  -0.02106   2.00343
   A21        2.02181  -0.01704   0.00000  -0.07401  -0.08320   1.93861
   A22        2.03262   0.00608   0.00000  -0.00880  -0.01283   2.01979
   A23        1.92498   0.00926   0.00000   0.04204   0.03931   1.96429
   A24        1.93724  -0.00483   0.00000  -0.02789  -0.02811   1.90913
   A25        1.88324  -0.00111   0.00000  -0.00614  -0.00495   1.87830
   A26        1.85736   0.00147   0.00000   0.00856   0.00644   1.86380
   A27        1.96125  -0.00738   0.00000  -0.01906  -0.01496   1.94629
   A28        1.90032   0.00240   0.00000   0.00135   0.00098   1.90130
   A29        1.89803   0.00013   0.00000  -0.00087  -0.00088   1.89715
   A30        1.90291   0.00057   0.00000   0.00304   0.00305   1.90595
   A31        1.97365  -0.00166   0.00000  -0.00639  -0.00639   1.96725
   A32        1.88399  -0.00014   0.00000   0.00050   0.00049   1.88449
   A33        1.94873   0.00054   0.00000   0.00076   0.00074   1.94947
   A34        1.85375   0.00064   0.00000   0.00344   0.00344   1.85719
   A35        1.84096   0.00625   0.00000   0.02845   0.03620   1.87716
   A36        1.88313  -0.00020   0.00000  -0.00094  -0.00094   1.88219
   A37        1.84451   0.00099   0.00000  -0.01561  -0.01528   1.82923
   A38        2.72766  -0.00010   0.00000  -0.00455  -0.00451   2.72315
   A39        1.89257  -0.00009   0.00000   0.00269   0.00228   1.89484
   A40        1.83056  -0.00059   0.00000  -0.02335  -0.02299   1.80757
   A41        2.01831   0.00127   0.00000   0.00647   0.00652   2.02483
   A42        1.89147   0.00019   0.00000   0.00089   0.00089   1.89236
   A43        1.83705   0.00289   0.00000   0.01278   0.01599   1.85304
   A44        1.57037  -0.03284   0.00000  -0.18910  -0.18480   1.38557
   A45        1.86624   0.00374   0.00000   0.00402   0.00007   1.86631
   A46        2.65460   0.00073   0.00000  -0.01787  -0.01816   2.63644
   A47        2.57303  -0.00182   0.00000  -0.01694  -0.01749   2.55554
   A48        1.62950  -0.00111   0.00000   0.00339   0.00292   1.63242
   A49        1.89820   0.00011   0.00000  -0.00096  -0.00118   1.89702
   A50        1.82693  -0.00038   0.00000  -0.00127  -0.00150   1.82543
   A51        2.74495  -0.00142   0.00000  -0.00396  -0.00409   2.74086
    D1        2.32865   0.01075   0.00000   0.12500   0.11702   2.44567
    D2        0.27455   0.00611   0.00000   0.10529   0.10240   0.37695
    D3       -1.80628   0.00670   0.00000   0.12376   0.12009  -1.68619
    D4       -2.47678  -0.00471   0.00000  -0.13625  -0.13520  -2.61198
    D5       -0.78346   0.00632   0.00000   0.11680   0.12240  -0.66106
    D6       -2.85075   0.00557   0.00000   0.10245   0.10631  -2.74444
    D7        1.35646   0.00332   0.00000   0.07875   0.08215   1.43861
    D8       -2.88458   0.00499   0.00000   0.09999   0.10213  -2.78246
    D9        1.33131   0.00424   0.00000   0.08564   0.08604   1.41735
   D10       -0.74466   0.00199   0.00000   0.06193   0.06188  -0.68278
   D11        1.30189   0.00323   0.00000   0.08230   0.08473   1.38662
   D12       -0.76540   0.00247   0.00000   0.06795   0.06865  -0.69676
   D13       -2.84137   0.00023   0.00000   0.04424   0.04449  -2.79689
   D14        0.62955   0.00443   0.00000   0.05736   0.05914   0.68869
   D15        2.73230   0.00468   0.00000   0.05245   0.05152   2.78381
   D16       -1.47248   0.00436   0.00000   0.04875   0.04831  -1.42418
   D17        2.73492   0.00159   0.00000   0.05112   0.05346   2.78837
   D18       -1.44552   0.00184   0.00000   0.04621   0.04583  -1.39969
   D19        0.63288   0.00152   0.00000   0.04251   0.04262   0.67550
   D20       -1.49074   0.00286   0.00000   0.07342   0.07533  -1.41541
   D21        0.61200   0.00311   0.00000   0.06851   0.06770   0.67971
   D22        2.69041   0.00279   0.00000   0.06481   0.06449   2.75490
   D23        0.94515   0.00506   0.00000   0.03078   0.03031   0.97545
   D24        3.10763  -0.00646   0.00000  -0.03895  -0.03881   3.06883
   D25       -1.13794   0.00160   0.00000   0.01198   0.01231  -1.12563
   D26       -0.16752   0.00497   0.00000   0.04998   0.05484  -0.11268
   D27        1.91258   0.00278   0.00000   0.04688   0.05012   1.96269
   D28       -2.35043   0.00303   0.00000   0.05972   0.06265  -2.28778
   D29        1.83009   0.00336   0.00000   0.03865   0.04043   1.87052
   D30       -2.37300   0.00117   0.00000   0.03555   0.03571  -2.33729
   D31       -0.35282   0.00142   0.00000   0.04839   0.04824  -0.30458
   D32       -2.31965   0.00454   0.00000   0.04663   0.04843  -2.27122
   D33       -0.23955   0.00235   0.00000   0.04352   0.04371  -0.19584
   D34        1.78063   0.00260   0.00000   0.05636   0.05624   1.83687
   D35       -0.89338  -0.00076   0.00000  -0.00477  -0.00471  -0.89809
   D36        2.91314   0.00945   0.00000   0.14444   0.13919   3.05234
   D37       -2.91460  -0.00198   0.00000  -0.01086  -0.00857  -2.92317
   D38        0.89193   0.00823   0.00000   0.13835   0.13534   1.02726
   D39        1.26461  -0.00274   0.00000  -0.01262  -0.01031   1.25430
   D40       -1.21205   0.00747   0.00000   0.13660   0.13359  -1.07846
   D41       -1.27107  -0.00043   0.00000  -0.00808  -0.00710  -1.27817
   D42        2.85309   0.00205   0.00000   0.00610   0.00466   2.85774
   D43        0.81816   0.00224   0.00000   0.00984   0.00977   0.82793
   D44        0.93646   0.00540   0.00000   0.04227   0.04276   0.97922
   D45        3.10233   0.00652   0.00000   0.03782   0.03846   3.14079
   D46       -3.09602  -0.00519   0.00000  -0.03174  -0.03261  -3.12862
   D47       -0.93015  -0.00407   0.00000  -0.03619  -0.03690  -0.96705
   D48       -1.11735   0.00115   0.00000   0.01154   0.01216  -1.10519
   D49        1.04851   0.00226   0.00000   0.00709   0.00787   1.05638
   D50       -2.82538  -0.01565   0.00000  -0.21472  -0.20603  -3.03141
   D51        0.98429  -0.00378   0.00000  -0.05999  -0.05712   0.92717
   D52        0.97845  -0.00369   0.00000  -0.02566  -0.02547   0.95298
   D53       -1.07174  -0.00391   0.00000  -0.02747  -0.02728  -1.09901
   D54       -3.12957  -0.00407   0.00000  -0.02985  -0.02965   3.12397
   D55        3.10442   0.00248   0.00000   0.01076   0.01085   3.11528
   D56        1.05423   0.00225   0.00000   0.00895   0.00904   1.06328
   D57       -1.00360   0.00210   0.00000   0.00657   0.00667  -0.99693
   D58       -1.12568   0.00140   0.00000   0.01076   0.01047  -1.11521
   D59        3.10731   0.00117   0.00000   0.00895   0.00866   3.11598
   D60        1.04948   0.00102   0.00000   0.00657   0.00629   1.05578
   D61       -1.17953   0.00031   0.00000   0.00323   0.00323  -1.17630
   D62        0.96779  -0.00035   0.00000  -0.00213  -0.00213   0.96566
   D63        3.01732   0.00015   0.00000   0.00093   0.00093   3.01825
   D64        0.79722   0.00104   0.00000  -0.07165  -0.07807   0.71915
   D65        0.21827  -0.00030   0.00000  -0.00925  -0.01027   0.20800
   D66        0.21330  -0.00115   0.00000  -0.00492  -0.00556   0.20773
   D67       -1.64962  -0.00035   0.00000  -0.00466  -0.00485  -1.65447
   D68        0.19223   0.00062   0.00000   0.01431   0.01498   0.20721
   D69        2.27573   0.00083   0.00000   0.00504   0.00548   2.28121
   D70       -1.96271   0.00236   0.00000  -0.00873  -0.01220  -1.97491
   D71       -0.08546  -0.00289   0.00000  -0.05752  -0.06167  -0.14713
   D72       -0.17863   0.00632   0.00000   0.02843   0.01669  -0.16194
   D73        1.67066  -0.00072   0.00000  -0.01764  -0.02030   1.65036
   D74        0.04763   0.00027   0.00000   0.00616   0.00675   0.05438
   D75        1.97429  -0.00001   0.00000   0.00597   0.00615   1.98044
         Item               Value     Threshold  Converged?
 Maximum Force            0.032842     0.000450     NO 
 RMS     Force            0.005606     0.000300     NO 
 Maximum Displacement     0.416523     0.001800     NO 
 RMS     Displacement     0.137932     0.001200     NO 
 Predicted change in Energy=-2.538840D-02
 GradGradGradGradGradGradGradGradGradGradGradGradGradGradGradGradGradGrad

                          Input orientation:                          
 ---------------------------------------------------------------------
 Center     Atomic      Atomic             Coordinates (Angstroms)
 Number     Number       Type             X           Y           Z
 ---------------------------------------------------------------------
      1          8           0        1.018818    0.815544   -0.361237
      2          6           0        0.491167   -1.093295    1.090454
      3          6           0       -1.172862    0.479328   -0.058736
      4          6           0       -0.933172   -0.902490    0.575690
      5          6           0        0.041607    1.362121    0.135071
      6          6           0        1.488000   -0.435000    0.145331
      7          1           0       -1.610635   -1.006356    1.437758
      8          1           0        2.414686   -0.272062    0.722398
      9          1           0        0.692170   -2.173614    1.178692
     10          1           0       -1.245954    0.349489   -1.147126
     11          6           0        1.803005   -1.337822   -1.061188
     12          1           0        2.502850   -0.808828   -1.724112
     13          1           0        0.883837   -1.523273   -1.620661
     14          1           0        0.400336    1.427595    1.163998
     15          8           0       -0.103402    2.520966   -0.500404
     16          8           0        2.304589   -2.614276   -0.676859
     17          1           0        3.178372   -2.482032   -0.276349
     18          8           0       -2.332537    1.078209    0.472734
     19          1           0       -3.080014    0.578040    0.072453
     20          8           0       -1.309441   -1.862175   -0.433508
     21          1           0       -1.185570   -2.755581   -0.072325
     22          8           0        0.673754   -0.458635    2.359265
     23          1           0        0.008164   -0.806128    2.974784
     24          8           0        2.304302    2.939734   -0.467101
     25          1           0        2.059290    1.952271   -0.478491
     26          1           0        2.574461    3.161408   -1.371611
     27          1           0        0.781731    3.027492   -0.424009
     28          8           0       -3.893468   -0.822223   -0.875179
     29          1           0       -3.086152   -1.380513   -0.862925
     30          1           0       -3.991237   -0.554658   -1.801629
 ---------------------------------------------------------------------
                    Distance matrix (angstroms):
                    1          2          3          4          5
     1  O    0.000000
     2  C    2.455502   0.000000
     3  C    2.237858   2.561791   0.000000
     4  C    2.764008   1.526476   1.539275   0.000000
     5  C    1.224749   2.672813   1.513875   2.504556   0.000000
     6  C    1.428496   1.523249   2.820962   2.503164   2.306903
     7  H    3.670113   2.132077   2.153694   1.101320   3.168057
     8  H    2.074993   2.123632   3.747700   3.409855   2.940580
     9  H    3.378335   1.102397   3.470976   2.149676   3.743502
    10  H    2.442135   3.178990   1.098542   2.152528   2.080208
    11  C    2.396219   2.531852   3.628048   3.218003   3.438495
    12  H    2.588119   3.471250   4.235999   4.135711   3.771909
    13  H    2.659781   2.772944   3.268032   2.917336   3.481012
    14  H    1.755981   2.523597   2.206635   2.748389   1.091634
    15  O    2.046268   3.993397   2.346721   3.683279   1.329578
    16  O    3.676478   2.953858   4.695224   3.870683   4.646725
    17  H    3.942700   3.319309   5.267850   4.486169   4.978562
    18  O    3.463537   3.615289   1.409243   2.427343   2.414785
    19  H    4.128550   4.072226   1.914206   2.655965   3.219196
    20  O    3.549112   2.481094   2.375236   1.442587   3.541850
    21  H    4.206630   2.631862   3.234963   1.979287   4.301680
    22  O    3.023861   1.430389   3.183786   2.441384   2.943095
    23  H    3.844513   1.966331   3.499923   2.578963   3.573010
    24  O    2.485127   4.688150   4.279138   5.131406   2.823342
    25  H    1.545470   3.767767   3.576669   4.267995   2.189927
    26  H    2.990645   5.338948   4.791619   5.710580   3.452951
    27  H    2.225503   4.399876   3.232181   4.402845   1.906256
    28  O    5.203554   4.812714   3.124470   3.297699   4.612676
    29  H    4.682429   4.086000   2.786828   2.633144   4.277957
    30  H    5.390069   5.361551   3.471318   3.889010   4.867102
                    6          7          8          9         10
     6  C    0.000000
     7  H    3.405636   0.000000
     8  H    1.103767   4.153810   0.000000
     9  H    2.173468   2.594710   2.605986   0.000000
    10  H    3.124159   2.941586   4.157130   3.941041   0.000000
    11  C    1.539481   4.243529   2.165912   2.636203   3.485765
    12  H    2.159742   5.192033   2.506252   3.683406   3.965872
    13  H    2.160574   3.980392   3.065771   2.880289   2.875323
    14  H    2.385363   3.169080   2.672350   3.613045   3.035437
    15  O    3.418665   4.297700   3.954367   5.048900   2.537516
    16  O    2.468210   4.731384   2.730569   2.497428   4.648807
    17  H    2.688031   5.296260   2.542573   2.897148   5.324511
    18  O    4.122318   2.407867   4.941831   4.496842   2.082220
    19  H    4.679564   2.556060   5.597931   4.798410   2.214359
    20  O    3.193362   2.079611   4.211140   2.588944   2.324809
    21  H    3.546893   2.349643   4.445367   2.330159   3.286381
    22  O    2.359038   2.523412   2.396871   2.082125   4.078373
    23  H    3.214570   2.241217   3.339134   2.358777   4.460763
    24  O    3.525655   5.875955   3.426766   5.608381   4.447035
    25  H    2.532703   5.088598   2.552665   4.651688   3.733714
    26  H    4.051624   6.540477   4.024813   6.205605   4.748984
    27  H    3.579359   5.045941   3.855885   5.443178   3.436001
    28  O    5.491046   3.254982   6.530523   5.203146   2.907954
    29  H    4.778436   2.758675   5.831049   4.367257   2.541654
    30  H    5.816100   4.045358   6.891039   5.782529   2.963518
                   11         12         13         14         15
    11  C    0.000000
    12  H    1.099585   0.000000
    13  H    1.091912   1.772664   0.000000
    14  H    3.816604   4.214657   4.086040   0.000000
    15  O    4.340405   4.401993   4.311089   2.054129   0.000000
    16  O    1.424300   2.096591   2.024744   4.832355   5.674528
    17  H    1.953669   2.313431   2.826886   5.007721   5.987506
    18  O    5.029198   5.636312   4.636278   2.840513   2.828001
    19  H    5.366521   6.026560   4.795234   3.745137   3.600465
    20  O    3.218113   4.160380   2.516874   4.037072   4.546530
    21  H    3.452459   4.485832   2.863280   4.641396   5.403359
    22  O    3.707786   4.488006   4.125216   2.249730   4.202345
    23  H    4.448957   5.320065   4.732781   2.902114   4.812373
    24  O    4.347611   3.958688   4.823572   2.927821   2.444078
    25  H    3.351109   3.061370   3.842610   2.392736   2.236321
    26  H    4.575432   3.986497   4.986629   3.763275   2.887926
    27  H    4.528241   4.401121   4.706576   2.286241   1.022675
    28  O    5.722783   6.452422   4.885679   5.258961   5.067738
    29  H    4.893362   5.683785   4.044176   4.914213   4.924405
    30  H    5.893628   6.499522   4.973662   5.657754   5.125224
                   16         17         18         19         20
    16  O    0.000000
    17  H    0.970254   0.000000
    18  O    6.038125   6.603527   0.000000
    19  H    6.304466   6.975177   0.984437   0.000000
    20  O    3.699471   4.533143   3.242509   3.057053   0.000000
    21  H    3.544945   4.377264   4.038635   3.837044   0.971582
    22  O    4.065029   4.160975   3.867645   4.516080   3.701699
    23  H    4.677335   4.840324   3.910226   4.458284   3.803653
    24  O    5.557969   5.495082   5.084176   5.904200   6.009875
    25  H    4.577431   4.577800   4.577877   5.348318   5.089241
    26  H    5.823576   5.780374   5.640918   6.382178   6.418809
    27  H    5.849152   6.010037   3.781867   4.599931   5.318076
    28  O    6.454974   7.288654   2.804464   1.876286   2.820243
    29  H    5.533252   6.387619   2.897799   2.170460   1.890265
    30  H    6.718970   7.579218   3.254269   2.371817   3.282284
                   21         22         23         24         25
    21  H    0.000000
    22  O    3.826968   0.000000
    23  H    3.809232   0.970889   0.000000
    24  O    6.691163   4.711257   5.581245   0.000000
    25  H    5.732186   3.973039   4.872473   1.017469   0.000000
    26  H    7.129988   5.535055   6.420153   0.969672   1.589049
    27  H    6.118651   4.462214   5.181394   1.525707   1.670696
    28  O    3.422741   5.608328   5.481351   7.261625   6.579552
    29  H    2.475494   5.036791   4.963137   6.919408   6.142542
    30  H    3.963120   6.251753   6.234788   7.322947   6.681637
                   26         27         28         29         30
    26  H    0.000000
    27  H    2.032182   0.000000
    28  O    7.612481   6.073001   0.000000
    29  H    7.275324   5.880789   0.981630   0.000000
    30  H    7.556616   6.124611   0.969257   1.543496   0.000000
 Stoichiometry    C6H16O8
 Framework group  C1[X(C6H16O8)]
 Deg. of freedom    84
 Full point group                 C1      NOp   1
[...]
 6,-0.00132692,0.00037366,-0.00084309,-0.00008267,-0.00014617,0.0001903
 1,0.00002168,-0.00113556,0.00004578,0.00004728,0.00013367,0.00006389,0
 .00019896,-0.00042739,-0.00017027,-0.00015446,0.00015893,0.00008076,0.
 00005005,-0.00014562,0.00005037,0.00044181,-0.00002690,-0.00004461,-0.
 00007788,0.09490284,0.53224430,0.00250530,0.00286067,0.00263082,0.0000
 9658,-0.00022355,-0.00013172,-0.00008541,-0.00007782,0.00021985,-0.000
 05539,-0.00010985,-0.00013908,-0.00136883,-0.00067953,-0.00094793,-0.0
 0037575,-0.00083051,0.00040796,0.00001397,0.00001550,0.00002156,0.0000
 2562,-0.00025007,0.00003873,0.00000390,0.00005141,0.00001201,0.0001197
 2,0.00008687,0.00001672,0.00028931,0.00017360,-0.00041413,-0.00015106,
 -0.00000912,0.00008185,-0.00000155,0.00004827,0.00003661,-0.00026461,-
 0.00025076,0.00052000,0.00183555,0.00074232,0.00467810,-0.00011754,0.0
 0001160,0.00026999,0.00005552,-0.00004028,-0.00009965,0.00012911,0.000
 02422,0.00005562,-0.00007026,-0.00001894,-0.00006406,0.00006149,0.0001
 1508,0.00015078,-0.00001097,-0.00001782,-0.00002828,0.00003141,0.00019
 269,0.00013975,0.00000421,-0.00000844,0.00002108,-0.03622515,-0.089414
 83,0.52317932,-0.00380325,0.00481728,-0.00108511,-0.00059037,0.0012111
 0,0.00004861,-0.00064466,-0.00029470,0.00015397,-0.00031117,-0.0006157
 3,-0.00004886,-0.00703188,-0.00104759,0.00329817,0.00494939,-0.0034005
 0,0.00180914,0.00006823,0.00011058,-0.00006821,-0.00067695,0.00078626,
 -0.00085813,0.00035885,0.00034481,-0.00037564,0.00002108,-0.00002002,-
 0.00004442,0.00061205,-0.00002157,-0.00120171,-0.00013384,-0.00005997,
 0.00034298,-0.00006810,-0.00012834,-0.00003301,0.00040296,-0.00007483,
 -0.00030545,0.00147626,-0.00116853,-0.00083117,-0.00067757,0.00068958,
 0.00047879,0.00023466,0.00000885,-0.00016625,0.00100332,0.00016749,-0.
 00016585,-0.00022156,-0.00015842,-0.00015690,0.00019822,0.00040005,0.0
 0020348,-0.00006572,-0.00003641,-0.00006922,-0.00013943,0.00015517,-0.
 00043718,0.00006339,-0.00003093,0.00014616,-0.02246307,-0.07047974,0.0
 0440372,0.03204945,0.00601519,-0.00182916,-0.00244868,-0.00063317,0.00
 106063,0.00052291,0.00006009,-0.00138896,-0.00061305,-0.00075597,-0.00
 044829,-0.00019132,-0.00580440,0.01176547,0.00031241,0.00276883,-0.005
 29197,0.00163466,0.00017951,-0.00001559,0.00001150,-0.00053700,0.00033
 753,-0.00013665,0.00036401,0.00028394,-0.00033021,-0.00006787,-0.00001
 083,0.00003224,0.00014785,-0.00078416,-0.00034672,0.00017465,-0.000173
 08,-0.00025101,0.00004218,0.00008648,-0.00003469,0.00089026,-0.0006399
 0,-0.00050851,-0.00381639,-0.00512260,0.00231719,-0.00044763,0.0010058
 4,0.00010639,0.00020746,-0.00020675,-0.00004421,0.00143380,0.00002393,
 0.00006451,-0.00004463,-0.00008655,-0.00026254,0.00046146,0.00013109,0
 .00017508,-0.00017119,-0.00009666,-0.00005988,0.00017981,-0.00019129,-
 0.00051042,0.00003287,0.00005267,0.00007041,-0.07228734,-0.44365273,0.
 01076951,0.06504988,0.45639704,-0.00363609,-0.00350997,-0.00349459,-0.
 00011410,0.00034193,-0.00001789,0.00007547,0.00006206,-0.00024041,0.00
 012858,0.00014514,0.00013953,0.00353597,-0.00061661,0.00114535,0.00076
 984,0.00226050,-0.00087647,-0.00004652,-0.00000811,-0.00003251,0.00001
 405,0.00037509,-0.00003479,-0.00001003,-0.00006123,-0.00000802,-0.0001
 1991,-0.00007121,-0.00004343,-0.00053535,-0.00029869,0.00069374,0.0002
 7484,-0.00002033,-0.00015200,0.00002017,-0.00007440,-0.00006365,0.0001
 7600,0.00013143,-0.00052096,0.00067600,0.00110534,-0.00177602,0.000184
 41,-0.00002270,-0.00039969,-0.00007661,0.00007288,0.00013010,-0.000250
 27,0.00004751,-0.00003040,0.00005979,0.00001183,0.00007706,-0.00010253
 ,-0.00012291,-0.00016484,0.00002558,0.00002444,0.00003249,-0.00007563,
 -0.00017497,-0.00007281,-0.00001377,-0.00003047,-0.00004435,-0.0037390
 6,-0.05138472,-0.05554685,-0.00461659,0.00002624,0.06186669,-0.0009137
 6,0.00039144,-0.00030556,0.00001573,0.00004619,0.00004765,-0.00020470,
 0.00011227,-0.00004367,0.00008518,-0.00012924,-0.00000699,0.00103453,-
 0.00164385,0.00099356,0.00023185,-0.00042282,0.00011202,0.00000191,0.0
 0004684,-0.00003220,-0.00007868,0.00007592,-0.00007149,0.00001666,0.00
 004636,-0.00003781,-0.00005533,-0.00007109,-0.00002286,0.00016446,-0.0
 0004384,-0.00015962,-0.00000798,-0.00000881,0.00005555,-0.00002600,-0.
 00003182,0.00000428,-0.00003389,0.00024688,-0.00026888,-0.00051704,0.0
 0129902,-0.00282151,-0.00015161,0.00014649,0.00008182,0.00006201,-0.00
 000320,-0.00005306,0.00014033,0.00011892,-0.00009231,-0.00007681,-0.00
 007090,-0.00000520,-0.00000882,0.00013899,0.00002962,0.00000477,-0.000
 00062,-0.00001122,-0.00008119,0.00008592,-0.00008862,0.00002998,-0.000
 01841,0.00004982,-0.00824789,-0.01399705,0.03059841,-0.00031972,-0.001
 69677,0.00767201,0.00938890,-0.00087004,-0.00093393,-0.00100483,-0.000
 06242,0.00002674,0.00009043,-0.00016651,0.00000245,0.00005786,-0.00003
 028,-0.00007495,-0.00000693,-0.00015410,-0.00037699,0.00042396,0.00012
 175,-0.00010800,0.00000236,0.00002432,0.00001776,-0.00002315,-0.000011
 59,0.00007875,-0.00000850,0.00001416,0.00002477,-0.00001497,-0.0000178
 4,-0.00001221,-0.00001850,-0.00011730,-0.00031816,0.00022920,0.0001188
 9,-0.00000531,-0.00009532,0.00000907,0.00000257,-0.00001658,0.00001935
 ,0.00000548,-0.00005789,0.00129609,0.00014730,-0.00028339,-0.00003331,
 0.00026432,-0.00015134,0.00001283,-0.00005262,0.00004485,0.00023150,-0
 .00002414,-0.00005452,-0.00006798,-0.00001330,-0.00002823,0.00011563,0
 .00005105,0.00000113,-0.00004295,-0.00001631,0.00000050,0.00002082,0.0
 0001617,-0.00012531,0.00001308,0.00000239,0.00002263,-0.01191096,-0.07
 486528,0.07591557,-0.00361828,-0.01124820,0.05322436,0.01667005,0.0865
 7594,-0.00041356,-0.00072923,0.00018001,0.00000426,-0.00003497,-0.0000
 2727,0.00012256,-0.00000278,0.00009541,-0.00002401,0.00004648,0.000031
 83,-0.00011202,0.00039873,-0.00049765,-0.00010870,0.00024062,-0.000095
 83,-0.00000725,-0.00001655,0.00000464,0.00003282,-0.00001409,-0.000008
 48,-0.00001423,-0.00002211,0.00001937,0.00000350,0.00000624,-0.0000083
 5,-0.00001607,0.00003168,0.00007456,0.00001351,0.00001546,0.00002099,-
 0.00001486,-0.00001427,0.00000796,0.00000577,-0.00003221,0.00009024,-0
 .00097491,-0.00075447,0.00051163,0.00003596,-0.00006312,-0.00004765,-0
 .00001585,0.00001921,0.00001205,-0.00008048,-0.00003709,-0.00000711,0.
 00002794,0.00001798,0.00002696,-0.00002082,-0.00005527,-0.00003649,0.0
 0000591,0.00000228,0.00000630,0.00001054,-0.00001812,0.00002758,-0.000
 00613,0.00000396,-0.00001034,0.04226110,0.13682223,-0.46788278,-0.0013
 3331,-0.00876668,-0.00278332,-0.04118342,-0.12746683,0.47162931,-0.004
 67316,0.00173765,0.00072220,0.00047970,-0.00055003,-0.00002671,-0.0003
 2940,0.00171448,-0.00079684,0.00080822,-0.00002952,-0.00004596,0.01143
 214,-0.00225878,0.00123066,-0.00083549,0.00039293,0.00044234,-0.000047
 97,0.00018512,-0.00015434,-0.00011393,0.00029917,-0.00016289,-0.000120
 47,0.00005677,0.00000678,-0.00011421,-0.00006219,0.00006948,0.00021827
 ,0.00017136,-0.00053119,-0.00015216,0.00000935,0.00017340,0.00000738,-
 0.00005119,-0.00003774,-0.00057525,0.00225913,-0.00146559,-0.30972903,
 -0.19840877,-0.05312368,-0.00025782,0.00017197,0.00028573,0.00009680,0
 .00001489,-0.00008620,0.00055875,0.00030074,-0.00009032,-0.00029778,-0
 .00019269,-0.00012680,-0.00012125,0.00064758,0.00014955,0.00005016,0.0
 0007294,0.00001543,-0.00044710,0.00066006,-0.00023688,0.00008826,-0.00
 009965,0.00018023,0.00604442,-0.00120267,-0.00146221,-0.00431921,0.008
 29808,-0.00027141,-0.00046981,-0.00155301,0.00180795,0.30272215,-0.003
 40797,0.00477749,-0.00099594,-0.00025519,0.00018954,0.00004554,0.00148
 101,-0.00447834,0.00447019,-0.00129662,-0.00026623,-0.00026512,-0.0323
 6465,-0.03652909,-0.00160166,0.00045971,-0.00138799,0.00149396,0.00011
 908,-0.00015571,0.00009135,-0.00026196,0.00039028,-0.00027458,0.000149
 57,0.00014932,-0.00012283,0.00043309,0.00013914,0.00005885,0.00014651,
 -0.00015194,-0.00063108,0.00000165,-0.00003351,0.00001600,-0.00000874,
 -0.00000571,0.00002176,0.00075656,0.00218164,-0.00031449,-0.16004431,-
 0.15147805,-0.00963182,-0.00034807,0.00070621,0.00019854,0.00013397,-0
 .00009896,-0.00004080,0.00051118,0.00058986,-0.00039304,-0.00027551,-0
 .00002112,-0.00010765,0.00024239,-0.00008291,0.00011529,-0.00010847,-0
 .00007811,-0.00008430,0.00002546,0.00025162,-0.00034572,0.00002171,0.0
 0003078,0.00005514,0.00052226,-0.00771152,0.00088903,0.00731648,-0.000
 04521,-0.00140091,-0.00130560,0.00081220,0.00043782,0.18730881,0.19222
 517,-0.00120725,0.00003788,-0.00048417,-0.00000935,0.00027090,0.000482
 71,-0.00223499,0.00304994,-0.00190197,0.00072762,0.00026360,0.00075644
 ,0.02236833,0.02012363,0.00140204,0.00032984,-0.00023613,0.00012514,0.
 00003188,0.00006232,-0.00009763,-0.00014072,0.00011918,-0.00002710,0.0
 0002255,-0.00001914,-0.00007903,0.00004525,0.00012426,0.00035035,-0.00
 009868,-0.00009564,0.00006623,0.00008061,-0.00000611,-0.00006131,-0.00
 000814,-0.00002009,-0.00000980,0.00108901,-0.00007967,0.00050679,-0.07
 662024,-0.03179160,-0.03842381,-0.00000281,0.00014280,-0.00009551,-0.0
 0000474,-0.00001288,0.00004103,-0.00014075,-0.00034559,0.00008253,0.00
 002974,0.00008158,-0.00002482,0.00005513,0.00031601,-0.00016739,0.0000
 0099,0.00007777,0.00009581,0.00010571,-0.00051103,-0.00017558,0.000018
 41,0.00007587,-0.00001063,-0.00434975,0.00231029,-0.00722771,0.0009020
 8,-0.00153549,0.00221354,0.00555280,-0.00065704,-0.00133347,0.05350086
 ,0.00829058,0.04401035,-0.00095246,-0.00013758,0.00022298,0.00066591,-
 0.00021300,0.00020921,0.00129918,-0.00114202,0.00011310,0.00052965,0.0
 0241159,0.00314475,0.00128018,0.00086005,-0.00109738,0.00047230,-0.000
 03217,-0.00001165,0.00002976,-0.00024033,-0.00048314,-0.00021896,-0.00
 004041,-0.00002459,-0.00000915,-0.00003622,-0.00006380,0.00011360,0.00
 036750,-0.00124836,0.00042612,-0.00026929,0.00005728,-0.00018084,-0.00
 001405,0.00002921,0.00011042,-0.00003241,-0.00029222,-0.00036284,-0.00
 025144,0.00006897,-0.00048878,-0.00108259,0.00041490,-0.00042971,0.000
 40496,0.00013850,0.00011512,-0.00012366,-0.00007216,-0.00288982,-0.006
 15642,-0.00422975,-0.00806634,0.00289350,0.00168055,-0.00895397,0.0052
 7094,-0.00299932,-0.00235594,-0.00109983,-0.00056615,-0.00087634,-0.00
 014616,-0.00101171,0.00015121,-0.00007973,0.00048042,-0.00051242,-0.00
 035146,0.00008627,0.00038115,0.00032047,-0.00010653,0.00009704,0.00011
 529,-0.00003778,0.00033170,0.00027909,-0.00001832,0.38700467,-0.001793
 19,0.00092398,0.00031982,-0.00007730,0.00069424,0.00019969,0.00496555,
 -0.00478669,-0.00195659,-0.00089239,-0.00371671,-0.00205544,0.00126991
 ,0.00015202,-0.00043461,0.00033363,-0.00108871,0.00049722,-0.00002913,
 0.00011600,0.00013195,-0.00006321,0.00017290,-0.00008160,-0.00029899,0
 .00028840,-0.00013747,0.00029807,0.00028320,-0.00031391,-0.00001194,-0
 .00023311,-0.00029011,0.00009750,0.00001885,0.00000305,-0.00003721,-0.
 00002474,0.00015136,-0.00019750,-0.00016018,0.00009107,-0.00064909,0.0
 0005588,0.00010281,-0.00009379,0.00037332,0.00006282,0.00004860,-0.000
 04760,-0.00000978,-0.01139343,-0.00204453,-0.00653640,0.00195959,-0.00
 258833,0.00809267,0.00810736,0.00240064,0.00273171,-0.00064486,0.00059
 936,-0.00017131,0.00026675,0.00052336,0.00037533,0.00005762,-0.0002016
 8,-0.00002089,-0.00046238,-0.00006619,0.00004626,0.00023269,0.00004265
 ,-0.00003275,0.00011086,0.00002855,-0.00002638,0.00036964,0.00016566,-
 0.00011858,-0.25220451,0.22392324,-0.00078876,-0.00002035,0.00030140,0
 .00010779,0.00016886,0.00052396,0.00345280,-0.00169299,-0.00349528,0.0
 0089580,-0.00001066,-0.00052037,0.00050906,0.00052847,0.00032867,0.000
 08485,-0.00009486,-0.00010199,0.00010752,-0.00017859,0.00080639,-0.000
 09709,0.00000655,0.00003509,-0.00009727,0.00004831,-0.00006341,-0.0006
 0988,0.00016822,0.00115087,0.00001246,-0.00013246,-0.00015465,-0.00004
 308,-0.00000021,0.00003396,0.00003579,0.00001819,-0.00006522,0.0001645
 2,0.00008303,0.00006217,-0.00031933,-0.00031258,0.00027649,-0.00010552
 ,0.00014173,0.00014708,0.00005508,-0.00004243,-0.00003923,-0.00760320,
 -0.00627906,-0.00103637,-0.00014459,0.00397342,-0.00248980,-0.00327222
 ,0.00075712,0.00292813,0.00053424,-0.00011603,-0.00003439,-0.00014112,
 0.00010756,-0.00001865,0.00014272,-0.00008597,0.00014127,-0.00018360,-
 0.00010845,0.00006243,0.00012961,0.00011790,-0.00006107,0.00002231,0.0
 0002259,-0.00002534,0.00014825,0.00007811,-0.00003008,0.03405832,-0.11
 961868,0.49395598,-0.00013487,0.00075856,-0.00002011,-0.00081440,0.000
 76576,0.00024309,0.00238491,-0.00273546,-0.00076550,-0.00323200,-0.006
 54675,-0.00761887,-0.00031924,-0.00073691,0.00024826,-0.00034116,-0.00
 071272,0.00030774,0.00006478,0.00054358,0.00132860,0.00017818,0.000160
 99,-0.00002693,-0.00022154,0.00022866,-0.00003653,-0.00027066,-0.00068
 216,0.00037291,-0.00044621,0.00016903,-0.00029271,0.00027214,0.0000220
 4,-0.00002543,-0.00021187,0.00001373,0.00050024,0.00010868,0.00007545,
 0.00003429,0.00013589,0.00102870,-0.00029182,0.00040484,-0.00021459,-0
 .00011382,-0.00008935,0.00010309,0.00007005,-0.00458512,0.00022629,-0.
 00068025,0.00457881,0.00208384,0.00295350,0.00090889,0.00006813,0.0024
 7674,0.00281476,0.00185641,0.00124307,0.00128977,0.00052540,0.00150705
 ,-0.00008836,-0.00000890,-0.00053067,0.00022384,0.00028585,-0.00005737
 ,-0.00022652,-0.00028410,0.00008380,-0.00003377,-0.00008414,0.00002399
 ,-0.00011297,-0.00012895,-0.00004827,-0.31697234,0.20486781,0.02564324
 ,0.32142521,0.00079399,-0.00067228,-0.00009578,0.00026617,-0.00088474,
 -0.00069278,-0.00245966,0.00072189,-0.00142616,-0.00211391,0.00461294,
 0.00191226,-0.00092211,0.00008190,0.00085309,-0.00008122,0.00069783,-0
 .00025991,0.00001179,-0.00003127,-0.00074974,0.00002393,-0.00010760,0.
 00003750,0.00029241,-0.00017753,0.00013525,-0.00058390,-0.00068079,0.0
 0103220,0.00004979,0.00011615,0.00022537,-0.00010706,-0.00001720,-0.00
 000180,0.00004941,0.00002219,-0.00018543,0.00031646,0.00023380,-0.0000
 1055,0.00031047,0.00001208,-0.00002866,0.00000421,-0.00019593,-0.00001
 435,-0.00001531,0.00001283,-0.00000524,0.00167904,0.00076217,0.0008654
 4,0.00168503,-0.00443674,-0.00285215,-0.00483620,-0.00778958,-0.001972
 00,0.00304590,-0.00086059,0.00052835,-0.00052555,-0.00033720,-0.000546
 73,-0.00003684,0.00009870,0.00008932,0.00022291,0.00000449,-0.00001334
 ,-0.00010158,0.00001732,0.00000761,-0.00005660,-0.00001079,0.00000872,
 -0.00018712,-0.00006963,0.00005135,0.19302435,-0.14175093,-0.00825140,
 -0.20401541,0.15922055,0.00004434,0.00021845,-0.00012467,-0.00006028,-
 0.00023135,-0.00068342,-0.00040969,-0.00107297,0.00129784,-0.00470623,
 -0.00108511,-0.00166648,-0.00027807,-0.00017080,-0.00009971,-0.0000149
 7,-0.00026421,0.00023886,-0.00033291,0.00003940,-0.00096078,0.00008910
 ,0.00005673,-0.00006401,0.00004306,0.00005178,0.00004203,0.00013544,0.
 00021453,-0.00029364,-0.00002724,0.00008630,0.00003539,0.00008780,0.00
 000457,-0.00003041,-0.00006279,-0.00001774,0.00017265,-0.00003099,-0.0
 0004050,-0.00001188,0.00013873,0.00039886,-0.00017008,0.00010212,-0.00
 005947,-0.00013350,-0.00004643,0.00003527,0.00003712,-0.00068287,0.000
 85571,-0.00088987,0.00296470,-0.00161123,0.00100179,0.00539007,-0.0003
 4033,-0.00351470,-0.00111003,0.00071287,-0.00009137,0.00017853,0.00008
 298,0.00016784,-0.00012449,-0.00000048,-0.00019030,0.00007985,0.000086
 09,-0.00003937,-0.00007453,-0.00009462,0.00004548,-0.00000452,-0.00001
 658,0.00001551,-0.00005509,-0.00002534,-0.00001017,0.07434987,-0.04386
 795,-0.06310481,-0.03420076,0.01705322,0.06681463,0.00036072,-0.000090
 78,0.00000038,-0.00009806,-0.00002276,-0.00006674,0.00005923,0.0002118
 4,-0.00119337,0.00023087,0.00035685,0.00006305,-0.00040291,-0.00023281
 ,0.00039686,-0.00014825,0.00016584,-0.00009620,0.00000600,-0.00006054,
 0.00014532,0.00005364,-0.00001348,0.00003060,0.00003943,-0.00003776,0.
 00003338,-0.00049742,-0.00014690,0.00056823,-0.00013640,0.00008310,-0.
 00000571,0.00001599,0.00000024,-0.00000491,-0.00001188,0.00002527,0.00
 001470,0.00017318,0.00012861,0.00000733,0.00015688,0.00025033,-0.00003
 355,0.00012200,-0.00014700,-0.00000453,-0.00002999,0.00003289,0.000015
 51,0.00004477,-0.00044041,0.00071307,-0.00035622,-0.00004928,-0.001912
 15,-0.00166992,-0.00003733,0.00053228,0.00012030,0.00003144,0.00014548
 ,0.00011736,-0.00003554,0.00016413,-0.00004023,0.00002439,-0.00009230,
 0.00019063,0.00010157,-0.00001399,-0.00012599,-0.00007996,0.00001788,-
 0.00004634,-0.00004214,0.00000758,-0.00012092,-0.00010250,0.00002320,-
 0.04973810,0.04586338,-0.05269865,-0.00669035,0.01426664,-0.04138172,0
 .05842197,0.00019529,-0.00023372,-0.00000286,0.00000701,-0.00009366,0.
 00008446,-0.00013736,0.00025523,-0.00045085,0.00013149,0.00038131,0.00
 003276,-0.00020917,0.00028367,0.00001807,-0.00006760,0.00017975,-0.000
 10058,-0.00005470,-0.00010800,0.00007259,0.00000776,-0.00003117,0.0000
 1283,0.00002132,-0.00003469,0.00001518,-0.00036321,0.00008838,0.000142
 33,0.00001130,0.00005549,0.00003799,-0.00001296,-0.00000448,0.00000241
 ,0.00000265,0.00000999,-0.00000183,0.00006330,0.00002103,0.00000866,0.
 00014025,-0.00014447,0.00010218,0.00001898,-0.00007711,-0.00001660,-0.
 00000898,0.00000921,0.00000224,-0.00069401,-0.00246360,0.00040121,0.00
 025922,0.00378345,-0.00225007,0.00064675,-0.00030339,-0.00060887,0.000
 03479,0.00005853,0.00011616,-0.00001665,-0.00007165,-0.00003636,-0.000
 00006,0.00002095,0.00000481,0.00009915,-0.00002126,0.00000227,-0.00003
 309,0.00002735,-0.00000640,-0.00003555,0.00000373,0.00000276,-0.000075
 05,-0.00001487,0.00003103,0.05770554,-0.07405284,0.13072464,0.00236677
 ,-0.00859202,0.02900193,-0.06000317,0.08106885,0.00019081,-0.00005992,
 -0.00006658,-0.00009260,-0.00002939,0.00002038,-0.00042078,0.00023887,
 -0.00001743,0.00007314,-0.00007635,-0.00038205,-0.00024505,-0.00008263
 ,0.00018319,-0.00007393,0.00007423,-0.00003038,-0.00003969,-0.00001223
 ,0.00009006,0.00001748,-0.00000927,0.00000479,0.00001665,-0.00000737,0
 .00001685,-0.00021369,-0.00007816,0.00014560,-0.00001676,0.00002993,0.
 00003149,0.00001724,0.00000332,-0.00000434,-0.00001608,-0.00000152,0.0
 0002930,0.00005469,0.00003882,-0.00001138,0.00010142,0.00005797,-0.000
 07316,0.00003714,-0.00004475,-0.00003867,-0.00001436,0.00001216,0.0000
 1091,0.00070754,-0.00058595,0.00068835,-0.00067724,0.00085951,-0.00262
 972,0.00107922,-0.00015153,0.00009815,-0.00001305,0.00001860,0.0000708
 6,0.00007496,-0.00001006,0.00005994,-0.00001084,0.00001719,-0.00003306
 ,0.00007306,0.00002631,-0.00002161,-0.00004517,-0.00002626,0.00002008,
 -0.00001092,-0.00000555,0.00000975,-0.00005902,-0.00002690,0.00002721,
 -0.10279147,0.16286669,-0.42951322,0.00767245,-0.00569365,0.00221003,0
 .09462484,-0.15734211,0.42910466\\0.00000958,-0.00000422,-0.00001065,0
 .00000481,0.00000340,0.00000546,0.00000276,-0.00001022,0.00000138,-0.0
 0001005,0.00000400,-0.00000149,0.00000176,0.00001414,-0.00000120,-0.00
 001354,0.00000469,0.00000079,0.00000183,-0.00000006,0.00000183,0.00000
 256,0.00000220,-0.00000195,0.00000131,0.00000351,0.00000379,-0.0000013
 7,-0.00000277,-0.00000168,-0.00000407,-0.00000057,0.00000068,0.0000006
 9,-0.00000191,0.00000055,0.00000090,-0.00000167,0.00000393,-0.00000275
 ,0.00000178,-0.00000078,-0.00000880,-0.00000847,0.,0.00000383,-0.00000
 234,0.00000087,0.00000061,0.00000111,0.00000651,0.00000726,0.00000069,
 -0.00000603,-0.00001022,0.00000229,0.00000372,0.00001110,-0.00000463,0
 .00000198,-0.00000267,-0.00000158,0.00000435,0.00000024,0.00000346,0.0
 0000006,0.00000079,0.00000513,0.00000114,0.00000747,0.00001009,0.00000
 175,-0.00000801,-0.00000269,-0.00000192,-0.00000716,-0.00000082,-0.000
 00833,0.00000994,-0.00000623,-0.00001260,0.00000650,-0.00000431,0.0000
 0215,-0.00000613,-0.00000159,0.00000399,0.00000085,-0.00000242,0.00000
 169\\\@


 ERWIN WITH HIS PSI CAN DO
 CALCULATIONS QUITE A FEW.
 BUT ONE THING HAS NOT BEEN SEEN
 JUST WHAT DOES PSI REALLY MEAN.
 -- WALTER HUCKEL, TRANS. BY FELIX BLOCH
 Job cpu time:       0 days  0 hours 31 minutes 59.9 seconds.
 File lengths (MBytes):  RWF=    221 Int=      0 D2E=      0 Chk=      6 Scr=      1
 Normal termination of Gaussian 09 at Sun Jan 15 22:26:44 2017.
