 Entering Gaussian System, Link 0=g09
 Initial command:
 /global/software/gaussian/g09.e01/l1.exe "/scratch/10464868.yak.local/Gau-3486.inp" -scrdir="/scratch/10464868.yak.local/"
 Entering Link 1 = /global/software/gaussian/g09.e01/l1.exe PID=      3487.
  
 Copyright (c) 1988,1990,1992,1993,1995,1998,2003,2009,2015,
            Gaussian, Inc.  All Rights Reserved.
  
 This is part of the Gaussian(R) 09 program.  It is based on
 the Gaussian(R) 03 system (copyright 2003, Gaussian, Inc.),
 the Gaussian(R) 98 system (copyright 1998, Gaussian, Inc.),
 the Gaussian(R) 94 system (copyright 1995, Gaussian, Inc.),
 the Gaussian 92(TM) system (copyright 1992, Gaussian, Inc.),
 the Gaussian 90(TM) system (copyright 1990, Gaussian, Inc.),
 the Gaussian 88(TM) system (copyright 1988, Gaussian, Inc.),
 the Gaussian 86(TM) system (copyright 1986, Carnegie Mellon
 University), and the Gaussian 82(TM) system (copyright 1983,
 Carnegie Mellon University). Gaussian is a federally registered
 trademark of Gaussian, Inc.
  
 This software contains proprietary and confidential information,
 including trade secrets, belonging to Gaussian, Inc.
  
 This software is provided under written license and may be
 used, copied, transmitted, or stored only in accord with that
 written license.
  
 The following legend is applicable only to US Government
 contracts under FAR:
  
                    RESTRICTED RIGHTS LEGEND
  
 Use, reproduction and disclosure by the US Government is
 subject to restrictions as set forth in subparagraphs (a)
 and (c) of the Commercial Computer Software - Restricted
 Rights clause in FAR 52.227-19.
  
 Gaussian, Inc.
 340 Quinnipiac St., Bldg. 40, Wallingford CT 06492
  
  
 ---------------------------------------------------------------
 Warning -- This program may not be used in any manner that
 competes with the business of Gaussian, Inc. or will provide
 assistance to any competitor of Gaussian, Inc.  The licensee
 of this program is prohibited from giving any competitor of
 Gaussian, Inc. access to this program.  By using this program,
 the user acknowledges that Gaussian, Inc. is engaged in the
 business of creating and licensing software in the field of
 computational chemistry and represents and warrants to the
 licensee that it is not a competitor of Gaussian, Inc. and that
 it will not use this program in any manner prohibited above.
 ---------------------------------------------------------------
  

 Cite this work as:
 Gaussian 09, Revision E.01,
 M. J. Frisch, G. W. Trucks, H. B. Schlegel, G. E. Scuseria, 
 M. A. Robb, J. R. Cheeseman, G. Scalmani, V. Barone, B. Mennucci, 
 G. A. Petersson, H. Nakatsuji, M. Caricato, X. Li, H. P. Hratchian, 
 A. F. Izmaylov, J. Bloino, G. Zheng, J. L. Sonnenberg, M. Hada, 
 M. Ehara, K. Toyota, R. Fukuda, J. Hasegawa, M. Ishida, T. Nakajima, 
 Y. Honda, O. Kitao, H. Nakai, T. Vreven, J. A. Montgomery, Jr., 
 J. E. Peralta, F. Ogliaro, M. Bearpark, J. J. Heyd, E. Brothers, 
 K. N. Kudin, V. N. Staroverov, T. Keith, R. Kobayashi, J. Normand, 
 K. Raghavachari, A. Rendell, J. C. Burant, S. S. Iyengar, J. Tomasi, 
 M. Cossi, N. Rega, J. M. Millam, M. Klene, J. E. Knox, J. B. Cross, 
 V. Bakken, C. Adamo, J. Jaramillo, R. Gomperts, R. E. Stratmann, 
 O. Yazyev, A. J. Austin, R. Cammi, C. Pomelli, J. W. Ochterski, 
 R. L. Martin, K. Morokuma, V. G. Zakrzewski, G. A. Voth, 
 P. Salvador, J. J. Dannenberg, S. Dapprich, A. D. Daniels, 
 O. Farkas, J. B. Foresman, J. V. Ortiz, J. Cioslowski, 
 and D. J. Fox, Gaussian, Inc., Wallingford CT, 2013.
 
 ******************************************
 Gaussian 09:  ES64L-G09RevE.01 30-Nov-2015
                15-Jan-2017 
 ******************************************
 -------------------------
 # b3lyp/6-31g(d) opt freq
 -------------------------
 1/14=-1,18=20,19=15,26=3,38=1/1,3;
 2/9=110,12=2,17=6,18=5,40=1/2;
 3/5=1,6=6,7=1,11=2,16=1,25=1,30=1,71=1,74=-5/1,2,3;
 4//1;
 5/5=2,38=5/2;
 6/7=2,8=2,9=2,10=2,28=1/1;
 7//1,2,3,16;
 1/14=-1,18=20,19=15,26=3/3(2);
 2/9=110/2;
 99//99;
 2/9=110/2;
 3/5=1,6=6,7=1,11=2,16=1,25=1,30=1,71=1,74=-5/1,2,3;
 4/5=5,16=3,69=1/1;
 5/5=2,38=5/2;
 7//1,2,3,16;
 1/14=-1,18=20,19=15,26=3/3(-5);
 2/9=110/2;
 6/7=2,8=2,9=2,10=2,19=2,28=1/1;
 99/9=1/99;
 -----------------------------------
 glo_1w_alpha_ircr_boat6_B3LYP_631Gd
 -----------------------------------
 Symbolic Z-matrix:
 Charge =  0 Multiplicity = 1
 6                    -0.45033   0.88263   0.13561 
 6                     1.49033  -0.75378   0.06909 
 6                     1.05747   0.74258  -0.04935 
 6                     0.36979  -1.7798    0.34696 
 1                     0.78812  -2.77039   0.09278 
 1                     2.15663  -0.82334   0.93182 
 1                    -0.75464   0.48151   1.10786 
 1                     1.26676   1.0516   -1.08924 
 6                    -0.9536   -1.67904  -0.44341 
 8                    -0.97977   0.06557  -0.92642 
 6                    -0.96973   2.29674   0.00164 
 1                    -0.39399   2.94281   0.67403 
 1                    -0.83249   2.64355  -1.03301 
 8                    -2.36013   2.28359   0.35981 
 1                    -2.7049    3.18363   0.26316 
 8                     0.0526   -1.70227   1.71813 
 1                    -0.91447  -1.88749   1.7347 
 8                     2.30248  -1.14818  -1.05534 
 1                     1.79082  -0.98991  -1.86565 
 8                     1.72895   1.58173   0.85874 
 1                     2.67563   1.5463    0.59332 
 8                    -3.43265  -0.06719  -0.74602 
 1                    -3.23278  -0.91302  -0.26503 
 1                    -2.01796   0.15825  -0.98687 
 1                    -3.54064   0.62748  -0.07066 
 8                     4.15297   0.86822  -0.36555 
 1                     4.82484   0.48053   0.21524 
 1                     3.71107   0.09756  -0.78397 
 8                    -1.99326  -1.90506   0.23591 
 1                    -0.90204  -1.99052  -1.49873 
 
 Add virtual bond connecting atoms H24        and O22        Dist= 2.75D+00.
 Add virtual bond connecting atoms O26        and H21        Dist= 3.57D+00.
 Add virtual bond connecting atoms H28        and O18        Dist= 3.59D+00.

 GradGradGradGradGradGradGradGradGradGradGradGradGradGradGradGradGradGrad
 Berny optimization.
 Initialization pass.
                           ----------------------------
                           !    Initial Parameters    !
                           ! (Angstroms and Degrees)  !
 --------------------------                            --------------------------
 ! Name  Definition              Value          Derivative Info.                !
 --------------------------------------------------------------------------------
 ! R1    R(1,3)                  1.5255         estimate D2E/DX2                !
 ! R2    R(1,7)                  1.0949         estimate D2E/DX2                !
 ! R3    R(1,10)                 1.4408         estimate D2E/DX2                !
 ! R4    R(1,11)                 1.5124         estimate D2E/DX2                !
 ! R5    R(2,3)                  1.5622         estimate D2E/DX2                !
 ! R6    R(2,4)                  1.5445         estimate D2E/DX2                !
 ! R7    R(2,6)                  1.0923         estimate D2E/DX2                !
 ! R8    R(2,18)                 1.442          estimate D2E/DX2                !
 ! R9    R(3,8)                  1.1048         estimate D2E/DX2                !
 ! R10   R(3,20)                 1.407          estimate D2E/DX2                !
 ! R11   R(4,5)                  1.1049         estimate D2E/DX2                !
 ! R12   R(4,9)                  1.5447         estimate D2E/DX2                !
 ! R13   R(4,16)                 1.4095         estimate D2E/DX2                !
 ! R14   R(9,29)                 1.2623         estimate D2E/DX2                !
 ! R15   R(9,30)                 1.1015         estimate D2E/DX2                !
 ! R16   R(10,24)                1.0441         estimate D2E/DX2                !
 ! R17   R(11,12)                1.0959         estimate D2E/DX2                !
 ! R18   R(11,13)                1.0998         estimate D2E/DX2                !
 ! R19   R(11,14)                1.4358         estimate D2E/DX2                !
 ! R20   R(14,15)                0.9686         estimate D2E/DX2                !
 ! R21   R(16,17)                0.9848         estimate D2E/DX2                !
 ! R22   R(18,19)                0.9713         estimate D2E/DX2                !
 ! R23   R(18,28)                1.8999         estimate D2E/DX2                !
 ! R24   R(20,21)                0.9838         estimate D2E/DX2                !
 ! R25   R(21,26)                1.8873         estimate D2E/DX2                !
 ! R26   R(22,23)                0.9933         estimate D2E/DX2                !
 ! R27   R(22,24)                1.4526         estimate D2E/DX2                !
 ! R28   R(22,25)                0.9749         estimate D2E/DX2                !
 ! R29   R(26,27)                0.969          estimate D2E/DX2                !
 ! R30   R(26,28)                0.982          estimate D2E/DX2                !
 ! A1    A(3,1,7)              110.4098         estimate D2E/DX2                !
 ! A2    A(3,1,10)             102.8125         estimate D2E/DX2                !
 ! A3    A(3,1,11)             114.4894         estimate D2E/DX2                !
 ! A4    A(7,1,10)             110.1614         estimate D2E/DX2                !
 ! A5    A(7,1,11)             109.0114         estimate D2E/DX2                !
 ! A6    A(10,1,11)            109.8004         estimate D2E/DX2                !
 ! A7    A(3,2,4)              116.6735         estimate D2E/DX2                !
 ! A8    A(3,2,6)              106.852          estimate D2E/DX2                !
 ! A9    A(3,2,18)             111.0333         estimate D2E/DX2                !
 ! A10   A(4,2,6)              104.9605         estimate D2E/DX2                !
 ! A11   A(4,2,18)             111.5428         estimate D2E/DX2                !
 ! A12   A(6,2,18)             104.7682         estimate D2E/DX2                !
 ! A13   A(1,3,2)              110.6469         estimate D2E/DX2                !
 ! A14   A(1,3,8)              106.0019         estimate D2E/DX2                !
 ! A15   A(1,3,20)             109.7967         estimate D2E/DX2                !
 ! A16   A(2,3,8)              106.665          estimate D2E/DX2                !
 ! A17   A(2,3,20)             112.9606         estimate D2E/DX2                !
 ! A18   A(8,3,20)             110.5023         estimate D2E/DX2                !
 ! A19   A(2,4,5)              106.2293         estimate D2E/DX2                !
 ! A20   A(2,4,9)              119.0886         estimate D2E/DX2                !
 ! A21   A(2,4,16)             107.5622         estimate D2E/DX2                !
 ! A22   A(5,4,9)              105.3748         estimate D2E/DX2                !
 ! A23   A(5,4,16)             110.9953         estimate D2E/DX2                !
 ! A24   A(9,4,16)             107.5394         estimate D2E/DX2                !
 ! A25   A(4,9,29)             114.7444         estimate D2E/DX2                !
 ! A26   A(4,9,30)             115.572          estimate D2E/DX2                !
 ! A27   A(29,9,30)            120.2315         estimate D2E/DX2                !
 ! A28   A(1,10,24)            110.9615         estimate D2E/DX2                !
 ! A29   A(1,11,12)            108.4483         estimate D2E/DX2                !
 ! A30   A(1,11,13)            109.5915         estimate D2E/DX2                !
 ! A31   A(1,11,14)            107.5712         estimate D2E/DX2                !
 ! A32   A(12,11,13)           109.0104         estimate D2E/DX2                !
 ! A33   A(12,11,14)           111.1664         estimate D2E/DX2                !
 ! A34   A(13,11,14)           111.001          estimate D2E/DX2                !
 ! A35   A(11,14,15)           108.1354         estimate D2E/DX2                !
 ! A36   A(4,16,17)            103.121          estimate D2E/DX2                !
 ! A37   A(2,18,19)            108.0147         estimate D2E/DX2                !
 ! A38   A(2,18,28)             97.2872         estimate D2E/DX2                !
 ! A39   A(19,18,28)           113.7577         estimate D2E/DX2                !
 ! A40   A(3,20,21)            105.2852         estimate D2E/DX2                !
 ! A41   A(20,21,26)           154.5889         estimate D2E/DX2                !
 ! A42   A(23,22,24)            90.9438         estimate D2E/DX2                !
 ! A43   A(23,22,25)           107.0737         estimate D2E/DX2                !
 ! A44   A(24,22,25)            96.4395         estimate D2E/DX2                !
 ! A45   A(10,24,22)           160.9111         estimate D2E/DX2                !
 ! A46   A(21,26,27)           112.4567         estimate D2E/DX2                !
 ! A47   A(21,26,28)            98.4066         estimate D2E/DX2                !
 ! A48   A(27,26,28)           104.6796         estimate D2E/DX2                !
 ! A49   A(18,28,26)           155.3801         estimate D2E/DX2                !
 ! D1    D(7,1,3,2)             58.0429         estimate D2E/DX2                !
 ! D2    D(7,1,3,8)            173.3122         estimate D2E/DX2                !
 ! D3    D(7,1,3,20)           -67.3158         estimate D2E/DX2                !
 ! D4    D(10,1,3,2)           -59.4582         estimate D2E/DX2                !
 ! D5    D(10,1,3,8)            55.8111         estimate D2E/DX2                !
 ! D6    D(10,1,3,20)          175.1831         estimate D2E/DX2                !
 ! D7    D(11,1,3,2)          -178.4922         estimate D2E/DX2                !
 ! D8    D(11,1,3,8)           -63.2229         estimate D2E/DX2                !
 ! D9    D(11,1,3,20)           56.1491         estimate D2E/DX2                !
 ! D10   D(3,1,10,24)         -173.4349         estimate D2E/DX2                !
 ! D11   D(7,1,10,24)           68.8882         estimate D2E/DX2                !
 ! D12   D(11,1,10,24)         -51.179          estimate D2E/DX2                !
 ! D13   D(3,1,11,12)          -52.8019         estimate D2E/DX2                !
 ! D14   D(3,1,11,13)           66.0939         estimate D2E/DX2                !
 ! D15   D(3,1,11,14)         -173.1269         estimate D2E/DX2                !
 ! D16   D(7,1,11,12)           71.4103         estimate D2E/DX2                !
 ! D17   D(7,1,11,13)         -169.6939         estimate D2E/DX2                !
 ! D18   D(7,1,11,14)          -48.9147         estimate D2E/DX2                !
 ! D19   D(10,1,11,12)        -167.8255         estimate D2E/DX2                !
 ! D20   D(10,1,11,13)         -48.9297         estimate D2E/DX2                !
 ! D21   D(10,1,11,14)          71.8495         estimate D2E/DX2                !
 ! D22   D(4,2,3,1)             -0.2981         estimate D2E/DX2                !
 ! D23   D(4,2,3,8)           -115.1518         estimate D2E/DX2                !
 ! D24   D(4,2,3,20)           123.2553         estimate D2E/DX2                !
 ! D25   D(6,2,3,1)           -117.3007         estimate D2E/DX2                !
 ! D26   D(6,2,3,8)            127.8455         estimate D2E/DX2                !
 ! D27   D(6,2,3,20)             6.2526         estimate D2E/DX2                !
 ! D28   D(18,2,3,1)           129.0062         estimate D2E/DX2                !
 ! D29   D(18,2,3,8)            14.1524         estimate D2E/DX2                !
 ! D30   D(18,2,3,20)         -107.4405         estimate D2E/DX2                !
 ! D31   D(3,2,4,5)            163.0573         estimate D2E/DX2                !
 ! D32   D(3,2,4,9)             44.507          estimate D2E/DX2                !
 ! D33   D(3,2,4,16)           -78.0265         estimate D2E/DX2                !
 ! D34   D(6,2,4,5)            -78.9054         estimate D2E/DX2                !
 ! D35   D(6,2,4,9)            162.5443         estimate D2E/DX2                !
 ! D36   D(6,2,4,16)            40.0108         estimate D2E/DX2                !
 ! D37   D(18,2,4,5)            33.9966         estimate D2E/DX2                !
 ! D38   D(18,2,4,9)           -84.5537         estimate D2E/DX2                !
 ! D39   D(18,2,4,16)          152.9128         estimate D2E/DX2                !
 ! D40   D(3,2,18,19)          -57.5487         estimate D2E/DX2                !
 ! D41   D(3,2,18,28)           60.3994         estimate D2E/DX2                !
 ! D42   D(4,2,18,19)           74.4316         estimate D2E/DX2                !
 ! D43   D(4,2,18,28)         -167.6203         estimate D2E/DX2                !
 ! D44   D(6,2,18,19)         -172.546          estimate D2E/DX2                !
 ! D45   D(6,2,18,28)          -54.5978         estimate D2E/DX2                !
 ! D46   D(1,3,20,21)         -171.5585         estimate D2E/DX2                !
 ! D47   D(2,3,20,21)           64.4201         estimate D2E/DX2                !
 ! D48   D(8,3,20,21)          -54.9817         estimate D2E/DX2                !
 ! D49   D(2,4,9,29)          -140.2068         estimate D2E/DX2                !
 ! D50   D(2,4,9,30)            73.1622         estimate D2E/DX2                !
 ! D51   D(5,4,9,29)           100.8025         estimate D2E/DX2                !
 ! D52   D(5,4,9,30)           -45.8285         estimate D2E/DX2                !
 ! D53   D(16,4,9,29)          -17.662          estimate D2E/DX2                !
 ! D54   D(16,4,9,30)         -164.293          estimate D2E/DX2                !
 ! D55   D(2,4,16,17)          146.2386         estimate D2E/DX2                !
 ! D56   D(5,4,16,17)          -97.9473         estimate D2E/DX2                !
 ! D57   D(9,4,16,17)           16.832          estimate D2E/DX2                !
 ! D58   D(1,10,24,22)         -87.296          estimate D2E/DX2                !
 ! D59   D(1,11,14,15)        -179.1095         estimate D2E/DX2                !
 ! D60   D(12,11,14,15)         62.2989         estimate D2E/DX2                !
 ! D61   D(13,11,14,15)        -59.2212         estimate D2E/DX2                !
 ! D62   D(2,18,28,26)          -8.4297         estimate D2E/DX2                !
 ! D63   D(19,18,28,26)        104.9569         estimate D2E/DX2                !
 ! D64   D(3,20,21,26)         -10.7005         estimate D2E/DX2                !
 ! D65   D(20,21,26,27)       -116.1609         estimate D2E/DX2                !
 ! D66   D(20,21,26,28)         -6.3894         estimate D2E/DX2                !
 ! D67   D(23,22,24,10)        -12.4798         estimate D2E/DX2                !
 ! D68   D(23,22,24,25)       -107.2994         estimate D2E/DX2                !
 ! D69   D(25,22,24,10)         94.8196         estimate D2E/DX2                !
 ! D70   D(21,26,28,18)        -10.5791         estimate D2E/DX2                !
 ! D71   D(27,26,28,18)        105.3895         estimate D2E/DX2                !
 --------------------------------------------------------------------------------
 Trust Radius=3.00D-01 FncErr=1.00D-07 GrdErr=1.00D-06
 Number of steps in this run=    160 maximum allowed number of steps=    180.
 GradGradGradGradGradGradGradGradGradGradGradGradGradGradGradGradGradGrad

                          Input orientation:                          
 ---------------------------------------------------------------------
 Center     Atomic      Atomic             Coordinates (Angstroms)
 Number     Number       Type             X           Y           Z
 ---------------------------------------------------------------------
      1          6           0       -0.450327    0.882633    0.135613
      2          6           0        1.490334   -0.753782    0.069088
      3          6           0        1.057467    0.742580   -0.049347
      4          6           0        0.369785   -1.779797    0.346963
      5          1           0        0.788123   -2.770389    0.092784
      6          1           0        2.156633   -0.823341    0.931818
      7          1           0       -0.754635    0.481509    1.107855
      8          1           0        1.266764    1.051604   -1.089244
      9          6           0       -0.953599   -1.679041   -0.443407
     10          8           0       -0.979767    0.065571   -0.926422
     11          6           0       -0.969727    2.296742    0.001643
     12          1           0       -0.393994    2.942812    0.674029
     13          1           0       -0.832490    2.643552   -1.033010
     14          8           0       -2.360125    2.283591    0.359811
     15          1           0       -2.704895    3.183629    0.263161
     16          8           0        0.052597   -1.702272    1.718128
     17          1           0       -0.914467   -1.887492    1.734696
     18          8           0        2.302482   -1.148181   -1.055343
     19          1           0        1.790821   -0.989913   -1.865653
     20          8           0        1.728947    1.581725    0.858744
     21          1           0        2.675626    1.546303    0.593318
     22          8           0       -3.432652   -0.067192   -0.746022
     23          1           0       -3.232778   -0.913020   -0.265032
     24          1           0       -2.017964    0.158247   -0.986871
     25          1           0       -3.540639    0.627478   -0.070659
     26          8           0        4.152970    0.868218   -0.365545
     27          1           0        4.824843    0.480527    0.215238
     28          1           0        3.711068    0.097563   -0.783968
     29          8           0       -1.993256   -1.905059    0.235906
     30          1           0       -0.902037   -1.990516   -1.498728
 ---------------------------------------------------------------------
                    Distance matrix (angstroms):
                    1          2          3          4          5
     1  C    0.000000
     2  C    2.539379   0.000000
     3  C    1.525539   1.562210   0.000000
     4  C    2.793884   1.544523   2.644306   0.000000
     5  H    3.857481   2.135501   3.526145   1.104937   0.000000
     6  H    3.215669   1.092289   2.150107   2.109429   2.523449
     7  H    1.094878   2.764935   2.165869   2.637571   3.739694
     8  H    2.115946   2.156649   1.104847   3.299105   4.029134
     9  C    2.674083   2.662999   3.172368   1.544727   2.124179
    10  O    1.440769   2.786356   2.319035   2.616903   3.493835
    11  C    1.512425   3.919457   2.554904   4.304847   5.364155
    12  H    2.130118   4.193024   2.733319   4.795140   5.863097
    13  H    2.147688   4.260518   2.855385   4.787046   5.762339
    14  O    2.379134   4.912860   3.771215   4.895273   5.960326
    15  H    3.223962   5.756806   4.495748   5.839202   6.905109
    16  O    3.072299   2.384545   3.179785   1.409508   2.079331
    17  H    3.232040   3.137294   3.740135   1.893860   2.524717
    18  O    3.622228   1.442040   2.477311   2.469963   2.498607
    19  H    3.540373   1.972124   2.615016   2.745711   2.830366
    20  O    2.400184   2.476911   1.407011   3.661840   4.518046
    21  H    3.228240   2.640099   1.917662   4.054693   4.737830
    22  O    3.251724   5.037023   4.615437   4.311167   5.081910
    23  H    3.335704   4.737592   4.603665   3.755569   4.443591
    24  H    2.059658   3.775580   3.267824   3.352085   4.197224
    25  H    3.107681   5.219013   4.599596   4.610943   5.505488
    26  O    4.630519   3.147923   3.114146   4.672488   4.977120
    27  H    5.291072   3.558627   3.785736   4.997395   5.184454
    28  H    4.333494   2.526688   2.827952   3.995955   4.187774
    29  O    3.187776   3.672692   4.049478   2.368963   2.916393
    30  H    3.336180   3.116247   3.661991   2.251335   2.449031
                    6          7          8          9         10
     6  H    0.000000
     7  H    3.195169   0.000000
     8  H    2.896891   3.039458   0.000000
     9  C    3.506709   2.667204   3.578203   0.000000
    10  O    3.752363   2.088533   2.458795   1.810431   0.000000
    11  C    4.513787   2.136596   2.782498   4.000647   2.416512
    12  H    4.555882   2.525130   3.073096   4.787833   3.344113
    13  H    4.981441   3.043648   2.635209   4.364299   2.584383
    14  O    5.511925   2.526790   4.095348   4.280879   2.911940
    15  H    6.335406   3.437801   4.706230   5.216496   3.756789
    16  O    2.412006   2.406856   4.115747   2.384367   3.344352
    17  H    3.347938   2.455736   4.622844   2.188405   3.301555
    18  O    2.018812   4.084272   2.431649   3.355345   3.501853
    19  H    2.826200   4.181648   2.246161   3.166942   3.110042
    20  O    2.443890   2.727767   2.071062   4.418625   3.580876
    21  H    2.449316   3.628392   2.249585   4.964768   4.226591
    22  O    5.884472   3.302985   4.842935   2.972429   2.463091
    23  H    5.521435   3.157645   4.978449   2.411071   2.543843
    24  H    4.698100   2.467463   3.405584   2.191769   1.044077
    25  H    5.963954   3.028534   4.932395   3.485936   2.757922
    26  O    2.920597   5.138583   2.981200   5.707157   5.225305
    27  H    3.054980   5.650428   3.832457   6.203865   5.930352
    28  H    2.491637   4.865071   2.641592   5.003141   4.693107
    29  O    4.344650   2.826691   4.596260   1.262314   2.502309
    30  H    4.077415   3.595401   3.758440   1.101534   2.135666
                   11         12         13         14         15
    11  C    0.000000
    12  H    1.095891   0.000000
    13  H    1.099826   1.787685   0.000000
    14  O    1.435850   2.097374   2.098378   0.000000
    15  H    1.966156   2.359464   2.340436   0.968646   0.000000
    16  O    4.470300   4.781882   5.219035   4.853180   5.795923
    17  H    4.529276   4.972700   5.310111   4.623653   5.575600
    18  O    4.867450   5.195954   4.919938   5.959834   6.751063
    19  H    4.680761   5.166210   4.558193   5.735754   6.493209
    20  O    2.920396   2.528548   3.356660   4.178763   4.751818
    21  H    3.768532   3.373325   4.019425   5.094792   5.633813
    22  O    3.494737   4.506674   3.767139   2.810580   3.480793
    23  H    3.936380   4.879341   4.358942   3.371984   4.164154
    24  H    2.578589   3.626247   2.753946   2.539235   3.344756
    25  H    3.066147   3.977022   3.510662   2.078853   2.709947
    26  O    5.330810   5.104854   5.334054   6.704463   7.265446
    27  H    6.076290   5.788747   6.184029   7.409164   8.000376
    28  H    5.231005   5.203146   5.214211   6.553345   7.196170
    29  O    4.331007   5.123616   4.862858   4.206511   5.138280
    30  H    4.542717   5.414490   4.657930   4.883460   5.755547
                   16         17         18         19         20
    16  O    0.000000
    17  H    0.984781   0.000000
    18  O    3.614020   4.321997   0.000000
    19  H    4.046278   4.592031   0.971313   0.000000
    20  O    3.785938   4.448640   3.383055   3.746931   0.000000
    21  H    4.324201   5.097299   3.180812   3.641677   0.983823
    22  O    4.570830   3.976017   5.844312   5.421223   5.651222
    23  H    3.917848   3.212954   5.596338   5.272992   5.666157
    24  H    3.881465   3.579061   4.514166   4.073987   4.412701
    25  H    4.640995   4.059700   6.185841   5.853411   5.435339
    26  O    5.268982   6.138719   2.822409   3.358976   2.807822
    27  H    5.458720   6.391866   3.260272   3.962019   3.348329
    28  H    4.783754   5.628471   1.899904   2.457640   2.971539
    29  O    2.534486   1.846745   4.549017   4.424170   5.138130
    30  H    3.367874   3.235089   3.342912   2.896088   5.024008
                   21         22         23         24         25
    21  H    0.000000
    22  O    6.458193   0.000000
    23  H    6.457110   0.993341   0.000000
    24  H    5.143295   1.452643   1.773256   0.000000
    25  H    6.318786   0.974855   1.582938   1.837978   0.000000
    26  O    1.887263   7.652543   7.598170   6.242638   7.703021
    27  H    2.428571   8.331281   8.191330   6.955066   8.371656
    28  H    2.251201   7.145720   7.036162   5.732945   7.305948
    29  O    5.817053   2.532548   1.664781   2.398547   2.983642
    30  H    5.448433   3.266459   2.848747   2.474767   3.981896
                   26         27         28         29         30
    26  O    0.000000
    27  H    0.969034   0.000000
    28  H    0.981970   1.544529   0.000000
    29  O    6.769705   7.223429   6.131064   0.000000
    30  H    5.916888   6.468453   5.113873   2.051101   0.000000
 Stoichiometry    C6H16O8
 Framework group  C1[X(C6H16O8)]
 Deg. of freedom    84
 Full point group                 C1      NOp   1
 Largest Abelian subgroup         C1      NOp   1
 Largest concise Abelian subgroup C1      NOp   1
                         Standard orientation:                         
 ---------------------------------------------------------------------
 Center     Atomic      Atomic             Coordinates (Angstroms)
 Number     Number       Type             X           Y           Z
 ---------------------------------------------------------------------
      1          6           0       -0.460713    0.864585    0.146860
      2          6           0        1.484251   -0.766443    0.074012
      3          6           0        1.047262    0.729065   -0.039990
      4          6           0        0.366733   -1.796193    0.350274
      5          1           0        0.787462   -2.784980    0.093029
      6          1           0        2.151607   -0.836519    0.935883
      7          1           0       -0.762962    0.460055    1.118333
      8          1           0        1.254677    1.041422   -1.079268
      9          6           0       -0.957716   -1.696874   -0.438492
     10          8           0       -0.989042    0.048945   -0.916820
     11          6           0       -0.984031    2.277650    0.017190
     12          1           0       -0.409347    2.923464    0.690720
     13          1           0       -0.848771    2.627586   -1.016670
     14          8           0       -2.374025    2.259820    0.376721
     15          1           0       -2.721299    3.159186    0.282822
     16          8           0        0.050728   -1.723176    1.721959
     17          1           0       -0.915819   -1.911029    1.739006
     18          8           0        2.296311   -1.155664   -1.052285
     19          1           0        1.783407   -0.996606   -1.861654
     20          8           0        1.717414    1.567580    0.869662
     21          1           0        2.663915    1.535401    0.603190
     22          8           0       -3.441378   -0.090868   -0.734306
     23          1           0       -3.238755   -0.937438   -0.255778
     24          1           0       -2.027544    0.139001   -0.975976
     25          1           0       -3.550539    0.601706   -0.056982
     26          8           0        4.142095    0.863836   -0.358967
     27          1           0        4.815592    0.476398    0.220103
     28          1           0        3.701833    0.093119   -0.779001
     29          8           0       -1.996076   -1.927487    0.241261
     30          1           0       -0.906391   -2.005393   -1.494693
 ---------------------------------------------------------------------
 Rotational constants (GHZ):      0.8541276      0.4820996      0.3633008
 Standard basis: 6-31G(d) (6D, 7F)
 There are   242 symmetry adapted cartesian basis functions of A   symmetry.
 There are   242 symmetry adapted basis functions of A   symmetry.
   242 basis functions,   456 primitive gaussians,   242 cartesian basis functions
    58 alpha electrons       58 beta electrons
       nuclear repulsion energy      1116.2637243962 Hartrees.
 NAtoms=   30 NActive=   30 NUniq=   30 SFac= 1.00D+00 NAtFMM=   60 NAOKFM=F Big=F
 Integral buffers will be    131072 words long.
 Raffenetti 2 integral format.
 Two-electron integral symmetry is turned on.
 One-electron integrals computed using PRISM.
 NBasis=   242 RedAO= T EigKep=  1.34D-03  NBF=   242
 NBsUse=   242 1.00D-06 EigRej= -1.00D+00 NBFU=   242
 ExpMin= 1.61D-01 ExpMax= 5.48D+03 ExpMxC= 8.25D+02 IAcc=1 IRadAn=         1 AccDes= 0.00D+00
 Harris functional with IExCor=  402 and IRadAn=       1 diagonalized for initial guess.
 HarFok:  IExCor=  402 AccDes= 0.00D+00 IRadAn=         1 IDoV= 1 UseB2=F ITyADJ=14
 ICtDFT=  3500011 ScaDFX=  1.000000  1.000000  1.000000  1.000000
 FoFCou: FMM=F IPFlag=           0 FMFlag=      100000 FMFlg1=           0
         NFxFlg=           0 DoJE=T BraDBF=F KetDBF=T FulRan=T
         wScrn=  0.000000 ICntrl=     500 IOpCl=  0 I1Cent=   200000004 NGrid=           0
         NMat0=    1 NMatS0=      1 NMatT0=    0 NMatD0=    1 NMtDS0=    0 NMtDT0=    0
 Petite list used in FoFCou.
 Requested convergence on RMS density matrix=1.00D-08 within 128 cycles.
 Requested convergence on MAX density matrix=1.00D-06.
 Requested convergence on             energy=1.00D-06.
 No special actions if energy rises.
 Integral accuracy reduced to 1.0D-05 until final iterations.
 Initial convergence to 1.0D-05 achieved.  Increase integral accuracy.
 SCF Done:  E(RB3LYP) =  -839.969171161     A.U. after   14 cycles
            NFock= 14  Conv=0.76D-08     -V/T= 2.0084

 **********************************************************************

            Population analysis using the SCF density.

 **********************************************************************

 Orbital symmetries:
       Occupied  (A) (A) (A) (A) (A) (A) (A) (A) (A) (A) (A) (A)
                 (A) (A) (A) (A) (A) (A) (A) (A) (A) (A) (A) (A)
                 (A) (A) (A) (A) (A) (A) (A) (A) (A) (A) (A) (A)
                 (A) (A) (A) (A) (A) (A) (A) (A) (A) (A) (A) (A)
                 (A) (A) (A) (A) (A) (A) (A) (A) (A) (A)
       Virtual   (A) (A) (A) (A) (A) (A) (A) (A) (A) (A) (A) (A)
                 (A) (A) (A) (A) (A) (A) (A) (A) (A) (A) (A) (A)
                 (A) (A) (A) (A) (A) (A) (A) (A) (A) (A) (A) (A)
                 (A) (A) (A) (A) (A) (A) (A) (A) (A) (A) (A) (A)
                 (A) (A) (A) (A) (A) (A) (A) (A) (A) (A) (A) (A)
                 (A) (A) (A) (A) (A) (A) (A) (A) (A) (A) (A) (A)
                 (A) (A) (A) (A) (A) (A) (A) (A) (A) (A) (A) (A)
                 (A) (A) (A) (A) (A) (A) (A) (A) (A) (A) (A) (A)
                 (A) (A) (A) (A) (A) (A) (A) (A) (A) (A) (A) (A)
                 (A) (A) (A) (A) (A) (A) (A) (A) (A) (A) (A) (A)
                 (A) (A) (A) (A) (A) (A) (A) (A) (A) (A) (A) (A)
                 (A) (A) (A) (A) (A) (A) (A) (A) (A) (A) (A) (A)
                 (A) (A) (A) (A) (A) (A) (A) (A) (A) (A) (A) (A)
                 (A) (A) (A) (A) (A) (A) (A) (A) (A) (A) (A) (A)
                 (A) (A) (A) (A) (A) (A) (A) (A) (A) (A) (A) (A)
                 (A) (A) (A) (A)
 The electronic state is 1-A.
 Alpha  occ. eigenvalues --  -19.18433 -19.17948 -19.17451 -19.15599 -19.15341
 Alpha  occ. eigenvalues --  -19.13509 -19.13268 -19.11864 -10.28623 -10.24925
 Alpha  occ. eigenvalues --  -10.24807 -10.24775 -10.24593 -10.23872  -1.07399
 Alpha  occ. eigenvalues --   -1.04857  -1.04074  -1.02664  -1.01789  -1.01223
 Alpha  occ. eigenvalues --   -1.00696  -0.98953  -0.78529  -0.75684  -0.69383
 Alpha  occ. eigenvalues --   -0.65563  -0.61028  -0.57144  -0.55781  -0.54645
 Alpha  occ. eigenvalues --   -0.53874  -0.53663  -0.52237  -0.50680  -0.49259
 Alpha  occ. eigenvalues --   -0.47841  -0.47425  -0.45193  -0.43234  -0.43000
 Alpha  occ. eigenvalues --   -0.42092  -0.41694  -0.39858  -0.39783  -0.38162
 Alpha  occ. eigenvalues --   -0.37314  -0.36313  -0.35030  -0.34457  -0.33325
 Alpha  occ. eigenvalues --   -0.31591  -0.30784  -0.29921  -0.29775  -0.28425
 Alpha  occ. eigenvalues --   -0.26727  -0.25541  -0.24639
 Alpha virt. eigenvalues --    0.03116   0.04301   0.04678   0.07118   0.09329
 Alpha virt. eigenvalues --    0.09998   0.12424   0.13205   0.13630   0.14444
 Alpha virt. eigenvalues --    0.15043   0.16067   0.16986   0.17739   0.18909
 Alpha virt. eigenvalues --    0.20581   0.20865   0.21527   0.23015   0.23698
 Alpha virt. eigenvalues --    0.23967   0.25296   0.26603   0.27633   0.30342
 Alpha virt. eigenvalues --    0.31357   0.32641   0.36800   0.51117   0.52815
 Alpha virt. eigenvalues --    0.54501   0.56283   0.56510   0.59088   0.59766
 Alpha virt. eigenvalues --    0.61237   0.63005   0.64060   0.64535   0.66064
 Alpha virt. eigenvalues --    0.67799   0.69939   0.73100   0.73288   0.74460
 Alpha virt. eigenvalues --    0.75868   0.78220   0.78886   0.79442   0.80111
 Alpha virt. eigenvalues --    0.81484   0.82430   0.83045   0.85013   0.85325
 Alpha virt. eigenvalues --    0.85872   0.86150   0.87492   0.88625   0.90128
 Alpha virt. eigenvalues --    0.90646   0.91379   0.93538   0.94493   0.95582
 Alpha virt. eigenvalues --    0.95994   0.97720   0.99338   1.00620   1.02283
 Alpha virt. eigenvalues --    1.04156   1.05683   1.07151   1.09951   1.10496
 Alpha virt. eigenvalues --    1.11241   1.13141   1.14141   1.14634   1.16688
 Alpha virt. eigenvalues --    1.17311   1.18165   1.20312   1.21436   1.23711
 Alpha virt. eigenvalues --    1.26231   1.28313   1.31977   1.34580   1.35545
 Alpha virt. eigenvalues --    1.39085   1.40641   1.45252   1.46063   1.48000
 Alpha virt. eigenvalues --    1.52389   1.53131   1.55394   1.58167   1.60384
 Alpha virt. eigenvalues --    1.61525   1.63686   1.65368   1.67122   1.68438
 Alpha virt. eigenvalues --    1.69477   1.71255   1.72084   1.72675   1.73865
 Alpha virt. eigenvalues --    1.74974   1.75985   1.78592   1.78893   1.80151
 Alpha virt. eigenvalues --    1.80939   1.81583   1.83825   1.86082   1.86903
 Alpha virt. eigenvalues --    1.88270   1.90056   1.91559   1.92344   1.93886
 Alpha virt. eigenvalues --    1.95697   1.96750   2.00196   2.03151   2.04489
 Alpha virt. eigenvalues --    2.06569   2.08413   2.09413   2.11251   2.13775
 Alpha virt. eigenvalues --    2.20385   2.23050   2.24563   2.25651   2.28723
 Alpha virt. eigenvalues --    2.30026   2.32845   2.34741   2.38249   2.39690
 Alpha virt. eigenvalues --    2.42535   2.44983   2.45969   2.46564   2.48992
 Alpha virt. eigenvalues --    2.52228   2.53278   2.55192   2.57176   2.59679
 Alpha virt. eigenvalues --    2.60149   2.61767   2.65171   2.67262   2.67590
 Alpha virt. eigenvalues --    2.72064   2.75435   2.82645   2.86857   2.90110
 Alpha virt. eigenvalues --    2.92257   2.94986   2.98311   3.02266   3.05544
 Alpha virt. eigenvalues --    3.71019   3.75888   3.79142   3.81308   3.89094
 Alpha virt. eigenvalues --    3.93036   4.10823   4.16820   4.29347   4.33678
 Alpha virt. eigenvalues --    4.39090   4.50643   4.63513   4.81162
          Condensed to atoms (all electrons):
               1          2          3          4          5          6
     1  C    5.005943  -0.042152   0.315488   0.006953  -0.000006   0.000482
     2  C   -0.042152   5.115312   0.302743   0.279742  -0.056696   0.355541
     3  C    0.315488   0.302743   4.924158  -0.034957   0.005261  -0.049940
     4  C    0.006953   0.279742  -0.034957   5.083912   0.350681  -0.029554
     5  H   -0.000006  -0.056696   0.005261   0.350681   0.634074  -0.005139
     6  H    0.000482   0.355541  -0.049940  -0.029554  -0.005139   0.563110
     7  H    0.341272  -0.014657  -0.035006  -0.007656   0.000519   0.000981
     8  H   -0.047189  -0.071250   0.341308   0.004133  -0.000358   0.005714
     9  C   -0.008568  -0.025328  -0.012235   0.275449  -0.047830   0.004633
    10  O    0.154144   0.005304  -0.047718  -0.015391   0.001951   0.000230
    11  C    0.351279   0.005115  -0.028407   0.000108   0.000017  -0.000211
    12  H   -0.038292   0.000216  -0.001533   0.000009  -0.000000  -0.000001
    13  H   -0.032628  -0.000162  -0.003376   0.000002  -0.000001   0.000005
    14  O   -0.045961  -0.000038   0.002063   0.000007   0.000000   0.000000
    15  H    0.005939   0.000003  -0.000213  -0.000000   0.000000  -0.000000
    16  O   -0.009454  -0.050927   0.003370   0.234297  -0.035328   0.003468
    17  H    0.000492   0.006772   0.000064  -0.052388   0.002128  -0.000556
    18  O    0.002859   0.174828  -0.032446  -0.030165   0.007124  -0.037504
    19  H   -0.000337  -0.025186  -0.006260  -0.003925  -0.000490   0.006579
    20  O   -0.044640  -0.041346   0.235166   0.002581  -0.000092   0.005072
    21  H    0.005817   0.000537  -0.024659   0.000122   0.000003   0.001532
    22  O    0.006428   0.000019   0.000012  -0.000332   0.000002   0.000000
    23  H   -0.000177  -0.000059   0.000011   0.001782  -0.000043   0.000002
    24  H   -0.015163   0.000033   0.002247   0.001900  -0.000103   0.000006
    25  H   -0.000384  -0.000008   0.000107  -0.000020   0.000000  -0.000000
    26  O    0.000072   0.006849   0.000774   0.000160   0.000001   0.003746
    27  H   -0.000004   0.000269  -0.000345   0.000010  -0.000001   0.000665
    28  H    0.000033  -0.007404   0.000840   0.000618  -0.000019  -0.003279
    29  O    0.000432   0.001928   0.000485  -0.064337  -0.000247  -0.000097
    30  H    0.003000   0.000149   0.001012  -0.080300   0.002884  -0.000254
               7          8          9         10         11         12
     1  C    0.341272  -0.047189  -0.008568   0.154144   0.351279  -0.038292
     2  C   -0.014657  -0.071250  -0.025328   0.005304   0.005115   0.000216
     3  C   -0.035006   0.341308  -0.012235  -0.047718  -0.028407  -0.001533
     4  C   -0.007656   0.004133   0.275449  -0.015391   0.000108   0.000009
     5  H    0.000519  -0.000358  -0.047830   0.001951   0.000017  -0.000000
     6  H    0.000981   0.005714   0.004633   0.000230  -0.000211  -0.000001
     7  H    0.576095   0.006994   0.001823  -0.042386  -0.047548  -0.001398
     8  H    0.006994   0.684826   0.001080   0.004094  -0.014393   0.000371
     9  C    0.001823   0.001080   4.765935   0.041836   0.001085  -0.000043
    10  O   -0.042386   0.004094   0.041836   8.585255  -0.033005   0.003478
    11  C   -0.047548  -0.014393   0.001085  -0.033005   4.917158   0.361275
    12  H   -0.001398   0.000371  -0.000043   0.003478   0.361275   0.568770
    13  H    0.006476   0.005698  -0.000001  -0.001843   0.347443  -0.043464
    14  O    0.002525  -0.000034  -0.000146   0.000545   0.231225  -0.033746
    15  H   -0.000088   0.000002   0.000007  -0.000076  -0.020880  -0.002933
    16  O    0.022508  -0.000058  -0.026618  -0.000230   0.000330  -0.000001
    17  H   -0.000073   0.000007  -0.017619   0.000473  -0.000041  -0.000001
    18  O    0.000079   0.000422   0.001919  -0.000722  -0.000048  -0.000002
    19  H    0.000101   0.008176   0.001932   0.001671  -0.000048   0.000001
    20  O    0.003032  -0.036886   0.000127   0.001207  -0.001664   0.011870
    21  H   -0.000225  -0.004569  -0.000019  -0.000106   0.000101  -0.000099
    22  O    0.000160  -0.000001   0.004686  -0.074180  -0.000341  -0.000039
    23  H    0.000001   0.000001  -0.008966   0.005633   0.000021   0.000006
    24  H    0.001867   0.000089  -0.008635   0.143207  -0.006161   0.000366
    25  H    0.000493   0.000002  -0.000144   0.005476  -0.002648   0.000216
    26  O   -0.000000   0.000763  -0.000001   0.000000  -0.000002   0.000002
    27  H    0.000000  -0.000016  -0.000000  -0.000000  -0.000000  -0.000000
    28  H   -0.000004   0.000307  -0.000017  -0.000003   0.000001  -0.000001
    29  O    0.005579  -0.000015   0.400466  -0.048886  -0.000091   0.000006
    30  H    0.000803  -0.000015   0.351072  -0.039076  -0.000181   0.000004
              13         14         15         16         17         18
     1  C   -0.032628  -0.045961   0.005939  -0.009454   0.000492   0.002859
     2  C   -0.000162  -0.000038   0.000003  -0.050927   0.006772   0.174828
     3  C   -0.003376   0.002063  -0.000213   0.003370   0.000064  -0.032446
     4  C    0.000002   0.000007  -0.000000   0.234297  -0.052388  -0.030165
     5  H   -0.000001   0.000000   0.000000  -0.035328   0.002128   0.007124
     6  H    0.000005   0.000000  -0.000000   0.003468  -0.000556  -0.037504
     7  H    0.006476   0.002525  -0.000088   0.022508  -0.000073   0.000079
     8  H    0.005698  -0.000034   0.000002  -0.000058   0.000007   0.000422
     9  C   -0.000001  -0.000146   0.000007  -0.026618  -0.017619   0.001919
    10  O   -0.001843   0.000545  -0.000076  -0.000230   0.000473  -0.000722
    11  C    0.347443   0.231225  -0.020880   0.000330  -0.000041  -0.000048
    12  H   -0.043464  -0.033746  -0.002933  -0.000001  -0.000001  -0.000002
    13  H    0.626709  -0.039289  -0.003323  -0.000005  -0.000000  -0.000004
    14  O   -0.039289   8.261806   0.236362  -0.000001  -0.000001   0.000000
    15  H   -0.003323   0.236362   0.377624   0.000000  -0.000000  -0.000000
    16  O   -0.000005  -0.000001   0.000000   8.318247   0.217788   0.001535
    17  H   -0.000000  -0.000001  -0.000000   0.217788   0.358925  -0.000112
    18  O   -0.000004   0.000000  -0.000000   0.001535  -0.000112   8.284001
    19  H    0.000006   0.000000  -0.000000  -0.000019   0.000010   0.231879
    20  O    0.000190   0.000036   0.000008  -0.000192   0.000009   0.001455
    21  H   -0.000051   0.000001  -0.000000  -0.000017   0.000000   0.000244
    22  O   -0.000035  -0.011911   0.000693  -0.000003   0.000140  -0.000000
    23  H    0.000000   0.000299  -0.000026   0.000055  -0.000545   0.000000
    24  H   -0.000052   0.005998  -0.000215  -0.000179  -0.000065   0.000003
    25  H    0.000248   0.033099  -0.001748   0.000002  -0.000017   0.000000
    26  O    0.000000   0.000000   0.000000   0.000000  -0.000000  -0.018842
    27  H    0.000000  -0.000000  -0.000000  -0.000000  -0.000000   0.000502
    28  H   -0.000001  -0.000000  -0.000000  -0.000015   0.000001   0.056956
    29  O    0.000003  -0.000021  -0.000000  -0.030727   0.066867   0.000003
    30  H   -0.000002  -0.000000  -0.000000   0.002544   0.003060   0.000929
              19         20         21         22         23         24
     1  C   -0.000337  -0.044640   0.005817   0.006428  -0.000177  -0.015163
     2  C   -0.025186  -0.041346   0.000537   0.000019  -0.000059   0.000033
     3  C   -0.006260   0.235166  -0.024659   0.000012   0.000011   0.002247
     4  C   -0.003925   0.002581   0.000122  -0.000332   0.001782   0.001900
     5  H   -0.000490  -0.000092   0.000003   0.000002  -0.000043  -0.000103
     6  H    0.006579   0.005072   0.001532   0.000000   0.000002   0.000006
     7  H    0.000101   0.003032  -0.000225   0.000160   0.000001   0.001867
     8  H    0.008176  -0.036886  -0.004569  -0.000001   0.000001   0.000089
     9  C    0.001932   0.000127  -0.000019   0.004686  -0.008966  -0.008635
    10  O    0.001671   0.001207  -0.000106  -0.074180   0.005633   0.143207
    11  C   -0.000048  -0.001664   0.000101  -0.000341   0.000021  -0.006161
    12  H    0.000001   0.011870  -0.000099  -0.000039   0.000006   0.000366
    13  H    0.000006   0.000190  -0.000051  -0.000035   0.000000  -0.000052
    14  O    0.000000   0.000036   0.000001  -0.011911   0.000299   0.005998
    15  H   -0.000000   0.000008  -0.000000   0.000693  -0.000026  -0.000215
    16  O   -0.000019  -0.000192  -0.000017  -0.000003   0.000055  -0.000179
    17  H    0.000010   0.000009   0.000000   0.000140  -0.000545  -0.000065
    18  O    0.231879   0.001455   0.000244  -0.000000   0.000000   0.000003
    19  H    0.382269  -0.000051  -0.000030   0.000001   0.000000   0.000015
    20  O   -0.000051   8.334733   0.216803   0.000000  -0.000000  -0.000020
    21  H   -0.000030   0.216803   0.322332  -0.000000   0.000000   0.000003
    22  O    0.000001   0.000000  -0.000000   8.393188   0.196506   0.126900
    23  H    0.000000  -0.000000   0.000000   0.196506   0.311615  -0.015608
    24  H    0.000015  -0.000020   0.000003   0.126900  -0.015608   0.299289
    25  H   -0.000000  -0.000000   0.000000   0.222831  -0.004706  -0.012261
    26  O    0.000840  -0.020395   0.061270   0.000000   0.000000   0.000000
    27  H   -0.000001   0.001116  -0.002681  -0.000000   0.000000  -0.000000
    28  H   -0.003175   0.002420  -0.006141   0.000000  -0.000000   0.000000
    29  O   -0.000004  -0.000000   0.000000  -0.042545   0.073315   0.006527
    30  H    0.000752   0.000001  -0.000001   0.000456  -0.001244   0.000606
              25         26         27         28         29         30
     1  C   -0.000384   0.000072  -0.000004   0.000033   0.000432   0.003000
     2  C   -0.000008   0.006849   0.000269  -0.007404   0.001928   0.000149
     3  C    0.000107   0.000774  -0.000345   0.000840   0.000485   0.001012
     4  C   -0.000020   0.000160   0.000010   0.000618  -0.064337  -0.080300
     5  H    0.000000   0.000001  -0.000001  -0.000019  -0.000247   0.002884
     6  H   -0.000000   0.003746   0.000665  -0.003279  -0.000097  -0.000254
     7  H    0.000493  -0.000000   0.000000  -0.000004   0.005579   0.000803
     8  H    0.000002   0.000763  -0.000016   0.000307  -0.000015  -0.000015
     9  C   -0.000144  -0.000001  -0.000000  -0.000017   0.400466   0.351072
    10  O    0.005476   0.000000  -0.000000  -0.000003  -0.048886  -0.039076
    11  C   -0.002648  -0.000002  -0.000000   0.000001  -0.000091  -0.000181
    12  H    0.000216   0.000002  -0.000000  -0.000001   0.000006   0.000004
    13  H    0.000248   0.000000   0.000000  -0.000001   0.000003  -0.000002
    14  O    0.033099   0.000000  -0.000000  -0.000000  -0.000021  -0.000000
    15  H   -0.001748   0.000000  -0.000000  -0.000000  -0.000000  -0.000000
    16  O    0.000002   0.000000  -0.000000  -0.000015  -0.030727   0.002544
    17  H   -0.000017  -0.000000  -0.000000   0.000001   0.066867   0.003060
    18  O    0.000000  -0.018842   0.000502   0.056956   0.000003   0.000929
    19  H   -0.000000   0.000840  -0.000001  -0.003175  -0.000004   0.000752
    20  O   -0.000000  -0.020395   0.001116   0.002420  -0.000000   0.000001
    21  H    0.000000   0.061270  -0.002681  -0.006141   0.000000  -0.000001
    22  O    0.222831   0.000000  -0.000000   0.000000  -0.042545   0.000456
    23  H   -0.004706   0.000000   0.000000  -0.000000   0.073315  -0.001244
    24  H   -0.012261   0.000000  -0.000000   0.000000   0.006527   0.000606
    25  H    0.334818  -0.000000   0.000000   0.000000   0.002193   0.000025
    26  O   -0.000000   8.320562   0.242405   0.213081   0.000000   0.000000
    27  H    0.000000   0.242405   0.374868  -0.015967  -0.000000  -0.000000
    28  H    0.000000   0.213081  -0.015967   0.332542   0.000000  -0.000001
    29  O    0.002193   0.000000  -0.000000   0.000000   8.270491  -0.048888
    30  H    0.000025   0.000000  -0.000000  -0.000001  -0.048888   0.682621
 Mulliken charges:
               1
     1  C    0.084320
     2  C    0.079852
     3  C    0.141986
     4  C    0.076561
     5  H    0.141706
     6  H    0.174769
     7  H    0.177734
     8  H    0.110795
     9  C    0.304123
    10  O   -0.650882
    11  C   -0.059492
    12  H    0.174966
    13  H    0.137454
    14  O   -0.642817
    15  H    0.408865
    16  O   -0.650371
    17  H    0.414683
    18  O   -0.644895
    19  H    0.405293
    20  O   -0.670540
    21  H    0.429831
    22  O   -0.822634
    23  H    0.442127
    24  H    0.469406
    25  H    0.422429
    26  O   -0.811286
    27  H    0.399180
    28  H    0.429228
    29  O   -0.592435
    30  H    0.120045
 Sum of Mulliken charges =  -0.00000
 Mulliken charges with hydrogens summed into heavy atoms:
               1
     1  C    0.262054
     2  C    0.254621
     3  C    0.252781
     4  C    0.218266
     9  C    0.424168
    10  O   -0.181476
    11  C    0.252928
    14  O   -0.233952
    16  O   -0.235688
    18  O   -0.239602
    20  O   -0.240709
    22  O    0.041922
    26  O    0.017122
    29  O   -0.592435
 Electronic spatial extent (au):  <R**2>=           3164.7662
 Charge=             -0.0000 electrons
 Dipole moment (field-independent basis, Debye):
    X=              0.7445    Y=              2.1233    Z=             -1.6335  Tot=              2.7804
 Quadrupole moment (field-independent basis, Debye-Ang):
   XX=            -80.3259   YY=            -79.7395   ZZ=            -86.3224
   XY=            -13.1040   XZ=             -2.5048   YZ=              2.6827
 Traceless Quadrupole moment (field-independent basis, Debye-Ang):
   XX=              1.8033   YY=              2.3897   ZZ=             -4.1931
   XY=            -13.1040   XZ=             -2.5048   YZ=              2.6827
 Octapole moment (field-independent basis, Debye-Ang**2):
  XXX=             51.2309  YYY=             44.2133  ZZZ=            -15.2684  XYY=            -34.5717
  XXY=             12.8079  XXZ=             39.6930  XZZ=              3.6777  YZZ=             -2.0441
  YYZ=             -7.6927  XYZ=              2.9590
 Hexadecapole moment (field-independent basis, Debye-Ang**3):
 XXXX=          -1868.0596 YYYY=          -1060.3096 ZZZZ=           -349.1450 XXXY=           -134.6374
 XXXZ=             43.2212 YYYX=           -122.2844 YYYZ=             12.6295 ZZZX=            -34.7283
 ZZZY=             15.0755 XXYY=           -534.3509 XXZZ=           -425.3009 YYZZ=           -263.1373
 XXYZ=             16.4560 YYXZ=              3.3894 ZZXY=              5.3387
 N-N= 1.116263724396D+03 E-N=-4.204948468573D+03  KE= 8.329709095820D+02
 Calling FoFJK, ICntrl=      2127 FMM=F ISym2X=0 I1Cent= 0 IOpClX= 0 NMat=1 NMatS=1 NMatT=0.
 ***** Axes restored to original set *****
 -------------------------------------------------------------------
 Center     Atomic                   Forces (Hartrees/Bohr)
 Number     Number              X              Y              Z
 -------------------------------------------------------------------
      1        6           0.000206940    0.002452765   -0.000893904
      2        6          -0.000738899    0.000285167   -0.000471596
      3        6          -0.000180290    0.000814205    0.000131486
      4        6           0.001546539   -0.002599474    0.001350238
      5        1           0.000503387   -0.000085367    0.000338087
      6        1          -0.000057380    0.000042872   -0.000025161
      7        1          -0.000111119    0.000051086   -0.000151067
      8        1           0.000008507    0.000044183    0.000021524
      9        6           0.000977079   -0.014158987    0.002893528
     10        8           0.004171847    0.009921887   -0.005878470
     11        6           0.000926770    0.003051476    0.001752046
     12        1          -0.000078804    0.000255370    0.000212267
     13        1           0.000087222    0.000294779    0.000154061
     14        8           0.000500351    0.001201752    0.000590744
     15        1          -0.000093913   -0.000002035   -0.000099585
     16        8           0.001741360    0.000116528    0.001295623
     17        1           0.000131147    0.000043971    0.000235935
     18        8          -0.000303348    0.000071401   -0.000065025
     19        1           0.000035491    0.000111448   -0.000015906
     20        8           0.000521504   -0.000071330    0.000189729
     21        1           0.000022876    0.000008685   -0.000002069
     22        8          -0.012585197    0.005797271   -0.003311236
     23        1          -0.000887217   -0.000850539    0.000409465
     24        1           0.001330553    0.000224743   -0.000245685
     25        1          -0.000046386    0.000219040   -0.000198137
     26        8          -0.000030021    0.000050754    0.000067503
     27        1           0.000028462    0.000031516   -0.000012740
     28        1           0.000012061   -0.000009715    0.000017619
     29        8           0.002470829   -0.006940321    0.001624140
     30        1          -0.000110351   -0.000373131    0.000086586
 -------------------------------------------------------------------
 Cartesian Forces:  Max     0.014158987 RMS     0.002717181

 GradGradGradGradGradGradGradGradGradGradGradGradGradGradGradGradGradGrad
 Berny optimization.
 FormGI is forming the generalized inverse of G from B-inverse, IUseBI=4.
 Internal  Forces:  Max     0.054471732 RMS     0.011703469
 Search for a local minimum.
 Step number   1 out of a maximum of  160
 All quantities printed in internal units (Hartrees-Bohrs-Radians)
 Mixed Optimization -- RFO/linear search
 Second derivative matrix not updated -- first step.
 ITU=  0
     Eigenvalues ---    0.00230   0.00230   0.00230   0.00428   0.00445
     Eigenvalues ---    0.00540   0.00602   0.00723   0.00872   0.01152
     Eigenvalues ---    0.01218   0.01495   0.01520   0.01566   0.03077
     Eigenvalues ---    0.04124   0.04161   0.04173   0.04559   0.04908
     Eigenvalues ---    0.05183   0.05200   0.05227   0.05500   0.05525
     Eigenvalues ---    0.06103   0.06178   0.06414   0.06562   0.06995
     Eigenvalues ---    0.07389   0.07712   0.08495   0.09639   0.10888
     Eigenvalues ---    0.11096   0.12652   0.13554   0.13641   0.15715
     Eigenvalues ---    0.16000   0.16000   0.16000   0.16000   0.16000
     Eigenvalues ---    0.16000   0.16613   0.17919   0.18860   0.19254
     Eigenvalues ---    0.19540   0.19975   0.20528   0.22023   0.22069
     Eigenvalues ---    0.22475   0.25000   0.25965   0.28104   0.28122
     Eigenvalues ---    0.29839   0.31108   0.33142   0.33152   0.33513
     Eigenvalues ---    0.33701   0.34141   0.34255   0.34549   0.38200
     Eigenvalues ---    0.39480   0.40160   0.40708   0.43350   0.44080
     Eigenvalues ---    0.48879   0.49389   0.50009   0.50467   0.52397
     Eigenvalues ---    0.53110   0.53575   0.53654   0.78848
 RFO step:  Lambda=-9.18091921D-02 EMin= 2.30000000D-03
 Linear search not attempted -- first point.
 Maximum step size (   0.300) exceeded in Quadratic search.
    -- Step size scaled by   0.678
 Iteration  1 RMS(Cart)=  0.30919031 RMS(Int)=  0.01528239
 Iteration  2 RMS(Cart)=  0.09457303 RMS(Int)=  0.00146141
 Iteration  3 RMS(Cart)=  0.00302665 RMS(Int)=  0.00074991
 Iteration  4 RMS(Cart)=  0.00000463 RMS(Int)=  0.00074990
 Iteration  5 RMS(Cart)=  0.00000000 RMS(Int)=  0.00074990
 Variable       Old X    -DE/DX   Delta X   Delta X   Delta X     New X
                                 (Linear)    (Quad)   (Total)
    R1        2.88285   0.00765   0.00000   0.01330   0.01330   2.89615
    R2        2.06902  -0.00012   0.00000  -0.00019  -0.00019   2.06883
    R3        2.72266   0.00108   0.00000   0.00150   0.00150   2.72416
    R4        2.85807   0.00380   0.00000   0.00639   0.00639   2.86446
    R5        2.95215   0.03446   0.00000   0.05932   0.05928   3.01143
    R6        2.91873   0.01208   0.00000   0.02196   0.02196   2.94068
    R7        2.06413  -0.00006   0.00000  -0.00009  -0.00009   2.06404
    R8        2.72506   0.00143   0.00000   0.00296   0.00315   2.72821
    R9        2.08786  -0.00001   0.00000  -0.00001  -0.00001   2.08785
   R10        2.65886   0.00139   0.00000   0.00289   0.00305   2.66192
   R11        2.08803   0.00019   0.00000   0.00030   0.00030   2.08833
   R12        2.91911  -0.00662   0.00000  -0.01203  -0.01203   2.90708
   R13        2.66358   0.00108   0.00000   0.00137   0.00137   2.66495
   R14        2.38543   0.00008   0.00000   0.00006   0.00006   2.38549
   R15        2.08160   0.00002   0.00000   0.00003   0.00003   2.08163
   R16        1.97302   0.01279   0.00000   0.01738   0.01738   1.99040
   R17        2.07093   0.00024   0.00000   0.00037   0.00037   2.07131
   R18        2.07837  -0.00004   0.00000  -0.00006  -0.00006   2.07831
   R19        2.71336  -0.00028   0.00000  -0.00038  -0.00038   2.71298
   R20        1.83048   0.00004   0.00000   0.00004   0.00004   1.83052
   R21        1.86097  -0.00013   0.00000  -0.00015  -0.00015   1.86082
   R22        1.83551   0.00001   0.00000   0.00001   0.00001   1.83552
   R23        3.59030  -0.00236   0.00000  -0.00972  -0.00975   3.58055
   R24        1.85916  -0.00295   0.00000  -0.00259  -0.00265   1.85651
   R25        3.56641  -0.00425   0.00000  -0.01717  -0.01729   3.54913
   R26        1.87714   0.00074   0.00000   0.00087   0.00087   1.87801
   R27        2.74510   0.01185   0.00000   0.03679   0.03679   2.78189
   R28        1.84221   0.00002   0.00000   0.00002   0.00002   1.84223
   R29        1.83121   0.00000   0.00000   0.00000   0.00000   1.83121
   R30        1.85565  -0.00353   0.00000  -0.00368  -0.00378   1.85187
    A1        1.92702   0.00764   0.00000   0.02895   0.02781   1.95482
    A2        1.79442   0.01662   0.00000   0.04040   0.03880   1.83321
    A3        1.99822  -0.01883   0.00000  -0.05099  -0.05078   1.94744
    A4        1.92268   0.00295   0.00000   0.02531   0.02407   1.94675
    A5        1.90261   0.00234   0.00000  -0.00609  -0.00557   1.89704
    A6        1.91638  -0.00988   0.00000  -0.03365  -0.03307   1.88331
    A7        2.03634   0.04756   0.00000   0.14237   0.14365   2.17998
    A8        1.86492  -0.01005   0.00000  -0.03566  -0.03401   1.83091
    A9        1.93790  -0.00920   0.00000  -0.02194  -0.02256   1.91534
   A10        1.83191  -0.01644   0.00000  -0.05864  -0.05821   1.77369
   A11        1.94679  -0.02351   0.00000  -0.04978  -0.05250   1.89429
   A12        1.82855   0.00799   0.00000   0.00793   0.00548   1.83403
   A13        1.93115   0.05447   0.00000   0.15223   0.15279   2.08395
   A14        1.85008  -0.01800   0.00000  -0.05253  -0.05538   1.79470
   A15        1.91631  -0.02407   0.00000  -0.05407  -0.05437   1.86194
   A16        1.86165  -0.00317   0.00000   0.00131   0.00178   1.86344
   A17        1.97153  -0.01475   0.00000  -0.04351  -0.04275   1.92879
   A18        1.92863   0.00625   0.00000  -0.00192  -0.00433   1.92430
   A19        1.85405  -0.01093   0.00000  -0.03375  -0.03314   1.82091
   A20        2.07849   0.03772   0.00000   0.09422   0.09444   2.17292
   A21        1.87731  -0.01205   0.00000  -0.01943  -0.02066   1.85665
   A22        1.83914  -0.01218   0.00000  -0.03502  -0.03421   1.80493
   A23        1.93723   0.00543   0.00000   0.00064  -0.00020   1.93703
   A24        1.87692  -0.00810   0.00000  -0.00922  -0.01017   1.86675
   A25        2.00267  -0.00747   0.00000  -0.01882  -0.01906   1.98361
   A26        2.01711   0.00158   0.00000  -0.00116  -0.00140   2.01571
   A27        2.09844   0.00189   0.00000  -0.00155  -0.00185   2.09659
   A28        1.93664  -0.00302   0.00000  -0.00812  -0.00812   1.92852
   A29        1.89278  -0.00034   0.00000  -0.00081  -0.00081   1.89197
   A30        1.91273  -0.00019   0.00000   0.00022   0.00021   1.91295
   A31        1.87747   0.00186   0.00000   0.00423   0.00422   1.88170
   A32        1.90259   0.00003   0.00000  -0.00059  -0.00059   1.90200
   A33        1.94022  -0.00099   0.00000  -0.00288  -0.00288   1.93734
   A34        1.93733  -0.00035   0.00000  -0.00010  -0.00010   1.93723
   A35        1.88732   0.00010   0.00000   0.00028   0.00028   1.88760
   A36        1.79980   0.00044   0.00000   0.00119   0.00119   1.80099
   A37        1.88521  -0.00226   0.00000  -0.00343  -0.00371   1.88150
   A38        1.69798   0.00467   0.00000   0.02257   0.02299   1.72098
   A39        1.98545   0.01153   0.00000   0.02551   0.02494   2.01039
   A40        1.83757   0.00174   0.00000   0.01603   0.01633   1.85390
   A41        2.69808   0.00569   0.00000   0.00952   0.00935   2.70743
   A42        1.58727   0.00197   0.00000   0.00537   0.00537   1.59264
   A43        1.86879   0.00002   0.00000   0.00047   0.00046   1.86925
   A44        1.68319  -0.00004   0.00000  -0.00010  -0.00010   1.68309
   A45        2.80843   0.02620   0.00000   0.05198   0.05198   2.86041
   A46        1.96274   0.00207   0.00000   0.00130   0.00138   1.96412
   A47        1.71752  -0.00224   0.00000  -0.01171  -0.01212   1.70540
   A48        1.82700  -0.00444   0.00000  -0.00753  -0.00726   1.81975
   A49        2.71189   0.00007   0.00000  -0.00127  -0.00140   2.71050
    D1        1.01304  -0.00339   0.00000  -0.02953  -0.02868   0.98436
    D2        3.02487   0.00990   0.00000   0.01837   0.01724   3.04211
    D3       -1.17488  -0.00581   0.00000  -0.04284  -0.04104  -1.21592
    D4       -1.03774  -0.01919   0.00000  -0.09360  -0.09388  -1.13163
    D5        0.97409  -0.00590   0.00000  -0.04571  -0.04796   0.92612
    D6        3.05752  -0.02161   0.00000  -0.10691  -0.10624   2.95128
    D7       -3.11528  -0.00831   0.00000  -0.05279  -0.05233   3.11558
    D8       -1.10345   0.00498   0.00000  -0.00489  -0.00641  -1.10986
    D9        0.97999  -0.01073   0.00000  -0.06610  -0.06469   0.91530
   D10       -3.02701   0.02358   0.00000   0.11474   0.11535  -2.91166
   D11        1.20233   0.00455   0.00000   0.04833   0.04792   1.25025
   D12       -0.89324   0.00605   0.00000   0.06124   0.06104  -0.83220
   D13       -0.92157   0.00165   0.00000   0.00109   0.00133  -0.92024
   D14        1.15356   0.00137   0.00000   0.00002   0.00026   1.15382
   D15       -3.02163   0.00196   0.00000   0.00257   0.00282  -3.01882
   D16        1.24634  -0.00013   0.00000  -0.00260  -0.00242   1.24392
   D17       -2.96172  -0.00041   0.00000  -0.00367  -0.00349  -2.96521
   D18       -0.85372   0.00017   0.00000  -0.00111  -0.00094  -0.85466
   D19       -2.92911  -0.00113   0.00000   0.00399   0.00357  -2.92554
   D20       -0.85398  -0.00141   0.00000   0.00292   0.00250  -0.85149
   D21        1.25401  -0.00082   0.00000   0.00547   0.00505   1.25906
   D22       -0.00520   0.00111   0.00000  -0.03666  -0.03656  -0.04177
   D23       -2.00978  -0.00334   0.00000  -0.05209  -0.05390  -2.06367
   D24        2.15121   0.00006   0.00000  -0.02397  -0.02465   2.12656
   D25       -2.04728   0.00083   0.00000  -0.02155  -0.02083  -2.06811
   D26        2.23133  -0.00361   0.00000  -0.03699  -0.03816   2.19317
   D27        0.10913  -0.00022   0.00000  -0.00886  -0.00891   0.10022
   D28        2.25158   0.00155   0.00000  -0.00025   0.00118   2.25277
   D29        0.24701  -0.00290   0.00000  -0.01569  -0.01615   0.23086
   D30       -1.87519   0.00050   0.00000   0.01244   0.01310  -1.86209
   D31        2.84589   0.00515   0.00000   0.03747   0.03763   2.88352
   D32        0.77679   0.00582   0.00000   0.05026   0.05103   0.82782
   D33       -1.36182  -0.00034   0.00000   0.01073   0.01130  -1.35052
   D34       -1.37716   0.00795   0.00000   0.03215   0.03047  -1.34669
   D35        2.83693   0.00862   0.00000   0.04495   0.04386   2.88080
   D36        0.69832   0.00246   0.00000   0.00541   0.00414   0.70246
   D37        0.59335  -0.00237   0.00000  -0.01307  -0.01256   0.58079
   D38       -1.47574  -0.00169   0.00000  -0.00028   0.00083  -1.47491
   D39        2.66883  -0.00786   0.00000  -0.03981  -0.03889   2.62994
   D40       -1.00441  -0.01222   0.00000  -0.03884  -0.03820  -1.04261
   D41        1.05417   0.00176   0.00000  -0.00207  -0.00164   1.05253
   D42        1.29908   0.02504   0.00000   0.09561   0.09474   1.39381
   D43       -2.92553   0.03903   0.00000   0.13238   0.13129  -2.79423
   D44       -3.01150  -0.00051   0.00000   0.00886   0.00860  -3.00289
   D45       -0.95291   0.01348   0.00000   0.04563   0.04516  -0.90775
   D46       -2.99426   0.04386   0.00000   0.13789   0.13772  -2.85654
   D47        1.12434   0.00165   0.00000   0.01162   0.01163   1.13597
   D48       -0.95961   0.01119   0.00000   0.04035   0.03962  -0.91999
   D49       -2.44707  -0.00656   0.00000  -0.04904  -0.04947  -2.49654
   D50        1.27692  -0.00094   0.00000  -0.01472  -0.01526   1.26166
   D51        1.75933  -0.00621   0.00000  -0.03612  -0.03581   1.72352
   D52       -0.79986  -0.00059   0.00000  -0.00180  -0.00160  -0.80146
   D53       -0.30826  -0.00236   0.00000  -0.01459  -0.01431  -0.32257
   D54       -2.86745   0.00326   0.00000   0.01973   0.01990  -2.84755
   D55        2.55235   0.01687   0.00000   0.04982   0.04940   2.60175
   D56       -1.70950  -0.00029   0.00000  -0.00153  -0.00155  -1.71106
   D57        0.29377  -0.01657   0.00000  -0.04822  -0.04779   0.24599
   D58       -1.52360   0.00128   0.00000   0.00903   0.00903  -1.51457
   D59       -3.12605  -0.00012   0.00000  -0.00050  -0.00050  -3.12656
   D60        1.08732  -0.00028   0.00000  -0.00046  -0.00046   1.08686
   D61       -1.03361   0.00061   0.00000   0.00234   0.00234  -1.03126
   D62       -0.14713   0.00163   0.00000   0.01104   0.01029  -0.13684
   D63        1.83184   0.00535   0.00000   0.02760   0.02770   1.85954
   D64       -0.18676   0.00214   0.00000   0.00624   0.00664  -0.18012
   D65       -2.02739  -0.00487   0.00000  -0.02073  -0.02049  -2.04788
   D66       -0.11152  -0.01032   0.00000  -0.03457  -0.03415  -0.14567
   D67       -0.21781   0.00001   0.00000   0.00046   0.00046  -0.21735
   D68       -1.87273  -0.00026   0.00000  -0.00113  -0.00113  -1.87386
   D69        1.65491   0.00027   0.00000   0.00159   0.00159   1.65650
   D70       -0.18464  -0.00339   0.00000  -0.00291  -0.00310  -0.18774
   D71        1.83939  -0.00327   0.00000  -0.00796  -0.00797   1.83142
         Item               Value     Threshold  Converged?
 Maximum Force            0.054472     0.000450     NO 
 RMS     Force            0.011703     0.000300     NO 
 Maximum Displacement     1.928042     0.001800     NO 
 RMS     Displacement     0.395575     0.001200     NO 
 Predicted change in Energy=-5.109138D-02
 GradGradGradGradGradGradGradGradGradGradGradGradGradGradGradGradGradGrad

                          Input orientation:                          
 ---------------------------------------------------------------------
 Center     Atomic      Atomic             Coordinates (Angstroms)
 Number     Number       Type             X           Y           Z
 ---------------------------------------------------------------------
      1          6           0       -0.596588    0.921005    0.119775
      2          6           0        1.468292   -0.817133    0.082740
      3          6           0        0.906953    0.669420   -0.037876
      4          6           0        0.605792   -2.071005    0.407517
      5          1           0        1.254636   -2.925426    0.142548
      6          1           0        2.149737   -0.791724    0.935959
      7          1           0       -0.977222    0.546060    1.075323
      8          1           0        1.104044    1.001529   -1.073024
      9          6           0       -0.729399   -2.411156   -0.276670
     10          8           0       -1.208138    0.243506   -0.996070
     11          6           0       -0.929730    2.395603    0.009109
     12          1           0       -0.296273    2.947242    0.713266
     13          1           0       -0.718770    2.745951   -1.011820
     14          8           0       -2.319312    2.557329    0.331577
     15          1           0       -2.540915    3.496690    0.249028
     16          8           0        0.359333   -2.035456    1.795591
     17          1           0       -0.522843   -2.465081    1.878219
     18          8           0        2.303332   -1.116964   -1.056162
     19          1           0        1.759545   -1.024434   -1.855657
     20          8           0        1.557298    1.518487    0.878837
     21          1           0        2.498288    1.555213    0.598942
     22          8           0       -3.675438    0.653386   -0.981136
     23          1           0       -3.724397   -0.218873   -0.507422
     24          1           0       -2.212639    0.541702   -1.103046
     25          1           0       -3.675355    1.350227   -0.299390
     26          8           0        4.002059    1.028174   -0.395153
     27          1           0        4.714066    0.682119    0.163705
     28          1           0        3.612157    0.230926   -0.810739
     29          8           0       -1.580437   -2.925335    0.501067
     30          1           0       -0.652969   -2.757692   -1.319495
 ---------------------------------------------------------------------
                    Distance matrix (angstroms):
                    1          2          3          4          5
     1  C    0.000000
     2  C    2.699301   0.000000
     3  C    1.532574   1.593578   0.000000
     4  C    3.237381   1.556142   2.792669   0.000000
     5  H    4.268791   2.119934   3.616124   1.105098   0.000000
     6  H    3.337948   1.092243   2.151234   2.073542   2.446097
     7  H    1.094777   2.970531   2.191927   3.130643   4.231131
     8  H    2.078798   2.185406   1.104840   3.446841   4.113546
     9  C    3.358289   2.738600   3.496373   1.538360   2.092035
    10  O    1.441564   3.074420   2.360751   3.258429   4.171790
    11  C    1.515806   4.009689   2.520975   4.739951   5.753486
    12  H    2.132617   4.204970   2.683363   5.107837   6.100759
    13  H    2.150782   4.321675   2.811320   5.193462   6.114852
    14  O    2.385413   5.078864   3.756258   5.475716   6.547475
    15  H    3.229747   5.891559   4.468060   6.397352   7.460637
    16  O    3.530270   2.376543   3.313283   1.410232   2.079942
    17  H    3.816168   3.147076   3.942186   1.895278   2.526638
    18  O    3.734392   1.443707   2.485549   2.436019   2.409814
    19  H    3.638465   1.971087   2.626858   2.747437   2.803841
    20  O    2.360590   2.469173   1.408625   3.743255   4.514652
    21  H    3.195321   2.637306   1.929382   4.094831   4.672375
    22  O    3.280693   5.454560   4.678494   5.261140   6.194852
    23  H    3.387608   5.260249   4.739086   4.797712   5.704266
    24  H    2.061743   4.098997   3.298902   4.129357   5.059098
    25  H    3.136676   5.594691   4.639982   5.525646   6.540743
    26  O    4.628627   3.170728   3.136245   4.667314   4.844420
    27  H    5.316205   3.576222   3.812467   4.951469   4.998248
    28  H    4.365271   2.548115   2.847406   3.977594   4.053297
    29  O    3.988442   3.730182   4.404524   2.349091   2.857651
    30  H    3.950632   3.198715   3.977563   2.244680   2.409286
                    6          7          8          9         10
     6  H    0.000000
     7  H    3.403962   0.000000
     8  H    2.888813   3.025642   0.000000
     9  C    3.518871   3.261047   3.955011   0.000000
    10  O    4.009957   2.106069   2.434482   2.791766   0.000000
    11  C    4.527827   2.135386   2.692711   4.819412   2.391530
    12  H    4.473525   2.521993   2.989568   5.466260   3.326185
    13  H    4.953516   3.043432   2.523769   5.209253   2.549894
    14  O    5.617279   2.529736   4.014073   5.252012   2.889832
    15  H    6.392541   3.440075   4.610789   6.201660   3.729580
    16  O    2.343370   2.994894   4.243445   2.370812   3.929886
    17  H    3.290997   3.149297   4.834664   2.165437   4.008442
    18  O    2.024332   4.250989   2.434459   3.388215   3.766286
    19  H    2.828343   4.306621   2.268639   3.257459   3.339716
    20  O    2.385649   2.721767   2.069407   4.691085   3.576099
    21  H    2.396493   3.650274   2.246320   5.188135   4.242903
    22  O    6.300497   3.394247   4.793026   4.308926   2.501159
    23  H    6.075932   3.261468   5.012297   3.718785   2.604636
    24  H    4.996588   2.504310   3.348542   3.406210   1.053275
    25  H    6.328170   3.133120   4.854148   4.777779   2.792374
    26  O    2.918045   5.214208   2.976359   5.850618   5.303108
    27  H    3.056856   5.765441   3.829331   6.276431   6.050616
    28  H    2.497086   4.971814   2.636902   5.110277   4.823872
    29  O    4.319215   3.569905   5.010435   1.262347   3.524426
    30  H    4.099667   4.093296   4.156872   1.101551   3.069204
                   11         12         13         14         15
    11  C    0.000000
    12  H    1.096088   0.000000
    13  H    1.099793   1.787440   0.000000
    14  O    1.435646   2.095329   2.098101   0.000000
    15  H    1.966182   2.357080   2.339564   0.968670   0.000000
    16  O    4.948483   5.140869   5.648515   5.514721   6.434900
    17  H    5.223540   5.540910   5.962010   5.553738   6.501507
    18  O    4.891382   5.138735   4.904812   6.065896   6.815868
    19  H    4.733519   5.157515   4.590197   5.852358   6.585151
    20  O    2.776881   2.346163   3.203395   4.050530   4.594050
    21  H    3.578472   3.124162   3.789706   4.927980   5.411593
    22  O    3.399238   4.421711   3.622383   2.680913   3.299216
    23  H    3.861664   4.823525   4.251869   3.222651   3.972185
    24  H    2.513901   3.571845   2.664335   2.476344   3.266164
    25  H    2.954054   3.872224   3.346191   1.921996   2.488980
    26  O    5.133793   4.836018   5.061350   6.544171   7.022752
    27  H    5.900200   5.525965   5.929331   7.281002   7.782277
    28  H    5.097716   4.997678   5.012256   6.472971   7.046177
    29  O    5.383105   6.015086   5.932519   5.534823   6.498342
    30  H    5.329000   6.066764   5.512630   5.809663   6.718773
                   16         17         18         19         20
    16  O    0.000000
    17  H    0.984702   0.000000
    18  O    3.571450   4.291302   0.000000
    19  H    4.039105   4.607231   0.971318   0.000000
    20  O    3.860838   4.603755   3.353564   3.739626   0.000000
    21  H    4.347414   5.189079   3.149271   3.636671   0.982421
    22  O    5.587438   5.276325   6.235821   5.754903   5.620448
    23  H    5.027991   4.581122   6.118922   5.704409   5.730308
    24  H    4.653910   4.558958   4.811172   4.335603   4.369714
    25  H    5.668377   5.407114   6.511869   6.131811   5.366301
    26  O    5.239718   6.151893   2.815000   3.372706   2.800055
    27  H    5.386276   6.345836   3.245984   3.964762   3.343068
    28  H    4.744503   5.621135   1.894746   2.469809   2.955490
    29  O    2.496073   1.796354   4.558380   4.508109   5.453040
    30  H    3.354123   3.213709   3.391320   3.018589   5.291848
                   21         22         23         24         25
    21  H    0.000000
    22  O    6.436213   0.000000
    23  H    6.564543   0.993800   0.000000
    24  H    5.110461   1.472113   1.794060   0.000000
    25  H    6.242026   0.974866   1.583589   1.854484   0.000000
    26  O    1.878116   7.708944   7.827251   6.273775   7.684762
    27  H    2.421032   8.467306   8.512922   7.042984   8.428713
    28  H    2.231958   7.301818   7.356585   5.840400   7.390679
    29  O    6.059776   4.403772   3.597020   3.872106   4.828026
    30  H    5.675560   4.570040   4.066785   3.655875   5.201003
                   26         27         28         29         30
    26  O    0.000000
    27  H    0.969035   0.000000
    28  H    0.979969   1.538609   0.000000
    29  O    6.899109   7.262802   6.216578   0.000000
    30  H    6.070954   6.545017   5.232779   2.050060   0.000000
 Stoichiometry    C6H16O8
 Framework group  C1[X(C6H16O8)]
 Deg. of freedom    84
 Full point group                 C1      NOp   1
 Largest Abelian subgroup         C1      NOp   1
 Largest concise Abelian subgroup C1      NOp   1
                         Standard orientation:                         
 ---------------------------------------------------------------------
 Center     Atomic      Atomic             Coordinates (Angstroms)
 Number     Number       Type             X           Y           Z
 ---------------------------------------------------------------------
      1          6           0       -0.821249    0.756229    0.215638
      2          6           0        1.605774   -0.400443   -0.024976
      3          6           0        0.688786    0.902658   -0.001470
      4          6           0        1.096694   -1.851857    0.211274
      5          1           0        1.923937   -2.493015   -0.143445
      6          1           0        2.298477   -0.271580    0.809621
      7          1           0       -1.052462    0.224563    1.144298
      8          1           0        0.749299    1.353181   -1.008466
      9          6           0       -0.142879   -2.461475   -0.465760
[...]
 0.00014204,0.00005706,-0.00061992,-0.00033827,-0.00029243,0.00031848,0
 .00008389,0.00046103,0.00274990,-0.00204546,0.00094826,-0.00247650,0.0
 0223336,0.00155885,0.00010520,0.00012269,0.00026904,0.00007085,0.00016
 466,-0.00001429,0.00427213,-0.01340894,-0.00045335,-0.00629358,-0.0006
 5952,0.00261138,0.04659996,0.04403940,-0.04062350,-0.00572791,-0.01006
 657,0.00008107,-0.00038693,-0.00056418,0.00202047,-0.00297844,-0.00627
 444,0.00025651,0.00021361,-0.00021313,0.00009792,0.00004084,0.00007027
 ,0.00006659,0.00003441,0.00006983,-0.00027469,0.00115226,0.00070397,0.
 00004316,-0.00015611,0.00034910,-0.00253876,0.00151277,0.00063636,-0.0
 1329798,-0.01861686,-0.04952940,-0.00099279,-0.00067460,0.00034573,0.0
 0009111,0.00018375,-0.00005249,0.00022178,0.00018066,-0.00012934,0.000
 39189,0.00019931,-0.00052449,0.00036936,0.00026883,0.00040608,0.000130
 28,-0.00010675,0.00013668,-0.00013431,0.00011672,-0.00022099,0.0016119
 4,-0.00111591,0.00047988,-0.00194027,0.00238893,0.00071474,-0.00250125
 ,-0.00004292,-0.00031717,-0.00017995,-0.00013620,-0.00069345,-0.007225
 72,-0.00006792,-0.00903054,0.00525587,0.00161394,-0.00174275,0.0515395
 2,0.02507448,0.07686526,-0.00173102,-0.00016786,-0.00020855,0.00007779
 ,0.00045247,-0.00000219,-0.00047374,0.00009361,-0.00064998,-0.00009723
 ,0.00005750,-0.00015525,0.00001291,-0.00007513,0.00001732,0.00004857,-
 0.00016698,0.00002306,-0.00025693,0.00050478,-0.00068318,0.00017684,-0
 .00004084,0.00007007,0.00056085,0.00068682,-0.00008070,0.00070229,-0.0
 0240099,-0.00088120,-0.00356088,-0.00086862,-0.00031054,0.00054982,0.0
 0017811,0.00015631,0.00035408,0.00009525,-0.00012388,-0.00437125,0.002
 35794,-0.00040004,0.00307532,0.00166942,0.00121101,-0.00007088,-0.0003
 2165,0.00011226,0.00009535,0.00019947,-0.00006893,0.00035735,-0.000424
 79,-0.00006306,-0.00046864,0.00045028,0.00024061,0.00030471,-0.0001349
 3,0.00033429,-0.00002384,0.00000301,-0.00005681,-0.01130340,0.00443064
 ,0.00071912,-0.00093149,0.00270686,0.00242739,-0.00372446,0.00726907,0
 .00614994,0.02151143,0.00045443,0.00340710,0.00147055,0.00046910,0.000
 42782,0.00003108,-0.00016168,-0.00040738,0.00009186,-0.00032043,-0.000
 19153,0.00012118,-0.00006201,-0.00006815,-0.00005418,-0.00003902,-0.00
 019481,-0.00000922,-0.00005938,-0.00016758,0.00036206,-0.00013423,-0.0
 0001756,-0.00000419,0.00197645,0.00005169,-0.00031180,-0.00491862,-0.0
 0305803,-0.00136810,-0.00722108,0.00350451,0.00149213,0.00212443,0.000
 02107,-0.00002054,0.00138958,0.00000573,-0.00010668,0.00643228,-0.0044
 7873,-0.00068552,0.00161677,-0.00036020,0.00015285,-0.00023377,-0.0001
 8719,-0.00022209,0.00025458,0.00008205,0.00026846,-0.00036448,-0.00023
 987,-0.00010809,0.00036293,0.00003342,-0.00004883,0.00001558,-0.000590
 97,-0.00020479,-0.00000140,0.00008311,-0.00006981,0.00753146,-0.329974
 90,-0.16245103,0.00102894,-0.02714679,-0.02525538,0.00798124,0.0034145
 6,-0.00181572,-0.01644378,0.35527398,-0.00016650,0.00052709,0.00239788
 ,0.00006904,0.00014538,0.00014403,-0.00000361,0.00007574,-0.00024647,-
 0.00016434,-0.00010055,0.00017441,0.00000547,-0.00003102,-0.00002622,-
 0.00001390,-0.00006241,-0.00000412,-0.00024557,0.00036891,-0.00052059,
 0.00011762,-0.00001057,0.00000956,0.00043999,-0.00000014,0.00000839,-0
 .00245348,0.00015390,-0.00125044,-0.00162888,0.00117562,-0.00030350,0.
 00020155,-0.00003206,-0.00011234,0.00091882,0.00020477,-0.00006837,-0.
 00069554,-0.00170942,-0.00399073,0.00186677,0.00097155,0.00060996,-0.0
 0002200,-0.00014599,-0.00018601,0.00000943,0.00016038,0.00013272,-0.00
 015692,-0.00001746,-0.00019100,0.00021774,-0.00007821,-0.00000388,-0.0
 0003887,-0.00013982,-0.00012579,-0.00000712,0.00001053,-0.00003662,0.0
 0685293,-0.22037120,-0.18837812,-0.00148577,0.03277293,0.01696346,0.00
 485277,-0.00276796,-0.00113803,-0.00756692,0.18845636,0.17690122,0.000
 22052,-0.00054194,0.00070397,0.00015430,-0.00061460,-0.00276878,-0.000
 39115,0.00053129,-0.00213238,-0.00060254,0.00030676,-0.00082395,-0.000
 01886,-0.00007158,-0.00007377,-0.00136119,0.00003904,-0.00009062,-0.00
 039913,0.00005369,-0.00004713,-0.00093891,-0.00112266,0.00106738,0.001
 13917,-0.00002517,0.00026757,-0.00111340,0.00032845,-0.00010766,0.0002
 8573,-0.00041843,-0.00003322,-0.00000815,0.00000131,0.00003376,-0.0000
 1384,0.00000540,-0.00003197,-0.00053032,0.00031142,0.00000608,0.000023
 38,-0.00003463,-0.00000617,-0.00040875,-0.00033614,0.00087122,0.000059
 87,-0.00000114,-0.00009820,-0.00935045,-0.00638205,0.00023046,0.000692
 22,-0.00111943,0.00107063,-0.00022786,0.00059616,0.00158653,-0.0002387
 6,-0.00026457,-0.00102682,-0.00070238,-0.00001364,-0.00006293,0.000295
 55,-0.00000182,0.00004103,0.00064749,0.00014960,0.00019897,0.00024238,
 -0.00006287,0.00001487,0.62754304,0.00006366,0.00019034,-0.00053697,0.
 00096432,-0.00145680,-0.00113057,-0.00028835,-0.00210027,0.00045767,-0
 .00074180,0.00019496,-0.00079599,0.00010968,0.00022693,-0.00007531,-0.
 00079103,-0.00014733,-0.00099144,0.00020036,-0.00000938,0.00006050,0.0
 0048183,0.00046676,-0.00056134,0.00109101,-0.00023440,0.00034771,-0.00
 065586,0.00078951,0.00019018,-0.00022264,-0.00021555,0.00008505,-0.000
 01592,0.00003741,0.00005187,-0.00001402,0.00005430,-0.00009719,0.00002
 754,0.00022501,-0.00002585,-0.00003779,-0.00000882,0.00002302,-0.00046
 725,0.00000703,0.00069746,0.00007567,-0.00010983,-0.00003582,-0.006187
 98,0.00159718,-0.00063084,-0.00037146,-0.00205419,0.00122949,0.0001469
 2,0.00127167,0.00009059,-0.00030756,-0.00089195,0.00038655,-0.00027536
 ,0.00015919,-0.00002143,0.00019269,-0.00011648,0.00003399,0.00021494,0
 .00001094,0.00014539,0.00003442,-0.00013798,-0.00002075,-0.02631433,0.
 34773101,-0.00027408,-0.00031150,-0.00047483,-0.00132891,0.00050698,-0
 .00441530,-0.00026231,0.00030405,-0.00101928,0.00101874,0.00020105,0.0
 0130711,-0.00003827,0.00003323,-0.00001194,0.00127753,-0.00060472,0.00
 133450,-0.00001046,-0.00000718,0.00008074,0.00060439,-0.00017264,-0.00
 003330,-0.00054744,0.00028179,-0.00085992,0.00011206,-0.00003141,0.000
 61667,0.00000731,0.00026388,-0.00015271,-0.00004561,0.00008115,0.00004
 512,0.00001587,-0.00006922,0.00006781,0.00021352,-0.00015191,0.0001467
 7,0.00002124,0.00000316,-0.00006528,-0.00002326,-0.00006756,0.00014140
 ,-0.00008631,-0.00001195,0.00006222,-0.00287258,-0.00108343,0.00386311
 ,0.00053776,0.00005226,-0.00012376,0.00063300,-0.00004067,0.00072065,-
 0.00086783,0.00061629,0.00086304,0.00013576,-0.00003325,0.00010278,-0.
 00011496,0.00004150,-0.00005113,-0.00010904,0.00005361,-0.00004015,-0.
 00006461,0.00000475,-0.00004166,0.09026310,0.17506511,0.11712266,-0.00
 002161,-0.00011360,0.00016936,-0.00039359,0.00025094,-0.00012898,0.000
 17964,0.00056297,-0.00044455,0.00015462,-0.00005194,0.00021711,-0.0000
 3034,-0.00006280,0.00000889,-0.00013207,-0.00008486,0.00038598,-0.0000
 5014,0.00001152,-0.00002327,-0.00048482,-0.00023605,0.00033426,-0.0002
 5200,0.00003644,-0.00006788,0.00013348,-0.00010867,-0.00006595,0.00000
 437,0.00002632,0.00000150,0.00000228,-0.00000167,-0.00000829,0.0000019
 2,-0.00000060,0.00000767,0.00003791,-0.00003785,-0.00000600,-0.0000017
 9,0.00000490,0.00000167,0.00009099,0.00000147,-0.00014848,-0.00001715,
 0.00001347,0.00002051,-0.00017696,-0.00115592,-0.00014586,0.00001642,0
 .00012888,-0.00005977,0.00001086,-0.00020666,0.00008774,-0.00004843,0.
 00014305,0.00007388,0.00007824,-0.00002310,0.00000106,-0.00004633,0.00
 002004,-0.00000580,-0.00006261,-0.00000334,-0.00002137,-0.00001899,0.0
 0002037,0.00000456,-0.38763812,0.16814343,0.02032906,0.41646055,-0.000
 03593,0.00003173,-0.00014006,-0.00002042,-0.00008581,-0.00049867,-0.00
 004338,-0.00016054,0.00054626,0.00003364,0.00014341,0.00017703,-0.0000
 1329,-0.00003237,-0.00000392,-0.00001965,0.00019053,0.00009824,0.00004
 118,-0.00000671,0.00001647,-0.00023136,0.00008397,-0.00015770,-0.00021
 092,-0.00001161,-0.00006786,0.00011081,-0.00004404,0.00005456,-0.00004
 085,0.00007220,0.00000814,-0.00000193,0.00000592,-0.00000318,-0.000001
 86,-0.00000257,0.00000639,0.00008761,-0.00005702,0.00000549,-0.0000005
 1,0.00000762,-0.00000268,0.00006084,-0.00001711,-0.00009248,-0.0000227
 1,-0.00000341,0.00002442,-0.00108573,-0.00149001,0.00024480,0.00005871
 ,0.00004405,-0.00011191,-0.00000353,-0.00008430,-0.00023330,0.00001608
 ,0.00003487,0.00018093,0.00009631,-0.00001484,0.00001478,-0.00005065,0
 .00001232,-0.00000869,-0.00008375,0.00000152,-0.00002491,-0.00003439,0
 .00001606,-0.00000465,0.22259418,-0.14481827,-0.03815429,-0.19223262,0
 .13376576,0.00003183,0.00016145,-0.00017090,0.00045775,-0.00008036,0.0
 0032149,0.00010050,-0.00037764,0.00047044,-0.00012474,-0.00005351,0.00
 001180,0.00003277,0.00004564,0.00000644,0.00019476,-0.00009013,-0.0001
 7039,0.00009632,-0.00001061,0.00001885,-0.00005367,0.00032411,-0.00042
 393,0.00011884,-0.00000674,0.00011039,-0.00004244,0.00005962,-0.000053
 42,-0.00003692,-0.00000487,0.00003643,0.00000353,-0.00000847,-0.000003
 49,-0.00000097,0.00001049,-0.00001338,0.00000771,0.00000991,-0.0000296
 4,-0.00000547,0.00000053,0.00001867,-0.00007072,0.00002335,-0.00005368
 ,0.00002396,-0.00001096,0.00001435,-0.00050776,-0.00069173,-0.00042017
 ,0.00002834,-0.00004950,0.00008935,-0.00001185,0.00017290,-0.00020595,
 -0.00000809,-0.00015875,0.00043575,-0.00000127,0.00001907,-0.00001723,
 0.00001539,-0.00001969,0.00001175,-0.00000092,-0.00001230,0.00002350,-
 0.00000479,-0.00000698,0.00000512,0.04935663,-0.04820958,-0.01821726,-
 0.02853607,0.03754087,0.01624329,-0.00016944,0.00039528,0.00037964,-0.
 00257348,-0.00130026,0.01050682,-0.00056384,0.00101584,0.00105651,0.00
 020008,-0.00052163,-0.00026451,-0.00000572,-0.00005273,0.00010480,0.00
 012016,0.00014454,-0.00125360,0.00010409,-0.00003391,-0.00009359,-0.00
 012683,0.00124544,0.00054839,-0.00126276,-0.00012692,0.00025139,0.0014
 1861,-0.00064415,-0.00030802,-0.00012069,0.00029448,-0.00001306,0.0000
 2998,-0.00005738,-0.00006393,0.00001909,-0.00000579,0.00005073,0.00031
 286,-0.00027677,-0.00002782,-0.00001309,0.00002948,0.00000256,0.000771
 49,0.00049364,-0.00122337,-0.00004897,0.00007213,-0.00000524,0.0030238
 8,0.00363649,-0.00273510,-0.00252954,0.00090640,-0.00162248,-0.0000296
 5,-0.00130028,-0.00183020,0.00065417,0.00028031,-0.00011973,0.00068652
 ,-0.00003534,0.00001709,-0.00028176,0.00003350,-0.00002965,-0.00063665
 ,-0.00019279,-0.00028038,-0.00018641,0.00011238,0.00001527,-0.22648529
 ,-0.13415019,-0.10919999,-0.02801397,-0.02914996,-0.02094447,0.2549715
 4,0.00004376,-0.00010130,0.00082403,-0.00186095,0.00095811,0.00546074,
 0.00087667,0.00219507,-0.00174823,0.00021884,-0.00043138,-0.00008963,-
 0.00009529,-0.00025461,0.00008953,-0.00006280,0.00022335,0.00003412,-0
 .00026138,0.00001786,-0.00008051,0.00073584,-0.00135907,-0.00007135,-0
 .00082887,0.00005046,0.00008402,0.00076733,-0.00086776,-0.00033805,0.0
 0019128,0.00007147,-0.00014392,0.00001275,-0.00005338,-0.00002515,0.00
 001674,-0.00005546,0.00007126,-0.00011026,-0.00011671,0.00002335,0.000
 02036,0.00000149,-0.00002199,0.00054986,0.00012952,-0.00074396,-0.0000
 4813,0.00010931,-0.00003140,0.00164349,-0.00611392,0.00051249,0.001018
 32,0.00288868,-0.00210513,-0.00008097,-0.00102554,0.00035765,0.0001162
 7,0.00036705,-0.00029223,0.00018820,-0.00013204,-0.00000311,-0.0001300
 7,0.00009640,-0.00001635,-0.00013059,-0.00006225,-0.00013889,-0.000000
 78,0.00011509,0.00002620,-0.18774425,-0.20094681,-0.13668664,0.0250008
 9,0.01241125,0.01141715,0.15942409,0.19214455,0.00017142,0.00018515,0.
 00071805,0.00518711,0.00263138,0.00075101,0.00018050,-0.00029297,-0.00
 092397,-0.00055204,-0.00039155,-0.00151311,-0.00002174,-0.00007362,0.0
 0002201,-0.00023929,0.00096534,-0.00199614,-0.00014071,0.00000652,-0.0
 0007532,0.00044160,-0.00082956,0.00032491,0.00037955,-0.00024106,0.000
 64317,-0.00018929,0.00010328,-0.00042538,-0.00001430,-0.00027792,0.000
 04131,0.00002116,-0.00003490,-0.00001605,-0.00000558,0.00005211,-0.000
 03768,-0.00020453,0.00016119,-0.00007983,-0.00001933,-0.00000135,0.000
 03329,0.00009093,0.00014385,-0.00003790,0.00004766,0.00002575,-0.00008
 548,-0.00020817,0.00050018,-0.00627263,-0.00137293,-0.00117662,0.00069
 168,-0.00021514,0.00021022,0.00018498,-0.00002909,-0.00037478,-0.00034
 908,-0.00016162,0.00001119,-0.00007916,0.00010424,-0.00001881,0.000036
 76,0.00013604,-0.00001049,0.00005462,0.00007394,-0.00000553,0.00002997
 ,-0.13870104,-0.12590498,-0.10133016,0.00806000,0.00059679,0.00202516,
 0.12767674,0.12396294,0.10787187,-0.00136042,-0.00011438,0.00205123,0.
 00062989,0.00681084,-0.01171209,-0.00245254,0.00190563,0.00169346,-0.0
 6748222,-0.00637476,0.01726854,-0.00295244,-0.00104590,-0.00341817,-0.
 00163155,-0.00318428,0.00146860,-0.00039814,-0.00071628,-0.00141460,0.
 00060802,-0.00104187,0.00003399,-0.58205859,0.01103050,0.26281837,0.00
 454766,-0.00217954,0.00039686,-0.00106731,0.00061369,-0.00035545,0.000
 18999,0.00005511,0.00001499,0.00016323,0.00028116,-0.00009013,0.001949
 47,0.00033722,0.00026552,0.00015537,0.00007184,-0.00000784,0.00029043,
 0.00067635,0.00459938,-0.00170623,-0.00033413,0.00028078,0.00012381,-0
 .00148029,0.00353468,-0.00104042,0.00155425,-0.00034224,0.00058421,-0.
 00157468,-0.00116277,0.00018656,0.00070746,0.00034645,-0.00024198,0.00
 726263,-0.00292814,0.00368012,-0.00516559,0.00098169,-0.00549631,-0.00
 219881,0.00127500,-0.00097463,-0.00176278,-0.00097189,-0.00100838,-0.0
 0097593,0.00060455,0.00022074,0.00017985,-0.00010541,0.00097689,0.0006
 5473,-0.00048729,0.66186913,0.00138725,0.00020701,-0.00092416,0.002057
 07,-0.00260832,0.00383838,0.00051957,-0.00082811,0.00051996,-0.0040467
 9,0.02715291,-0.00032179,-0.00458301,-0.00139661,-0.00300382,0.0005652
 4,0.00108645,-0.00051488,-0.00094237,-0.00148957,0.00155214,-0.0004810
 6,0.00011275,-0.00011289,0.00866128,-0.06539069,-0.01578333,-0.0026547
 1,-0.00140475,0.00114020,-0.00029916,-0.00005907,0.00074070,-0.0000302
 1,-0.00002230,-0.00005398,0.00008402,-0.00039191,0.00000353,-0.0001829
 6,-0.00031381,-0.00014946,-0.00015598,-0.00001582,0.00002330,-0.001002
 03,0.00123351,0.00042539,-0.00035816,-0.00552784,0.00071701,-0.0005963
 7,0.00040137,-0.00010168,0.00025051,-0.00097005,-0.00006851,-0.0004000
 9,0.00030851,-0.00003690,-0.00001275,-0.00012742,-0.00002200,0.0028026
 3,-0.00300151,0.00260962,-0.00308018,-0.00003077,-0.00075591,0.0011675
 3,0.00056869,-0.00103054,-0.00007770,0.00079056,0.00037359,-0.00001232
 ,0.00016701,-0.00008157,-0.00002970,0.00000621,0.00000877,0.00001680,-
 0.00011252,0.00005241,-0.00675814,0.03622132,0.00049078,-0.00122043,-0
 .00449041,-0.00378661,-0.00081160,-0.00148526,0.00041161,0.00006463,-0
 .00078685,0.00351146,-0.00184979,0.00596135,-0.00195752,0.00114301,0.0
 0048299,0.00015160,-0.00014974,0.00043531,-0.00066150,-0.00016260,0.00
 107954,-0.00030130,0.00008236,0.00013326,0.26473038,-0.01777394,-0.252
 00413,0.00039302,0.00521746,0.00080867,-0.00014363,0.00007900,0.000775
 84,-0.00010246,0.00026008,0.00009271,0.00004548,-0.00037557,0.00005127
 ,-0.00008704,0.00011092,0.00030506,0.00001200,-0.00002248,-0.00007901,
 -0.01552744,-0.00056520,0.00792906,0.00408067,0.00162369,0.00599499,0.
 00186409,0.00162482,0.00103954,-0.00089802,-0.00149029,0.00006836,0.00
 011680,-0.00000784,0.00106626,-0.00000123,0.00005008,-0.00008043,-0.00
 149512,0.00118907,0.00206775,-0.00062792,0.00102873,-0.00436211,0.0015
 3440,-0.00067768,-0.00033289,-0.00020650,0.00032676,-0.00070314,0.0002
 6821,0.00018379,0.00019852,-0.00004653,-0.00002223,-0.00004181,-0.0004
 5033,-0.00025376,-0.00010998,-0.29714410,0.01578756,0.25229575,-0.0001
 2468,-0.00015156,-0.00032560,0.00020119,0.00023622,-0.00187748,-0.0001
 2969,0.00001407,-0.00010556,0.01011650,-0.00574313,-0.02013638,0.00081
 559,0.00111115,0.00114054,-0.00012658,-0.00014235,0.00011668,-0.000116
 27,-0.00007969,-0.00001313,0.00001625,-0.00011898,0.00002836,-0.063842
 36,-0.00191989,-0.00784645,-0.00004375,0.00090874,-0.00021054,0.000029
 50,-0.00001094,0.00002312,-0.00001723,0.00002542,0.00001086,-0.0000040
 5,-0.00000082,0.00000681,-0.00005303,0.00000029,-0.00000914,0.00000739
 ,-0.00000301,-0.00000019,-0.00393236,-0.00174876,-0.00518696,-0.002166
 93,0.00004413,-0.00000214,0.00005809,0.00034440,0.00178208,-0.00069972
 ,-0.00122867,0.00027588,0.00001898,-0.00000673,0.00025180,0.00001042,0
 .00004413,-0.00003132,-0.00014285,-0.00028962,-0.00032945,0.00005569,0
 .00000144,0.00057158,0.00033317,0.00037945,0.00020958,0.00012409,0.000
 01500,0.00003447,0.00013383,0.00007100,0.00007178,-0.00000310,0.000004
 24,-0.00001276,-0.00024129,-0.00012506,-0.00000878,-0.00630436,0.00819
 177,0.04582675,0.06602757,-0.00004195,0.00008753,0.00053535,0.00248948
 ,-0.00069772,0.00146039,-0.00007489,-0.00036924,0.00005204,0.00355814,
 0.01473695,-0.00553782,-0.00331959,-0.00014801,-0.00109961,0.00034336,
 0.00044977,-0.00015604,-0.00006908,-0.00011978,-0.00017208,0.00001977,
 -0.00011328,-0.00003124,-0.00392838,-0.06470474,-0.05200426,-0.0000940
 1,-0.00330488,0.00082607,0.00002320,-0.00006123,-0.00009476,0.00001813
 ,-0.00002223,-0.00002379,-0.00000901,0.00004523,-0.00000479,-0.0000389
 7,0.00001687,-0.00000427,-0.00000179,0.00000117,-0.00000457,-0.0015035
 9,0.00207422,-0.00065563,0.00060069,0.00039299,0.00055777,0.00044134,0
 .00037697,0.00038741,-0.00080962,-0.00131581,0.00021773,-0.00008790,0.
 00006210,0.00008537,-0.00000092,-0.00003351,-0.00005007,0.00004348,-0.
 00014145,0.00024203,-0.00035555,0.00057905,-0.00025988,-0.00001122,-0.
 00056593,-0.00010528,-0.00003124,-0.00000508,0.00006926,0.00016426,0.0
 0011880,-0.00000085,-0.00001531,0.00000118,-0.00000204,-0.00025269,-0.
 00014693,0.00002586,0.00276611,0.01543479,-0.00338881,0.00017775,0.037
 37219,-0.00016162,-0.00020419,-0.00168229,-0.00071873,0.00049434,-0.00
 298506,-0.00028668,0.00030869,-0.00000183,0.00466862,-0.00604609,-0.00
 969246,-0.00047441,0.00075417,0.00028361,-0.00028677,-0.00041372,0.000
 37302,-0.00008907,0.00016772,0.00023388,-0.00001782,-0.00016710,0.0000
 6368,-0.01113574,-0.05328642,-0.29159358,0.00027754,0.00361747,0.00099
 962,0.00001822,0.00013480,0.00033406,-0.00006365,0.00014237,0.00004383
 ,0.00001322,-0.00009872,0.00001229,0.00002902,-0.00001681,0.00007967,0
 .00001260,-0.00000832,-0.00002141,-0.00299268,-0.00035719,-0.00071111,
 0.00149840,0.00007741,0.00142383,0.00144892,0.00140042,0.00137781,-0.0
 0031630,-0.00049525,0.00037215,0.00011348,-0.00015243,0.00024024,0.000
 02565,0.00010169,0.00001382,-0.00028676,-0.00005721,0.00031362,-0.0000
 7825,0.00042711,-0.00037942,0.00067407,-0.00052640,0.00001398,-0.00000
 819,-0.00002960,-0.00004968,0.00002425,-0.00001031,0.00016358,0.000005
 58,0.00001138,-0.00002153,-0.00014447,-0.00007319,-0.00009691,0.022506
 02,-0.00483115,-0.01631021,-0.01425442,0.05913652,0.31720279\\-0.00000
 476,-0.00001819,-0.00002727,0.00000042,0.00001022,-0.00000557,0.000015
 76,-0.00000539,0.00002268,0.00000725,0.00000103,0.00001381,0.00000614,
 0.00000304,-0.00000179,0.00000076,0.00000195,-0.00000544,0.00000042,-0
 .00000080,0.00001086,-0.00000331,0.00000533,-0.00000797,-0.00000083,0.
 00000067,0.00000716,0.00000678,-0.00000010,0.00002584,0.00002893,0.000
 00643,0.00000219,-0.00000296,-0.00000195,0.00000047,-0.00001066,-0.000
 00093,0.00000215,-0.00002719,-0.00000790,0.00001406,-0.00000106,-0.000
 00110,0.00000096,0.00000619,0.00000043,-0.00000247,0.00000740,0.000003
 89,0.00000542,-0.00000397,0.00000086,-0.00001086,-0.00000341,0.0000020
 7,-0.00000891,0.00000718,0.00001040,-0.00003380,0.00000268,-0.00001047
 ,-0.00000054,-0.00002284,-0.00000291,0.00000798,0.00001190,-0.00000125
 ,0.00001417,0.00000031,-0.00000713,0.00000072,-0.00000322,-0.00000780,
 0.00001347,-0.00000945,0.00002758,0.00000360,-0.00000524,-0.00000178,-
 0.00002266,-0.00000650,-0.00001160,-0.00002298,0.00000702,0.00000467,0
 .00000038,-0.00000374,0.00000074,0.00000435\\\@


 THE ONLY DIFFERENCE BETWEEN ECCENTRICS AND JOGGERS
 IS THAT JOGGERS WEAR SWEATBANDS WHEN THEY RUN IN THE RAIN.
 Job cpu time:       0 days  0 hours 31 minutes 17.1 seconds.
 File lengths (MBytes):  RWF=    220 Int=      0 D2E=      0 Chk=      6 Scr=      1
 Normal termination of Gaussian 09 at Mon Jan 16 00:53:32 2017.
