 Entering Gaussian System, Link 0=g09
 Initial command:
 /global/software/gaussian/g09.e01/l1.exe "/scratch/10464865.yak.local/Gau-1627.inp" -scrdir="/scratch/10464865.yak.local/"
 Entering Link 1 = /global/software/gaussian/g09.e01/l1.exe PID=      1628.
  
 Copyright (c) 1988,1990,1992,1993,1995,1998,2003,2009,2015,
            Gaussian, Inc.  All Rights Reserved.
  
 This is part of the Gaussian(R) 09 program.  It is based on
 the Gaussian(R) 03 system (copyright 2003, Gaussian, Inc.),
 the Gaussian(R) 98 system (copyright 1998, Gaussian, Inc.),
 the Gaussian(R) 94 system (copyright 1995, Gaussian, Inc.),
 the Gaussian 92(TM) system (copyright 1992, Gaussian, Inc.),
 the Gaussian 90(TM) system (copyright 1990, Gaussian, Inc.),
 the Gaussian 88(TM) system (copyright 1988, Gaussian, Inc.),
 the Gaussian 86(TM) system (copyright 1986, Carnegie Mellon
 University), and the Gaussian 82(TM) system (copyright 1983,
 Carnegie Mellon University). Gaussian is a federally registered
 trademark of Gaussian, Inc.
  
 This software contains proprietary and confidential information,
 including trade secrets, belonging to Gaussian, Inc.
  
 This software is provided under written license and may be
 used, copied, transmitted, or stored only in accord with that
 written license.
  
 The following legend is applicable only to US Government
 contracts under FAR:
  
                    RESTRICTED RIGHTS LEGEND
  
 Use, reproduction and disclosure by the US Government is
 subject to restrictions as set forth in subparagraphs (a)
 and (c) of the Commercial Computer Software - Restricted
 Rights clause in FAR 52.227-19.
  
 Gaussian, Inc.
 340 Quinnipiac St., Bldg. 40, Wallingford CT 06492
  
  
 ---------------------------------------------------------------
 Warning -- This program may not be used in any manner that
 competes with the business of Gaussian, Inc. or will provide
 assistance to any competitor of Gaussian, Inc.  The licensee
 of this program is prohibited from giving any competitor of
 Gaussian, Inc. access to this program.  By using this program,
 the user acknowledges that Gaussian, Inc. is engaged in the
 business of creating and licensing software in the field of
 computational chemistry and represents and warrants to the
 licensee that it is not a competitor of Gaussian, Inc. and that
 it will not use this program in any manner prohibited above.
 ---------------------------------------------------------------
  

 Cite this work as:
 Gaussian 09, Revision E.01,
 M. J. Frisch, G. W. Trucks, H. B. Schlegel, G. E. Scuseria, 
 M. A. Robb, J. R. Cheeseman, G. Scalmani, V. Barone, B. Mennucci, 
 G. A. Petersson, H. Nakatsuji, M. Caricato, X. Li, H. P. Hratchian, 
 A. F. Izmaylov, J. Bloino, G. Zheng, J. L. Sonnenberg, M. Hada, 
 M. Ehara, K. Toyota, R. Fukuda, J. Hasegawa, M. Ishida, T. Nakajima, 
 Y. Honda, O. Kitao, H. Nakai, T. Vreven, J. A. Montgomery, Jr., 
 J. E. Peralta, F. Ogliaro, M. Bearpark, J. J. Heyd, E. Brothers, 
 K. N. Kudin, V. N. Staroverov, T. Keith, R. Kobayashi, J. Normand, 
 K. Raghavachari, A. Rendell, J. C. Burant, S. S. Iyengar, J. Tomasi, 
 M. Cossi, N. Rega, J. M. Millam, M. Klene, J. E. Knox, J. B. Cross, 
 V. Bakken, C. Adamo, J. Jaramillo, R. Gomperts, R. E. Stratmann, 
 O. Yazyev, A. J. Austin, R. Cammi, C. Pomelli, J. W. Ochterski, 
 R. L. Martin, K. Morokuma, V. G. Zakrzewski, G. A. Voth, 
 P. Salvador, J. J. Dannenberg, S. Dapprich, A. D. Daniels, 
 O. Farkas, J. B. Foresman, J. V. Ortiz, J. Cioslowski, 
 and D. J. Fox, Gaussian, Inc., Wallingford CT, 2013.
 
 ******************************************
 Gaussian 09:  ES64L-G09RevE.01 30-Nov-2015
                15-Jan-2017 
 ******************************************
 -------------------------
 # b3lyp/6-31g(d) opt freq
 -------------------------
 1/14=-1,18=20,19=15,26=3,38=1/1,3;
 2/9=110,12=2,17=6,18=5,40=1/2;
 3/5=1,6=6,7=1,11=2,16=1,25=1,30=1,71=1,74=-5/1,2,3;
 4//1;
 5/5=2,38=5/2;
 6/7=2,8=2,9=2,10=2,28=1/1;
 7//1,2,3,16;
 1/14=-1,18=20,19=15,26=3/3(2);
 2/9=110/2;
 99//99;
 2/9=110/2;
 3/5=1,6=6,7=1,11=2,16=1,25=1,30=1,71=1,74=-5/1,2,3;
 4/5=5,16=3,69=1/1;
 5/5=2,38=5/2;
 7//1,2,3,16;
 1/14=-1,18=20,19=15,26=3/3(-5);
 2/9=110/2;
 6/7=2,8=2,9=2,10=2,19=2,28=1/1;
 99/9=1/99;
 ----------------------------------
 glo_1w_beta_ircf_boat6_B3LYP_631Gd
 ----------------------------------
 Symbolic Z-matrix:
 Charge =  0 Multiplicity = 1
 6                     0.87589   0.77126  -0.55851 
 6                    -1.42631  -0.3812   -0.55452 
 6                    -0.57374   0.8207   -0.05439 
 6                    -0.58655  -1.58598  -1.03249 
 1                    -1.24313  -2.46954  -1.0215 
 1                    -2.04252  -0.02248  -1.38721 
 1                     0.90279   0.76896  -1.64859 
 1                    -0.54096   0.7432    1.04421 
 6                     0.48738  -1.8669    0.00408 
 1                     1.28088  -2.55358  -0.32603 
 8                     1.50441  -0.47029  -0.15901 
 6                     1.70262   1.93107  -0.03397 
 1                     1.23017   2.85567  -0.38677 
 1                     1.66677   1.93892   1.07021 
 8                     3.03156   1.77735  -0.50855 
 1                     3.52431   2.57671  -0.27025 
 8                     0.05116  -1.9307    1.20983 
 8                    -0.00314  -1.40164  -2.31185 
 1                    -0.72127  -1.3756   -2.9629 
 8                    -2.32665  -0.8252    0.47016 
 1                    -1.72617  -1.2846    1.10482 
 8                    -1.11983   2.06149  -0.45209 
 1                    -1.97099   2.15089   0.03909 
 8                     2.05257  -0.86193   2.22314 
 1                     1.24261  -1.45253   2.11767 
 1                     1.80605  -0.17992   2.86595 
 1                     1.89548  -0.42281   0.79247 
 8                    -3.41531   1.65172   1.03869 
 1                    -4.2419    1.72745   0.53883 
 1                    -3.19233   0.69157   1.0089 
 
 Add virtual bond connecting atoms O17        and H25        Dist= 2.97D+00.
 Add virtual bond connecting atoms H27        and O24        Dist= 2.84D+00.
 Add virtual bond connecting atoms O28        and H23        Dist= 3.45D+00.
 Add virtual bond connecting atoms H30        and O20        Dist= 3.45D+00.

 GradGradGradGradGradGradGradGradGradGradGradGradGradGradGradGradGradGrad
 Berny optimization.
 Initialization pass.
                           ----------------------------
                           !    Initial Parameters    !
                           ! (Angstroms and Degrees)  !
 --------------------------                            --------------------------
 ! Name  Definition              Value          Derivative Info.                !
 --------------------------------------------------------------------------------
 ! R1    R(1,3)                  1.5356         estimate D2E/DX2                !
 ! R2    R(1,7)                  1.0904         estimate D2E/DX2                !
 ! R3    R(1,11)                 1.4478         estimate D2E/DX2                !
 ! R4    R(1,12)                 1.5178         estimate D2E/DX2                !
 ! R5    R(2,3)                  1.5561         estimate D2E/DX2                !
 ! R6    R(2,4)                  1.5444         estimate D2E/DX2                !
 ! R7    R(2,6)                  1.0963         estimate D2E/DX2                !
 ! R8    R(2,20)                 1.4345         estimate D2E/DX2                !
 ! R9    R(3,8)                  1.1018         estimate D2E/DX2                !
 ! R10   R(3,22)                 1.4128         estimate D2E/DX2                !
 ! R11   R(4,5)                  1.1009         estimate D2E/DX2                !
 ! R12   R(4,9)                  1.5188         estimate D2E/DX2                !
 ! R13   R(4,18)                 1.4181         estimate D2E/DX2                !
 ! R14   R(9,10)                 1.1001         estimate D2E/DX2                !
 ! R15   R(9,17)                 1.2838         estimate D2E/DX2                !
 ! R16   R(11,27)                1.0298         estimate D2E/DX2                !
 ! R17   R(12,13)                1.0966         estimate D2E/DX2                !
 ! R18   R(12,14)                1.1048         estimate D2E/DX2                !
 ! R19   R(12,15)                1.4195         estimate D2E/DX2                !
 ! R20   R(15,16)                0.9688         estimate D2E/DX2                !
 ! R21   R(17,25)                1.5724         estimate D2E/DX2                !
 ! R22   R(18,19)                0.9697         estimate D2E/DX2                !
 ! R23   R(20,21)                0.9871         estimate D2E/DX2                !
 ! R24   R(20,30)                1.8276         estimate D2E/DX2                !
 ! R25   R(22,23)                0.9868         estimate D2E/DX2                !
 ! R26   R(23,28)                1.826          estimate D2E/DX2                !
 ! R27   R(24,25)                1.008          estimate D2E/DX2                !
 ! R28   R(24,26)                0.9691         estimate D2E/DX2                !
 ! R29   R(24,27)                1.5048         estimate D2E/DX2                !
 ! R30   R(28,29)                0.9689         estimate D2E/DX2                !
 ! R31   R(28,30)                0.9862         estimate D2E/DX2                !
 ! A1    A(3,1,7)              110.5825         estimate D2E/DX2                !
 ! A2    A(3,1,11)             110.295          estimate D2E/DX2                !
 ! A3    A(3,1,12)             112.0946         estimate D2E/DX2                !
 ! A4    A(7,1,11)             105.2679         estimate D2E/DX2                !
 ! A5    A(7,1,12)             109.4903         estimate D2E/DX2                !
 ! A6    A(11,1,12)            108.8722         estimate D2E/DX2                !
 ! A7    A(3,2,4)              113.8338         estimate D2E/DX2                !
 ! A8    A(3,2,6)              107.4184         estimate D2E/DX2                !
 ! A9    A(3,2,20)             110.6927         estimate D2E/DX2                !
 ! A10   A(4,2,6)              109.0157         estimate D2E/DX2                !
 ! A11   A(4,2,20)             108.7174         estimate D2E/DX2                !
 ! A12   A(6,2,20)             106.9215         estimate D2E/DX2                !
 ! A13   A(1,3,2)              112.7573         estimate D2E/DX2                !
 ! A14   A(1,3,8)              107.2765         estimate D2E/DX2                !
 ! A15   A(1,3,22)             107.5036         estimate D2E/DX2                !
 ! A16   A(2,3,8)              106.4049         estimate D2E/DX2                !
 ! A17   A(2,3,22)             112.0918         estimate D2E/DX2                !
 ! A18   A(8,3,22)             110.7295         estimate D2E/DX2                !
 ! A19   A(2,4,5)              107.3811         estimate D2E/DX2                !
 ! A20   A(2,4,9)              108.5142         estimate D2E/DX2                !
 ! A21   A(2,4,18)             113.6713         estimate D2E/DX2                !
 ! A22   A(5,4,9)              105.4544         estimate D2E/DX2                !
 ! A23   A(5,4,18)             111.0204         estimate D2E/DX2                !
 ! A24   A(9,4,18)             110.4173         estimate D2E/DX2                !
 ! A25   A(4,9,10)             114.8783         estimate D2E/DX2                !
 ! A26   A(4,9,17)             114.2001         estimate D2E/DX2                !
 ! A27   A(10,9,17)            119.7293         estimate D2E/DX2                !
 ! A28   A(1,11,27)            112.3504         estimate D2E/DX2                !
 ! A29   A(1,12,13)            107.3633         estimate D2E/DX2                !
 ! A30   A(1,12,14)            109.46           estimate D2E/DX2                !
 ! A31   A(1,12,15)            108.1587         estimate D2E/DX2                !
 ! A32   A(13,12,14)           107.552          estimate D2E/DX2                !
 ! A33   A(13,12,15)           112.7733         estimate D2E/DX2                !
 ! A34   A(14,12,15)           111.4256         estimate D2E/DX2                !
 ! A35   A(12,15,16)           107.7333         estimate D2E/DX2                !
 ! A36   A(9,17,25)            105.6446         estimate D2E/DX2                !
 ! A37   A(4,18,19)            107.7298         estimate D2E/DX2                !
 ! A38   A(2,20,21)            102.7976         estimate D2E/DX2                !
 ! A39   A(2,20,30)            104.5359         estimate D2E/DX2                !
 ! A40   A(21,20,30)           119.0022         estimate D2E/DX2                !
 ! A41   A(3,22,23)            105.8345         estimate D2E/DX2                !
 ! A42   A(22,23,28)           158.4304         estimate D2E/DX2                !
 ! A43   A(25,24,26)           106.1032         estimate D2E/DX2                !
 ! A44   A(25,24,27)            89.2905         estimate D2E/DX2                !
 ! A45   A(26,24,27)           113.4983         estimate D2E/DX2                !
 ! A46   A(17,25,24)           147.9408         estimate D2E/DX2                !
 ! A47   A(11,27,24)           154.7736         estimate D2E/DX2                !
 ! A48   A(23,28,29)           111.7766         estimate D2E/DX2                !
 ! A49   A(23,28,30)            94.0583         estimate D2E/DX2                !
 ! A50   A(29,28,30)           104.6793         estimate D2E/DX2                !
 ! A51   A(20,30,28)           157.5232         estimate D2E/DX2                !
 ! D1    D(7,1,3,2)             58.9409         estimate D2E/DX2                !
 ! D2    D(7,1,3,8)            175.7618         estimate D2E/DX2                !
 ! D3    D(7,1,3,22)           -65.1103         estimate D2E/DX2                !
 ! D4    D(11,1,3,2)           -57.0852         estimate D2E/DX2                !
 ! D5    D(11,1,3,8)            59.7357         estimate D2E/DX2                !
 ! D6    D(11,1,3,22)          178.8636         estimate D2E/DX2                !
 ! D7    D(12,1,3,2)          -178.5735         estimate D2E/DX2                !
 ! D8    D(12,1,3,8)           -61.7526         estimate D2E/DX2                !
 ! D9    D(12,1,3,22)           57.3753         estimate D2E/DX2                !
 ! D10   D(3,1,11,27)          -84.8272         estimate D2E/DX2                !
 ! D11   D(7,1,11,27)          155.866          estimate D2E/DX2                !
 ! D12   D(12,1,11,27)          38.5556         estimate D2E/DX2                !
 ! D13   D(3,1,12,13)          -60.126          estimate D2E/DX2                !
 ! D14   D(3,1,12,14)           56.3353         estimate D2E/DX2                !
 ! D15   D(3,1,12,15)          177.9106         estimate D2E/DX2                !
 ! D16   D(7,1,12,13)           62.9778         estimate D2E/DX2                !
 ! D17   D(7,1,12,14)          179.4391         estimate D2E/DX2                !
 ! D18   D(7,1,12,15)          -58.9855         estimate D2E/DX2                !
 ! D19   D(11,1,12,13)         177.5723         estimate D2E/DX2                !
 ! D20   D(11,1,12,14)         -65.9664         estimate D2E/DX2                !
 ! D21   D(11,1,12,15)          55.6089         estimate D2E/DX2                !
 ! D22   D(4,2,3,1)             19.2517         estimate D2E/DX2                !
 ! D23   D(4,2,3,8)            -98.0852         estimate D2E/DX2                !
 ! D24   D(4,2,3,22)           140.736          estimate D2E/DX2                !
 ! D25   D(6,2,3,1)           -101.5399         estimate D2E/DX2                !
 ! D26   D(6,2,3,8)            141.1232         estimate D2E/DX2                !
 ! D27   D(6,2,3,22)            19.9444         estimate D2E/DX2                !
 ! D28   D(20,2,3,1)           142.0629         estimate D2E/DX2                !
 ! D29   D(20,2,3,8)            24.726          estimate D2E/DX2                !
 ! D30   D(20,2,3,22)          -96.4528         estimate D2E/DX2                !
 ! D31   D(3,2,4,5)            160.4741         estimate D2E/DX2                !
 ! D32   D(3,2,4,9)             46.9408         estimate D2E/DX2                !
 ! D33   D(3,2,4,18)           -76.3227         estimate D2E/DX2                !
 ! D34   D(6,2,4,5)            -79.6324         estimate D2E/DX2                !
 ! D35   D(6,2,4,9)            166.8343         estimate D2E/DX2                !
 ! D36   D(6,2,4,18)            43.5708         estimate D2E/DX2                !
 ! D37   D(20,2,4,5)            36.5878         estimate D2E/DX2                !
 ! D38   D(20,2,4,9)           -76.9455         estimate D2E/DX2                !
 ! D39   D(20,2,4,18)          159.791          estimate D2E/DX2                !
 ! D40   D(3,2,20,21)          -73.5236         estimate D2E/DX2                !
 ! D41   D(3,2,20,30)           51.4034         estimate D2E/DX2                !
 ! D42   D(4,2,20,21)           52.2124         estimate D2E/DX2                !
 ! D43   D(4,2,20,30)          177.1394         estimate D2E/DX2                !
 ! D44   D(6,2,20,21)          169.772          estimate D2E/DX2                !
 ! D45   D(6,2,20,30)          -65.301          estimate D2E/DX2                !
 ! D46   D(1,3,22,23)         -168.3326         estimate D2E/DX2                !
 ! D47   D(2,3,22,23)           67.2129         estimate D2E/DX2                !
 ! D48   D(8,3,22,23)          -51.4406         estimate D2E/DX2                !
 ! D49   D(2,4,9,10)          -167.0744         estimate D2E/DX2                !
 ! D50   D(2,4,9,17)            49.0537         estimate D2E/DX2                !
 ! D51   D(5,4,9,10)            78.127          estimate D2E/DX2                !
 ! D52   D(5,4,9,17)           -65.7449         estimate D2E/DX2                !
 ! D53   D(18,4,9,10)          -41.874          estimate D2E/DX2                !
 ! D54   D(18,4,9,17)          174.2541         estimate D2E/DX2                !
 ! D55   D(2,4,18,19)          -67.1966         estimate D2E/DX2                !
 ! D56   D(5,4,18,19)           53.9934         estimate D2E/DX2                !
 ! D57   D(9,4,18,19)          170.5861         estimate D2E/DX2                !
 ! D58   D(4,9,17,25)         -150.3148         estimate D2E/DX2                !
 ! D59   D(10,9,17,25)          67.7064         estimate D2E/DX2                !
 ! D60   D(1,11,27,24)         122.8671         estimate D2E/DX2                !
 ! D61   D(1,12,15,16)         172.647          estimate D2E/DX2                !
 ! D62   D(13,12,15,16)         54.0714         estimate D2E/DX2                !
 ! D63   D(14,12,15,16)        -66.9988         estimate D2E/DX2                !
 ! D64   D(9,17,25,24)          32.2182         estimate D2E/DX2                !
 ! D65   D(2,20,30,28)          -2.2889         estimate D2E/DX2                !
 ! D66   D(21,20,30,28)        111.626          estimate D2E/DX2                !
 ! D67   D(3,22,23,28)         -14.6397         estimate D2E/DX2                !
 ! D68   D(22,23,28,29)       -114.4189         estimate D2E/DX2                !
 ! D69   D(22,23,28,30)         -6.8464         estimate D2E/DX2                !
 ! D70   D(26,24,25,17)        109.3734         estimate D2E/DX2                !
 ! D71   D(27,24,25,17)         -4.9233         estimate D2E/DX2                !
 ! D72   D(25,24,27,11)        -11.4705         estimate D2E/DX2                !
 ! D73   D(26,24,27,11)       -118.7533         estimate D2E/DX2                !
 ! D74   D(23,28,30,20)        -10.8455         estimate D2E/DX2                !
 ! D75   D(29,28,30,20)        102.9239         estimate D2E/DX2                !
 --------------------------------------------------------------------------------
 Trust Radius=3.00D-01 FncErr=1.00D-07 GrdErr=1.00D-06
 Number of steps in this run=    167 maximum allowed number of steps=    180.
 GradGradGradGradGradGradGradGradGradGradGradGradGradGradGradGradGradGrad

                          Input orientation:                          
 ---------------------------------------------------------------------
 Center     Atomic      Atomic             Coordinates (Angstroms)
 Number     Number       Type             X           Y           Z
 ---------------------------------------------------------------------
      1          6           0        0.875886    0.771256   -0.558507
      2          6           0       -1.426305   -0.381204   -0.554515
      3          6           0       -0.573737    0.820700   -0.054388
      4          6           0       -0.586554   -1.585984   -1.032489
      5          1           0       -1.243129   -2.469538   -1.021504
      6          1           0       -2.042519   -0.022481   -1.387212
      7          1           0        0.902794    0.768960   -1.648590
      8          1           0       -0.540956    0.743199    1.044211
      9          6           0        0.487379   -1.866895    0.004078
     10          1           0        1.280879   -2.553581   -0.326034
     11          8           0        1.504408   -0.470287   -0.159013
     12          6           0        1.702615    1.931066   -0.033972
     13          1           0        1.230172    2.855670   -0.386774
     14          1           0        1.666766    1.938916    1.070213
     15          8           0        3.031559    1.777345   -0.508549
     16          1           0        3.524309    2.576706   -0.270248
     17          8           0        0.051155   -1.930702    1.209833
     18          8           0       -0.003141   -1.401637   -2.311847
     19          1           0       -0.721273   -1.375604   -2.962903
     20          8           0       -2.326647   -0.825196    0.470158
     21          1           0       -1.726165   -1.284596    1.104824
     22          8           0       -1.119831    2.061494   -0.452088
     23          1           0       -1.970993    2.150888    0.039089
     24          8           0        2.052569   -0.861931    2.223142
     25          1           0        1.242614   -1.452534    2.117668
     26          1           0        1.806051   -0.179920    2.865948
     27          1           0        1.895482   -0.422805    0.792473
     28          8           0       -3.415308    1.651718    1.038687
     29          1           0       -4.241896    1.727450    0.538832
     30          1           0       -3.192325    0.691568    1.008895
 ---------------------------------------------------------------------
                    Distance matrix (angstroms):
                    1          2          3          4          5
     1  C    0.000000
     2  C    2.574541   0.000000
     3  C    1.535574   1.556140   0.000000
     4  C    2.814244   1.544388   2.597879   0.000000
     5  H    3.899659   2.147736   3.494147   1.100854   0.000000
     6  H    3.135898   1.096260   2.155155   2.165688   2.600164
     7  H    1.090417   2.818613   2.173546   2.853682   3.935237
     8  H    2.139377   2.145705   1.101817   3.120874   3.883543
     9  C    2.725304   2.486260   2.890078   1.518787   2.099918
    10  H    3.357470   3.478544   3.859944   2.218700   2.619419
    11  O    1.447779   2.958621   2.448730   2.525839   3.505689
    12  C    1.517820   3.925264   2.532806   4.313580   5.386830
    13  H    2.121271   4.190747   2.739648   4.842079   5.905755
    14  H    2.154449   4.194018   2.744993   4.682278   5.681306
    15  O    2.379419   4.953181   3.757604   4.967619   6.047487
    16  H    3.218212   5.773960   4.463646   5.899847   6.982652
    17  O    3.332834   2.774303   3.091756   2.356589   2.635219
    18  O    2.927175   2.480906   3.218770   1.418137   2.083979
    19  H    3.597366   2.699303   3.647599   1.946512   2.288680
    20  O    3.723309   1.434468   2.461060   2.421708   2.470410
    21  H    3.709969   1.912966   2.665358   2.440831   2.481669
    22  O    2.378850   2.463979   1.412782   3.731668   4.568335
    23  H    3.219507   2.657168   1.931440   4.126641   4.796142
    24  O    3.433577   4.477616   3.862107   4.253041   4.896300
    25  H    3.498806   3.925741   3.631054   3.645155   4.131297
    26  H    3.673804   4.710436   3.897819   4.785330   5.445377
    27  H    2.071353   3.584742   2.891457   3.293019   4.162993
    28  O    4.662680   3.259938   3.155936   4.772246   5.093869
    29  H    5.320729   3.683664   3.824852   5.177781   5.389059
    30  H    4.360440   2.591123   2.829178   4.018026   4.232550
                    6          7          8          9         10
     6  H    0.000000
     7  H    3.060975   0.000000
     8  H    2.958509   3.055529   0.000000
     9  C    3.426067   3.138728   2.991979   0.000000
    10  H    4.310167   3.596023   4.008168   1.100070   0.000000
    11  O    3.780171   2.028919   2.665297   1.735356   2.101898
    12  C    4.435497   2.144107   2.758100   3.987826   4.513892
    13  H    4.471592   2.460430   3.105986   4.796574   5.409830
    14  H    4.862593   3.056851   2.510867   4.124536   4.720269
    15  O    5.455061   2.616902   4.030308   4.473938   4.674945
    16  H    6.244434   3.469887   4.649293   5.389229   5.599637
    17  O    3.843100   4.022940   2.743679   1.283825   2.063756
    18  O    2.629845   2.443792   4.019041   2.412589   2.630425
    19  H    2.461592   2.994022   4.536387   3.241170   3.514160
    20  O    2.043258   4.178482   2.445014   3.036628   4.078662
    21  H    2.811273   4.325483   2.349542   2.539782   3.563705
    22  O    2.463486   2.682028   2.076514   4.268893   5.203673
    23  H    2.600574   3.607858   2.244296   4.710350   5.730621
    24  O    5.523502   4.355697   3.269968   2.895517   3.155231
    25  H    5.012119   4.385797   3.025669   2.282397   2.680569
    26  H    5.738087   4.700777   3.111160   3.574224   4.012334
    27  H    4.518754   2.892148   2.712779   2.165575   2.483747
    28  O    3.251535   5.162047   3.014521   5.355560   6.449897
    29  H    3.407222   5.671980   3.862786   5.964170   7.041041
    30  H    2.751954   4.882440   2.652107   4.592996   5.685295
                   11         12         13         14         15
    11  O    0.000000
    12  C    2.412761   0.000000
    13  H    3.345007   1.096615   0.000000
    14  H    2.709542   1.104795   1.775912   0.000000
    15  O    2.739747   1.419488   2.103000   2.093145   0.000000
    16  H    3.657395   1.947112   2.313971   2.377830   0.968797
    17  O    2.473559   4.380368   5.181563   4.195669   5.058187
    18  O    2.788335   4.382377   4.832352   5.038473   4.750496
    19  H    3.692567   5.038644   5.324308   5.740627   5.481668
    20  O    3.898564   4.907757   5.189804   4.893642   6.036676
    21  H    3.563283   4.836721   5.301565   4.680193   5.883400
    22  O    3.658202   2.856227   2.481430   3.177664   4.161486
    23  H    4.357547   3.680904   3.305380   3.787009   5.046283
    24  O    2.475586   3.608028   4.616119   3.053331   3.922542
    25  H    2.493315   4.036075   4.983273   3.574773   4.530945
    26  H    3.053799   3.588384   4.486273   2.780923   4.089008
    27  H    1.029815   2.502183   3.547063   2.388970   2.797139
    28  O    5.490082   5.236580   5.006189   5.090280   6.631125
    29  H    6.191692   5.975515   5.663317   5.936276   7.348649
    30  H    4.977270   5.156003   5.117588   5.017011   6.497560
                   16         17         18         19         20
    16  H    0.000000
    17  O    5.879640   0.000000
    18  O    5.695458   3.561613   0.000000
    19  H    6.395007   4.279779   0.969673   0.000000
    20  O    6.808438   2.724556   3.670220   3.829632   0.000000
    21  H    6.660927   1.894029   3.828335   4.191001   0.987131
    22  O    4.676168   4.480047   4.086438   4.275124   3.261889
    23  H    5.520449   4.703095   4.692523   4.796864   3.028099
    24  O    4.495246   2.484899   5.008328   5.903653   4.717185
    25  H    5.209899   1.572381   4.601641   5.447474   3.980888
    26  H    4.515210   2.981210   5.619193   6.464714   4.820309
    27  H    3.574845   2.418571   3.768247   4.675263   4.253490
    28  O    7.122303   4.987924   5.673794   5.695193   2.764690
    29  H    7.854285   5.680018   5.990376   5.855414   3.192005
    30  H    7.092470   4.175744   5.057641   5.114145   1.827624
                   21         22         23         24         25
    21  H    0.000000
    22  O    3.740045   0.000000
    23  H    3.605313   0.986774   0.000000
    24  O    3.963346   5.076159   5.480531   0.000000
    25  H    3.141290   4.953099   5.256654   1.007950   0.000000
    26  H    4.098587   4.959242   5.262115   0.969077   1.580168
    27  H    3.735850   4.100340   4.705434   1.504766   1.800755
    28  O    3.388144   2.767588   1.826037   6.133437   5.700598
    29  H    3.965056   3.292537   2.363481   7.011568   6.533366
    30  H    2.462530   2.882083   2.135835   5.603273   5.049281
                   26         27         28         29         30
    26  H    0.000000
    27  H    2.089567   0.000000
    28  O    5.827209   5.706904   0.000000
    29  H    6.755086   6.508098   0.968937   0.000000
    30  H    5.402953   5.212911   0.986153   1.547776   0.000000
 Stoichiometry    C6H16O8
 Framework group  C1[X(C6H16O8)]
 Deg. of freedom    84
 Full point group                 C1      NOp   1
 Largest Abelian subgroup         C1      NOp   1
 Largest concise Abelian subgroup C1      NOp   1
                         Standard orientation:                         
 ---------------------------------------------------------------------
 Center     Atomic      Atomic             Coordinates (Angstroms)
 Number     Number       Type             X           Y           Z
 ---------------------------------------------------------------------
      1          6           0        0.889137    0.748668   -0.572072
      2          6           0       -1.423028   -0.383593   -0.560162
      3          6           0       -0.557829    0.809930   -0.061657
      4          6           0       -0.595919   -1.594849   -1.043779
      5          1           0       -1.260159   -2.472637   -1.031478
      6          1           0       -2.039628   -0.018043   -1.389598
      7          1           0        0.911365    0.748029   -1.662263
      8          1           0       -0.521033    0.730238    1.036659
      9          6           0        0.479932   -1.886952   -0.012306
     10          1           0        1.265965   -2.579986   -0.346984
     11          8           0        1.508456   -0.499022   -0.177386
     12          6           0        1.728234    1.900282   -0.049119
     13          1           0        1.262409    2.829599   -0.398321
     14          1           0        1.697175    1.906529    1.055221
     15          8           0        3.053739    1.735754   -0.529652
     16          1           0        3.554490    2.530354   -0.292110
     17          8           0        0.048323   -1.949029    1.195199
     18          8           0       -0.016386   -1.413397   -2.325313
     19          1           0       -0.737038   -1.379947   -2.973237
     20          8           0       -2.322839   -0.821461    0.467608
     21          1           0       -1.723699   -1.287203    1.098911
     22          8           0       -1.094722    2.056147   -0.454903
     23          1           0       -1.942961    2.152138    0.040071
     24          8           0        2.063340   -0.899585    2.201727
     25          1           0        1.247796   -1.482889    2.098725
     26          1           0        1.825558   -0.216558    2.846742
     27          1           0        1.903994   -0.456618    0.772493
     28          8           0       -3.387309    1.663901    1.045006
     29          1           0       -4.215331    1.747736    0.548830
     30          1           0       -3.172879    0.701888    1.012628
 ---------------------------------------------------------------------
 Rotational constants (GHZ):      0.6925055      0.5249299      0.4383823
 Standard basis: 6-31G(d) (6D, 7F)
 There are   242 symmetry adapted cartesian basis functions of A   symmetry.
 There are   242 symmetry adapted basis functions of A   symmetry.
   242 basis functions,   456 primitive gaussians,   242 cartesian basis functions
    58 alpha electrons       58 beta electrons
       nuclear repulsion energy      1126.6089130956 Hartrees.
 NAtoms=   30 NActive=   30 NUniq=   30 SFac= 1.00D+00 NAtFMM=   60 NAOKFM=F Big=F
 Integral buffers will be    131072 words long.
 Raffenetti 2 integral format.
 Two-electron integral symmetry is turned on.
 One-electron integrals computed using PRISM.
 NBasis=   242 RedAO= T EigKep=  1.33D-03  NBF=   242
 NBsUse=   242 1.00D-06 EigRej= -1.00D+00 NBFU=   242
 ExpMin= 1.61D-01 ExpMax= 5.48D+03 ExpMxC= 8.25D+02 IAcc=1 IRadAn=         1 AccDes= 0.00D+00
 Harris functional with IExCor=  402 and IRadAn=       1 diagonalized for initial guess.
 HarFok:  IExCor=  402 AccDes= 0.00D+00 IRadAn=         1 IDoV= 1 UseB2=F ITyADJ=14
 ICtDFT=  3500011 ScaDFX=  1.000000  1.000000  1.000000  1.000000
 FoFCou: FMM=F IPFlag=           0 FMFlag=      100000 FMFlg1=           0
         NFxFlg=           0 DoJE=T BraDBF=F KetDBF=T FulRan=T
         wScrn=  0.000000 ICntrl=     500 IOpCl=  0 I1Cent=   200000004 NGrid=           0
         NMat0=    1 NMatS0=      1 NMatT0=    0 NMatD0=    1 NMtDS0=    0 NMtDT0=    0
 Petite list used in FoFCou.
 Requested convergence on RMS density matrix=1.00D-08 within 128 cycles.
 Requested convergence on MAX density matrix=1.00D-06.
 Requested convergence on             energy=1.00D-06.
 No special actions if energy rises.
 Integral accuracy reduced to 1.0D-05 until final iterations.
 Initial convergence to 1.0D-05 achieved.  Increase integral accuracy.
 SCF Done:  E(RB3LYP) =  -839.964567975     A.U. after   14 cycles
            NFock= 14  Conv=0.67D-08     -V/T= 2.0084

 **********************************************************************

            Population analysis using the SCF density.

 **********************************************************************

 Orbital symmetries:
       Occupied  (A) (A) (A) (A) (A) (A) (A) (A) (A) (A) (A) (A)
                 (A) (A) (A) (A) (A) (A) (A) (A) (A) (A) (A) (A)
                 (A) (A) (A) (A) (A) (A) (A) (A) (A) (A) (A) (A)
                 (A) (A) (A) (A) (A) (A) (A) (A) (A) (A) (A) (A)
                 (A) (A) (A) (A) (A) (A) (A) (A) (A) (A)
       Virtual   (A) (A) (A) (A) (A) (A) (A) (A) (A) (A) (A) (A)
                 (A) (A) (A) (A) (A) (A) (A) (A) (A) (A) (A) (A)
                 (A) (A) (A) (A) (A) (A) (A) (A) (A) (A) (A) (A)
                 (A) (A) (A) (A) (A) (A) (A) (A) (A) (A) (A) (A)
                 (A) (A) (A) (A) (A) (A) (A) (A) (A) (A) (A) (A)
                 (A) (A) (A) (A) (A) (A) (A) (A) (A) (A) (A) (A)
                 (A) (A) (A) (A) (A) (A) (A) (A) (A) (A) (A) (A)
                 (A) (A) (A) (A) (A) (A) (A) (A) (A) (A) (A) (A)
                 (A) (A) (A) (A) (A) (A) (A) (A) (A) (A) (A) (A)
                 (A) (A) (A) (A) (A) (A) (A) (A) (A) (A) (A) (A)
                 (A) (A) (A) (A) (A) (A) (A) (A) (A) (A) (A) (A)
                 (A) (A) (A) (A) (A) (A) (A) (A) (A) (A) (A) (A)
                 (A) (A) (A) (A) (A) (A) (A) (A) (A) (A) (A) (A)
                 (A) (A) (A) (A) (A) (A) (A) (A) (A) (A) (A) (A)
                 (A) (A) (A) (A) (A) (A) (A) (A) (A) (A) (A) (A)
                 (A) (A) (A) (A)
 The electronic state is 1-A.
 Alpha  occ. eigenvalues --  -19.19188 -19.16338 -19.15663 -19.15641 -19.15048
 Alpha  occ. eigenvalues --  -19.14802 -19.13137 -19.11315 -10.28808 -10.24744
 Alpha  occ. eigenvalues --  -10.24674 -10.24413 -10.24043 -10.23992  -1.07653
 Alpha  occ. eigenvalues --   -1.04097  -1.03025  -1.02504  -1.01376  -1.00947
 Alpha  occ. eigenvalues --   -1.00041  -0.99354  -0.78271  -0.75878  -0.69351
 Alpha  occ. eigenvalues --   -0.64642  -0.62294  -0.58281  -0.55272  -0.54193
 Alpha  occ. eigenvalues --   -0.53281  -0.52346  -0.52204  -0.51206  -0.48865
 Alpha  occ. eigenvalues --   -0.46994  -0.46744  -0.46112  -0.43486  -0.42042
 Alpha  occ. eigenvalues --   -0.41481  -0.40782  -0.39930  -0.39471  -0.38381
 Alpha  occ. eigenvalues --   -0.37132  -0.36457  -0.35011  -0.34348  -0.33118
 Alpha  occ. eigenvalues --   -0.30906  -0.30653  -0.29501  -0.29064  -0.27467
 Alpha  occ. eigenvalues --   -0.26797  -0.24899  -0.24706
 Alpha virt. eigenvalues --    0.03313   0.05235   0.06053   0.06711   0.07846
 Alpha virt. eigenvalues --    0.10009   0.12888   0.13090   0.13677   0.14677
 Alpha virt. eigenvalues --    0.15324   0.16638   0.17121   0.17816   0.19408
 Alpha virt. eigenvalues --    0.20285   0.21870   0.22504   0.23052   0.23843
 Alpha virt. eigenvalues --    0.24452   0.25365   0.25934   0.28571   0.30657
 Alpha virt. eigenvalues --    0.31963   0.33548   0.34667   0.51813   0.52898
 Alpha virt. eigenvalues --    0.53172   0.55840   0.57372   0.58574   0.60395
 Alpha virt. eigenvalues --    0.61912   0.62565   0.64128   0.64996   0.65511
 Alpha virt. eigenvalues --    0.68433   0.70067   0.70665   0.74188   0.75180
 Alpha virt. eigenvalues --    0.75438   0.77888   0.79141   0.79475   0.80013
 Alpha virt. eigenvalues --    0.81823   0.82114   0.83196   0.84435   0.84938
 Alpha virt. eigenvalues --    0.86462   0.87750   0.88538   0.89047   0.90554
 Alpha virt. eigenvalues --    0.90640   0.91889   0.93005   0.93755   0.94964
 Alpha virt. eigenvalues --    0.97497   0.98895   0.99959   1.01302   1.02462
 Alpha virt. eigenvalues --    1.03987   1.05878   1.08062   1.08792   1.10253
 Alpha virt. eigenvalues --    1.11422   1.12992   1.14130   1.14602   1.16593
 Alpha virt. eigenvalues --    1.18473   1.21836   1.22478   1.24992   1.28154
 Alpha virt. eigenvalues --    1.29184   1.30333   1.33617   1.35400   1.39731
 Alpha virt. eigenvalues --    1.40313   1.42567   1.43771   1.45513   1.47661
 Alpha virt. eigenvalues --    1.50517   1.51280   1.55417   1.57397   1.59532
 Alpha virt. eigenvalues --    1.60583   1.61331   1.63988   1.65024   1.68306
 Alpha virt. eigenvalues --    1.70596   1.71570   1.72225   1.73475   1.73964
 Alpha virt. eigenvalues --    1.74974   1.77554   1.77905   1.78789   1.80764
 Alpha virt. eigenvalues --    1.81896   1.82152   1.83484   1.85505   1.88579
 Alpha virt. eigenvalues --    1.89684   1.90524   1.91980   1.93297   1.95542
 Alpha virt. eigenvalues --    1.96555   1.99077   2.02213   2.03772   2.04827
 Alpha virt. eigenvalues --    2.07512   2.09628   2.12355   2.13741   2.14781
 Alpha virt. eigenvalues --    2.15366   2.21910   2.22999   2.27230   2.30698
 Alpha virt. eigenvalues --    2.31711   2.33579   2.35503   2.36562   2.39519
 Alpha virt. eigenvalues --    2.42231   2.46578   2.47103   2.48435   2.51445
 Alpha virt. eigenvalues --    2.53413   2.54618   2.56533   2.58967   2.60586
 Alpha virt. eigenvalues --    2.62605   2.64017   2.65676   2.68701   2.70099
 Alpha virt. eigenvalues --    2.72329   2.75000   2.82113   2.88536   2.91466
 Alpha virt. eigenvalues --    2.93284   2.94653   2.99101   3.04139   3.10985
 Alpha virt. eigenvalues --    3.72737   3.75849   3.78109   3.79186   3.87983
 Alpha virt. eigenvalues --    4.00285   4.09009   4.11178   4.26672   4.34012
 Alpha virt. eigenvalues --    4.46911   4.54894   4.67591   4.83056
          Condensed to atoms (all electrons):
               1          2          3          4          5          6
     1  C    4.960435  -0.033534   0.292633  -0.000697   0.000092  -0.000429
     2  C   -0.033534   5.084821   0.318867   0.264156  -0.051644   0.350311
     3  C    0.292633   0.318867   4.974947  -0.034288   0.005494  -0.050501
     4  C   -0.000697   0.264156  -0.034288   5.103688   0.360322  -0.033584
     5  H    0.000092  -0.051644   0.005494   0.360322   0.604790  -0.004661
     6  H   -0.000429   0.350311  -0.050501  -0.033584  -0.004661   0.608659
     7  H    0.360995  -0.009223  -0.041622  -0.001224   0.000155   0.001711
     8  H   -0.037941  -0.063352   0.332612   0.000323  -0.000425   0.006782
     9  C   -0.016636  -0.022111  -0.010649   0.304589  -0.045241   0.004627
    10  H    0.002694   0.005987   0.000468  -0.077000  -0.001154  -0.000167
    11  O    0.173482  -0.011006  -0.031917  -0.013125   0.002367  -0.000001
    12  C    0.350339   0.004428  -0.030895   0.000104   0.000023  -0.000299
    13  H   -0.033123   0.000081  -0.003001  -0.000004   0.000000   0.000012
    14  H   -0.041334  -0.000114  -0.002763   0.000016  -0.000000   0.000003
    15  O   -0.051328  -0.000031   0.002330  -0.000001   0.000000   0.000001
    16  H    0.006510   0.000003  -0.000224  -0.000000   0.000000  -0.000000
    17  O    0.001119   0.007658   0.001134  -0.060968   0.001118   0.000047
    18  O   -0.004774  -0.039210   0.000092   0.177076  -0.028822  -0.000064
    19  H    0.000205  -0.003566  -0.000316  -0.018785  -0.005969   0.005196
    20  O    0.003227   0.184810  -0.040765  -0.016413   0.007315  -0.035753
    21  H   -0.000027  -0.027867  -0.003107  -0.013564   0.000854   0.005236
    22  O   -0.044119  -0.041812   0.218351   0.003069  -0.000074   0.006184
    23  H    0.004873   0.001286  -0.023980   0.000032   0.000002   0.000650
    24  O    0.004117  -0.000013  -0.001101  -0.000386   0.000004  -0.000001
    25  H   -0.000411  -0.000290   0.000207   0.002727  -0.000041   0.000005
    26  H   -0.000054  -0.000003  -0.000155  -0.000012  -0.000000   0.000000
    27  H   -0.014099  -0.000274   0.001275   0.001829  -0.000092   0.000021
    28  O    0.000057   0.005482   0.001882   0.000087   0.000001   0.000850
    29  H   -0.000003   0.000317  -0.000378   0.000008  -0.000001   0.000240
    30  H    0.000071  -0.006486  -0.000383   0.000571  -0.000021  -0.001291
               7          8          9         10         11         12
     1  C    0.360995  -0.037941  -0.016636   0.002694   0.173482   0.350339
     2  C   -0.009223  -0.063352  -0.022111   0.005987  -0.011006   0.004428
     3  C   -0.041622   0.332612  -0.010649   0.000468  -0.031917  -0.030895
     4  C   -0.001224   0.000323   0.304589  -0.077000  -0.013125   0.000104
     5  H    0.000155  -0.000425  -0.045241  -0.001154   0.002367   0.000023
     6  H    0.001711   0.006782   0.004627  -0.000167  -0.000001  -0.000299
     7  H    0.553133   0.006724  -0.001904  -0.000069  -0.038698  -0.039226
     8  H    0.006724   0.673616   0.002941   0.000128  -0.000187  -0.015628
     9  C   -0.001904   0.002941   4.727593   0.370419   0.058876   0.001073
    10  H   -0.000069   0.000128   0.370419   0.632196  -0.040526  -0.000200
    11  O   -0.038698  -0.000187   0.058876  -0.040526   8.498791  -0.031394
    12  C   -0.039226  -0.015628   0.001073  -0.000200  -0.031394   4.907899
    13  H   -0.003828   0.000405  -0.000031   0.000003   0.003323   0.361855
    14  H    0.006424   0.007737  -0.000100  -0.000008  -0.005472   0.341291
    15  O    0.002609  -0.000050  -0.000014   0.000003   0.001113   0.244459
    16  H   -0.000119  -0.000003   0.000004  -0.000000   0.000074  -0.023358
    17  O   -0.000062   0.004111   0.338833  -0.044943  -0.050044  -0.000242
    18  O    0.013462  -0.000073  -0.036906   0.005629   0.001875   0.000360
    19  H   -0.000338   0.000005   0.005857  -0.000626   0.000008  -0.000015
    20  O    0.000011   0.000857  -0.001708  -0.000351  -0.000040  -0.000046
    21  H    0.000030   0.004555  -0.004736   0.001064   0.000504  -0.000001
    22  O    0.003314  -0.035298   0.000109   0.000003   0.001128  -0.001140
    23  H   -0.000267  -0.004788  -0.000002   0.000000  -0.000079   0.000170
    24  O   -0.000073   0.001559   0.006276   0.000888  -0.063913  -0.001085
    25  H    0.000024   0.000261  -0.012737  -0.002837   0.006183   0.000022
    26  H    0.000025   0.001073  -0.000207  -0.000027   0.002946  -0.000048
    27  H    0.001777   0.001726  -0.008978   0.001089   0.155149  -0.005214
    28  O    0.000000   0.000616  -0.000004  -0.000000   0.000000  -0.000002
    29  H    0.000000  -0.000024  -0.000000   0.000000  -0.000000  -0.000000
    30  H   -0.000001   0.000515   0.000014   0.000001  -0.000001  -0.000001
              13         14         15         16         17         18
     1  C   -0.033123  -0.041334  -0.051328   0.006510   0.001119  -0.004774
     2  C    0.000081  -0.000114  -0.000031   0.000003   0.007658  -0.039210
     3  C   -0.003001  -0.002763   0.002330  -0.000224   0.001134   0.000092
     4  C   -0.000004   0.000016  -0.000001  -0.000000  -0.060968   0.177076
     5  H    0.000000  -0.000000   0.000000   0.000000   0.001118  -0.028822
     6  H    0.000012   0.000003   0.000001  -0.000000   0.000047  -0.000064
     7  H   -0.003828   0.006424   0.002609  -0.000119  -0.000062   0.013462
     8  H    0.000405   0.007737  -0.000050  -0.000003   0.004111  -0.000073
     9  C   -0.000031  -0.000100  -0.000014   0.000004   0.338833  -0.036906
    10  H    0.000003  -0.000008   0.000003  -0.000000  -0.044943   0.005629
    11  O    0.003323  -0.005472   0.001113   0.000074  -0.050044   0.001875
    12  C    0.361855   0.341291   0.244459  -0.023358  -0.000242   0.000360
    13  H    0.576298  -0.048820  -0.031609  -0.004886   0.000003   0.000000
    14  H   -0.048820   0.679970  -0.045341  -0.002497  -0.000053  -0.000008
    15  O   -0.031609  -0.045341   8.249897   0.234641  -0.000000  -0.000001
    16  H   -0.004886  -0.002497   0.234641   0.391795   0.000000   0.000000
    17  O    0.000003  -0.000053  -0.000000   0.000000   8.354425   0.001459
    18  O    0.000000  -0.000008  -0.000001   0.000000   0.001459   8.293426
    19  H    0.000000   0.000000   0.000000  -0.000000  -0.000136   0.230844
    20  O   -0.000002  -0.000003   0.000000  -0.000000  -0.024389   0.001556
    21  H    0.000000  -0.000006   0.000000  -0.000000   0.065666   0.000154
    22  O    0.012264   0.000084   0.000063   0.000008   0.000043  -0.000039
    23  H    0.000028  -0.000118   0.000001  -0.000001   0.000005  -0.000004
    24  O    0.000009   0.002055  -0.000128   0.000009  -0.057179   0.000002
    25  H   -0.000001  -0.000103  -0.000001  -0.000000   0.087757  -0.000031
    26  H   -0.000005   0.001927  -0.000055  -0.000001   0.003109  -0.000000
    27  H    0.000586   0.001621   0.005286  -0.000205   0.006093   0.000001
    28  O    0.000002   0.000001   0.000000   0.000000  -0.000001   0.000000
    29  H   -0.000000  -0.000000  -0.000000  -0.000000   0.000000  -0.000000
    30  H   -0.000001  -0.000001  -0.000000  -0.000000   0.000043  -0.000008
              19         20         21         22         23         24
     1  C    0.000205   0.003227  -0.000027  -0.044119   0.004873   0.004117
     2  C   -0.003566   0.184810  -0.027867  -0.041812   0.001286  -0.000013
     3  C   -0.000316  -0.040765  -0.003107   0.218351  -0.023980  -0.001101
     4  C   -0.018785  -0.016413  -0.013564   0.003069   0.000032  -0.000386
     5  H   -0.005969   0.007315   0.000854  -0.000074   0.000002   0.000004
     6  H    0.005196  -0.035753   0.005236   0.006184   0.000650  -0.000001
     7  H   -0.000338   0.000011   0.000030   0.003314  -0.000267  -0.000073
     8  H    0.000005   0.000857   0.004555  -0.035298  -0.004788   0.001559
     9  C    0.005857  -0.001708  -0.004736   0.000109  -0.000002   0.006276
    10  H   -0.000626  -0.000351   0.001064   0.000003   0.000000   0.000888
    11  O    0.000008  -0.000040   0.000504   0.001128  -0.000079  -0.063913
    12  C   -0.000015  -0.000046  -0.000001  -0.001140   0.000170  -0.001085
    13  H    0.000000  -0.000002   0.000000   0.012264   0.000028   0.000009
    14  H    0.000000  -0.000003  -0.000006   0.000084  -0.000118   0.002055
    15  O    0.000000   0.000000   0.000000   0.000063   0.000001  -0.000128
    16  H   -0.000000  -0.000000  -0.000000   0.000008  -0.000001   0.000009
    17  O   -0.000136  -0.024389   0.065666   0.000043   0.000005  -0.057179
    18  O    0.230844   0.001556   0.000154  -0.000039  -0.000004   0.000002
    19  H    0.386846   0.000016  -0.000017  -0.000020   0.000001  -0.000000
    20  O    0.000016   8.341445   0.210812   0.000971   0.000750  -0.000005
    21  H   -0.000017   0.210812   0.333992   0.000005  -0.000012   0.000125
    22  O   -0.000020   0.000971   0.000005   8.370442   0.209349   0.000001
    23  H    0.000001   0.000750  -0.000012   0.209349   0.321266  -0.000000
    24  O   -0.000000  -0.000005   0.000125   0.000001  -0.000000   8.406889
    25  H    0.000002   0.000126  -0.000446  -0.000003   0.000000   0.177238
    26  H    0.000000   0.000002  -0.000040  -0.000001  -0.000000   0.235032
    27  H    0.000006   0.000007  -0.000020  -0.000057   0.000005   0.107616
    28  O   -0.000000  -0.023349   0.000480  -0.024994   0.072550  -0.000000
    29  H   -0.000000   0.000846  -0.000005   0.001386  -0.003133  -0.000000
    30  H   -0.000002   0.062280  -0.001110   0.003456  -0.007569   0.000000
              25         26         27         28         29         30
     1  C   -0.000411  -0.000054  -0.014099   0.000057  -0.000003   0.000071
     2  C   -0.000290  -0.000003  -0.000274   0.005482   0.000317  -0.006486
     3  C    0.000207  -0.000155   0.001275   0.001882  -0.000378  -0.000383
     4  C    0.002727  -0.000012   0.001829   0.000087   0.000008   0.000571
     5  H   -0.000041  -0.000000  -0.000092   0.000001  -0.000001  -0.000021
     6  H    0.000005   0.000000   0.000021   0.000850   0.000240  -0.001291
     7  H    0.000024   0.000025   0.001777   0.000000   0.000000  -0.000001
     8  H    0.000261   0.001073   0.001726   0.000616  -0.000024   0.000515
     9  C   -0.012737  -0.000207  -0.008978  -0.000004  -0.000000   0.000014
    10  H   -0.002837  -0.000027   0.001089  -0.000000   0.000000   0.000001
    11  O    0.006183   0.002946   0.155149   0.000000  -0.000000  -0.000001
    12  C    0.000022  -0.000048  -0.005214  -0.000002  -0.000000  -0.000001
    13  H   -0.000001  -0.000005   0.000586   0.000002  -0.000000  -0.000001
    14  H   -0.000103   0.001927   0.001621   0.000001  -0.000000  -0.000001
    15  O   -0.000001  -0.000055   0.005286   0.000000  -0.000000  -0.000000
    16  H   -0.000000  -0.000001  -0.000205   0.000000  -0.000000  -0.000000
    17  O    0.087757   0.003109   0.006093  -0.000001   0.000000   0.000043
    18  O   -0.000031  -0.000000   0.000001   0.000000  -0.000000  -0.000008
    19  H    0.000002   0.000000   0.000006  -0.000000  -0.000000  -0.000002
    20  O    0.000126   0.000002   0.000007  -0.023349   0.000846   0.062280
    21  H   -0.000446  -0.000040  -0.000020   0.000480  -0.000005  -0.001110
    22  O   -0.000003  -0.000001  -0.000057  -0.024994   0.001386   0.003456
    23  H    0.000000  -0.000000   0.000005   0.072550  -0.003133  -0.007569
    24  O    0.177238   0.235032   0.107616  -0.000000  -0.000000   0.000000
    25  H    0.319999  -0.007293  -0.014627   0.000000  -0.000000  -0.000003
    26  H   -0.007293   0.369902  -0.006109  -0.000000   0.000000  -0.000000
    27  H   -0.014627  -0.006109   0.289776  -0.000000   0.000000  -0.000000
    28  O    0.000000  -0.000000  -0.000000   8.334051   0.240345   0.207277
    29  H   -0.000000   0.000000   0.000000   0.240345   0.380396  -0.014679
    30  H   -0.000003  -0.000000  -0.000000   0.207277  -0.014679   0.325030
 Mulliken charges:
               1
     1  C    0.117663
     2  C    0.082327
     3  C    0.125752
     4  C    0.051456
     5  H    0.155610
     6  H    0.136217
     7  H    0.186262
     8  H    0.111225
     9  C    0.340753
    10  H    0.147334
    11  O   -0.619415
    12  C   -0.063228
    13  H    0.170442
    14  H    0.105613
    15  O   -0.611844
    16  H    0.398250
    17  O   -0.634605
    18  O   -0.615998
    19  H    0.400801
    20  O   -0.672206
    21  H    0.427479
    22  O   -0.682674
    23  H    0.428982
    24  O   -0.817935
    25  H    0.444272
    26  H    0.399995
    27  H    0.475815
    28  O   -0.815331
    29  H    0.394687
    30  H    0.432299
 Sum of Mulliken charges =  -0.00000
 Mulliken charges with hydrogens summed into heavy atoms:
               1
     1  C    0.303926
     2  C    0.218544
     3  C    0.236977
     4  C    0.207066
     9  C    0.488087
    11  O   -0.143600
    12  C    0.212827
    15  O   -0.213595
    17  O   -0.634605
    18  O   -0.215196
    20  O   -0.244727
    22  O   -0.253691
    24  O    0.026332
    28  O    0.011655
 Electronic spatial extent (au):  <R**2>=           2983.6215
 Charge=             -0.0000 electrons
 Dipole moment (field-independent basis, Debye):
    X=             -1.6330    Y=              1.4430    Z=             -0.4230  Tot=              2.2199
 Quadrupole moment (field-independent basis, Debye-Ang):
   XX=            -79.7276   YY=            -83.4913   ZZ=            -79.2224
   XY=              9.3844   XZ=              9.6241   YZ=              5.1750
 Traceless Quadrupole moment (field-independent basis, Debye-Ang):
   XX=              1.0862   YY=             -2.6775   ZZ=              1.5914
   XY=              9.3844   XZ=              9.6241   YZ=              5.1750
 Octapole moment (field-independent basis, Debye-Ang**2):
  XXX=            -48.6598  YYY=             12.0907  ZZZ=              5.2692  XYY=             24.6790
  XXY=             40.4863  XXZ=            -10.1126  XZZ=             -8.1088  YZZ=             -2.6080
  YYZ=             -9.0423  XYZ=              8.1617
 Hexadecapole moment (field-independent basis, Debye-Ang**3):
 XXXX=          -1368.6590 YYYY=          -1111.9908 ZZZZ=           -553.7796 XXXY=              1.9048
 XXXZ=             26.5777 YYYX=             71.3286 YYYZ=             11.5655 ZZZX=             64.1833
 ZZZY=             21.6715 XXYY=           -365.8563 XXZZ=           -413.5308 YYZZ=           -330.8560
 XXYZ=              0.3520 YYXZ=             15.8376 ZZXY=             49.5225
 N-N= 1.126608913096D+03 E-N=-4.225905387450D+03  KE= 8.329725736220D+02
 Calling FoFJK, ICntrl=      2127 FMM=F ISym2X=0 I1Cent= 0 IOpClX= 0 NMat=1 NMatS=1 NMatT=0.
 ***** Axes restored to original set *****
 -------------------------------------------------------------------
 Center     Atomic                   Forces (Hartrees/Bohr)
 Number     Number              X              Y              Z
 -------------------------------------------------------------------
      1        6           0.000428783    0.002993334   -0.001363921
      2        6           0.000478698    0.000242441   -0.000086363
      3        6           0.000705795    0.000121441    0.000015588
      4        6          -0.002455577   -0.001386505   -0.001618318
      5        1          -0.000582272    0.000152558   -0.000561059
      6        1           0.000042688    0.000069990    0.000021029
      7        1          -0.000155977    0.000556102   -0.000120389
      8        1           0.000080638   -0.000004364   -0.000004770
      9        6          -0.008290561   -0.011307692    0.001349068
     10        1          -0.000125492   -0.000285062    0.000200548
     11        8           0.005124675    0.006365815   -0.008805309
     12        6          -0.000004857    0.002740997   -0.000065066
     13        1           0.000167751    0.000358493    0.000095048
     14        1           0.000009451    0.000074407   -0.000010788
     15        8          -0.000072346    0.000729253   -0.000078509
     16        1           0.000121092   -0.000058615    0.000082939
     17        8          -0.005158935   -0.004920929   -0.001515417
     18        8           0.001167063    0.000252726    0.000480742
     19        1           0.000188771    0.000090758   -0.000088325
     20        8          -0.000242432    0.000278266   -0.000402707
     21        1          -0.000114438    0.000018191    0.000017979
     22        8          -0.000330753   -0.000084790    0.000306382
     23        1          -0.000012457    0.000005197    0.000030066
     24        8           0.008648985    0.003410952    0.011460131
     25        1           0.000032421   -0.000755445    0.000869653
     26        1           0.000348571   -0.000184273    0.001038376
     27        1           0.000007723    0.000533680   -0.001291664
     28        8          -0.000018919   -0.000003342    0.000054907
     29        1           0.000000866   -0.000008491    0.000001251
     30        1           0.000011045    0.000004907   -0.000011102
 -------------------------------------------------------------------
 Cartesian Forces:  Max     0.011460131 RMS     0.002691975

 GradGradGradGradGradGradGradGradGradGradGradGradGradGradGradGradGradGrad
 Berny optimization.
 FormGI is forming the generalized inverse of G from B-inverse, IUseBI=4.
 Internal  Forces:  Max     0.013893868 RMS     0.003818964
 Search for a local minimum.
 Step number   1 out of a maximum of  167
 All quantities printed in internal units (Hartrees-Bohrs-Radians)
 Mixed Optimization -- RFO/linear search
 Second derivative matrix not updated -- first step.
 ITU=  0
     Eigenvalues ---    0.00382   0.00445   0.00513   0.00530   0.00605
     Eigenvalues ---    0.00693   0.00707   0.00841   0.01434   0.01452
     Eigenvalues ---    0.01499   0.02022   0.02726   0.02840   0.03905
     Eigenvalues ---    0.04112   0.04271   0.04544   0.04614   0.04951
     Eigenvalues ---    0.05214   0.05413   0.05441   0.05956   0.06214
     Eigenvalues ---    0.06240   0.06552   0.07020   0.07250   0.07488
     Eigenvalues ---    0.07655   0.08022   0.08539   0.09227   0.09494
     Eigenvalues ---    0.09948   0.10165   0.10920   0.11003   0.11966
     Eigenvalues ---    0.13413   0.13630   0.14338   0.15552   0.16000
     Eigenvalues ---    0.16000   0.16072   0.16926   0.17627   0.18068
     Eigenvalues ---    0.19164   0.20021   0.20563   0.21056   0.21640
     Eigenvalues ---    0.21981   0.22217   0.26070   0.27670   0.28627
     Eigenvalues ---    0.29905   0.30578   0.33157   0.33482   0.33588
     Eigenvalues ---    0.33674   0.34059   0.34099   0.34764   0.37731
     Eigenvalues ---    0.39157   0.41600   0.42397   0.42538   0.42742
     Eigenvalues ---    0.45479   0.48759   0.49246   0.50024   0.53444
     Eigenvalues ---    0.53566   0.53595   0.53623   0.69929
 RFO step:  Lambda=-1.80379534D-02 EMin= 3.82435318D-03
 Linear search not attempted -- first point.
 Iteration  1 RMS(Cart)=  0.14178191 RMS(Int)=  0.00483873
 Iteration  2 RMS(Cart)=  0.01042211 RMS(Int)=  0.00071271
 Iteration  3 RMS(Cart)=  0.00009299 RMS(Int)=  0.00071164
 Iteration  4 RMS(Cart)=  0.00000013 RMS(Int)=  0.00071164
 Variable       Old X    -DE/DX   Delta X   Delta X   Delta X     New X
                                 (Linear)    (Quad)   (Total)
    R1        2.90181   0.00464   0.00000   0.01053   0.01029   2.91211
    R2        2.06059   0.00012   0.00000   0.00032   0.00032   2.06091
    R3        2.73591   0.00072   0.00000   0.00198   0.00175   2.73765
    R4        2.86826   0.00306   0.00000   0.00944   0.00944   2.87770
    R5        2.94068   0.00994   0.00000   0.03368   0.03371   2.97439
    R6        2.91847   0.00355   0.00000   0.01472   0.01516   2.93363
    R7        2.07163  -0.00002   0.00000  -0.00005  -0.00005   2.07158
    R8        2.71075  -0.00014   0.00000   0.00308   0.00308   2.71383
    R9        2.08213  -0.00001   0.00000  -0.00002  -0.00002   2.08211
   R10        2.66977  -0.00012   0.00000   0.00278   0.00283   2.67260
   R11        2.08031   0.00022   0.00000   0.00063   0.00063   2.08094
   R12        2.87009   0.00187   0.00000   0.00497   0.00486   2.87496
   R13        2.67989   0.00024   0.00000   0.00053   0.00053   2.68042
   R14        2.07883   0.00003   0.00000   0.00007   0.00007   2.07890
   R15        2.42608   0.00045   0.00000  -0.00166  -0.00210   2.42398
   R16        1.94607   0.00680   0.00000   0.01727   0.01760   1.96366
   R17        2.07230   0.00020   0.00000   0.00057   0.00057   2.07287
   R18        2.08776  -0.00002   0.00000  -0.00005  -0.00005   2.08771
   R19        2.68244  -0.00003   0.00000  -0.00006  -0.00006   2.68238
   R20        1.83076   0.00003   0.00000   0.00006   0.00006   1.83082
   R21        2.97137   0.01261   0.00000   0.11012   0.10992   3.08130
   R22        1.83242  -0.00009   0.00000  -0.00016  -0.00016   1.83226
   R23        1.86541  -0.00007   0.00000  -0.00013  -0.00013   1.86528
   R24        3.45371  -0.00045   0.00000  -0.01013  -0.01006   3.44364
   R25        1.86473  -0.00016   0.00000  -0.00154  -0.00149   1.86324
   R26        3.45071  -0.00030   0.00000  -0.01806  -0.01800   3.43271
   R27        1.90475   0.01389   0.00000   0.03045   0.03034   1.93509
   R28        1.83129   0.00049   0.00000   0.00088   0.00088   1.83217
   R29        2.84360   0.01055   0.00000   0.09087   0.09111   2.93471
   R30        1.83102   0.00001   0.00000   0.00001   0.00001   1.83104
   R31        1.86356  -0.00048   0.00000  -0.00263  -0.00256   1.86100
    A1        1.93003   0.00118   0.00000   0.00403   0.00377   1.93379
    A2        1.92501   0.00146   0.00000   0.01517   0.01388   1.93889
    A3        1.95642  -0.00393   0.00000  -0.01996  -0.01918   1.93724
    A4        1.83727  -0.00178   0.00000  -0.00298  -0.00275   1.83453
    A5        1.91097   0.00030   0.00000  -0.00752  -0.00786   1.90311
    A6        1.90018   0.00296   0.00000   0.01249   0.01318   1.91336
    A7        1.98678   0.00988   0.00000   0.08471   0.08491   2.07168
    A8        1.87481  -0.00367   0.00000  -0.02454  -0.02482   1.84998
    A9        1.93195  -0.00003   0.00000  -0.00253  -0.00236   1.92959
   A10        1.90268  -0.00031   0.00000  -0.00773  -0.00845   1.89423
   A11        1.89748  -0.00752   0.00000  -0.04786  -0.04806   1.84942
   A12        1.86613   0.00131   0.00000  -0.00668  -0.00724   1.85890
   A13        1.96799   0.01303   0.00000   0.08219   0.08163   2.04962
   A14        1.87233  -0.00086   0.00000  -0.00212  -0.00307   1.86926
   A15        1.87629  -0.00853   0.00000  -0.04878  -0.04814   1.82815
   A16        1.85712  -0.00390   0.00000  -0.01248  -0.01322   1.84389
   A17        1.95637  -0.00104   0.00000  -0.01192  -0.01130   1.94507
   A18        1.93259   0.00152   0.00000  -0.00577  -0.00622   1.92638
   A19        1.87415  -0.00048   0.00000  -0.01901  -0.01872   1.85544
   A20        1.89393   0.00153   0.00000   0.02698   0.02644   1.92037
   A21        1.98394  -0.00020   0.00000   0.00626   0.00627   1.99020
   A22        1.84053  -0.00092   0.00000  -0.01163  -0.01112   1.82941
   A23        1.93767   0.00056   0.00000   0.00138   0.00124   1.93891
   A24        1.92714  -0.00051   0.00000  -0.00505  -0.00537   1.92178
   A25        2.00500  -0.00039   0.00000   0.01246   0.01080   2.01580
   A26        1.99317   0.00973   0.00000   0.05173   0.04917   2.04234
   A27        2.08967  -0.00526   0.00000   0.00532   0.00276   2.09243
   A28        1.96088   0.01182   0.00000   0.04981   0.05155   2.01243
   A29        1.87384   0.00017   0.00000   0.00170   0.00170   1.87555
   A30        1.91044  -0.00025   0.00000  -0.00059  -0.00059   1.90985
   A31        1.88772   0.00084   0.00000   0.00389   0.00389   1.89161
   A32        1.87714  -0.00005   0.00000  -0.00143  -0.00143   1.87570
   A33        1.96827  -0.00056   0.00000  -0.00341  -0.00341   1.96485
   A34        1.94474  -0.00016   0.00000  -0.00009  -0.00010   1.94465
   A35        1.88030   0.00016   0.00000   0.00090   0.00090   1.88120
   A36        1.84385   0.00267   0.00000   0.00439   0.00405   1.84789
   A37        1.88024   0.00037   0.00000   0.00206   0.00206   1.88229
   A38        1.79416  -0.00026   0.00000  -0.00200  -0.00202   1.79213
   A39        1.82450   0.00056   0.00000   0.03278   0.03266   1.85716
   A40        2.07698   0.00171   0.00000  -0.00085  -0.00143   2.07555
   A41        1.84716  -0.00025   0.00000   0.02898   0.02919   1.87635
   A42        2.76513   0.00149   0.00000   0.00857   0.00840   2.77353
   A43        1.85185  -0.00368   0.00000  -0.00946  -0.01123   1.84063
   A44        1.55841   0.00762   0.00000   0.09254   0.09090   1.64931
   A45        1.98092  -0.00107   0.00000   0.00674   0.00729   1.98821
   A46        2.58205   0.01098   0.00000   0.06180   0.05994   2.64199
   A47        2.70131  -0.00093   0.00000   0.01485   0.01388   2.71519
   A48        1.95087   0.00014   0.00000  -0.00090  -0.00091   1.94996
   A49        1.64163   0.00038   0.00000  -0.01214  -0.01214   1.62948
   A50        1.82700  -0.00076   0.00000  -0.00042  -0.00025   1.82675
   A51        2.74930   0.00024   0.00000   0.00116   0.00119   2.75049
    D1        1.02871   0.00090   0.00000   0.01504   0.01436   1.04307
    D2        3.06762   0.00290   0.00000   0.04456   0.04424   3.11186
    D3       -1.13639  -0.00030   0.00000   0.01071   0.01117  -1.12522
    D4       -0.99632   0.00150   0.00000   0.00720   0.00702  -0.98930
    D5        1.04258   0.00350   0.00000   0.03672   0.03690   1.07948
    D6        3.12176   0.00030   0.00000   0.00287   0.00383   3.12559
    D7       -3.11670  -0.00064   0.00000  -0.00579  -0.00629  -3.12299
    D8       -1.07779   0.00137   0.00000   0.02373   0.02358  -1.05420
    D9        1.00139  -0.00183   0.00000  -0.01012  -0.00948   0.99190
   D10       -1.48051   0.00322   0.00000   0.08964   0.08865  -1.39187
   D11        2.72038   0.00209   0.00000   0.07868   0.07847   2.79884
   D12        0.67292   0.00125   0.00000   0.08294   0.08269   0.75561
   D13       -1.04940   0.00085   0.00000   0.01325   0.01284  -1.03655
   D14        0.98324   0.00076   0.00000   0.01219   0.01178   0.99501
   D15        3.10513   0.00094   0.00000   0.01412   0.01371   3.11883
   D16        1.09917  -0.00013   0.00000  -0.00068  -0.00067   1.09850
   D17        3.13180  -0.00022   0.00000  -0.00175  -0.00174   3.13006
   D18       -1.02949  -0.00004   0.00000   0.00018   0.00019  -1.02930
   D19        3.09922  -0.00046   0.00000  -0.00145  -0.00104   3.09818
   D20       -1.15133  -0.00056   0.00000  -0.00252  -0.00211  -1.15344
   D21        0.97056  -0.00038   0.00000  -0.00059  -0.00018   0.97038
   D22        0.33601   0.00690   0.00000   0.07777   0.07678   0.41278
   D23       -1.71191   0.00323   0.00000   0.04307   0.04242  -1.66949
   D24        2.45631   0.00452   0.00000   0.06534   0.06479   2.52110
   D25       -1.77221   0.00366   0.00000   0.05148   0.05102  -1.72119
   D26        2.46306  -0.00001   0.00000   0.01678   0.01666   2.47972
   D27        0.34809   0.00127   0.00000   0.03904   0.03903   0.38713
   D28        2.47947   0.00422   0.00000   0.07500   0.07477   2.55424
   D29        0.43155   0.00055   0.00000   0.04030   0.04042   0.47197
   D30       -1.68342   0.00184   0.00000   0.06256   0.06279  -1.62063
   D31        2.80080   0.00090   0.00000   0.04139   0.04056   2.84136
   D32        0.81927   0.00147   0.00000   0.05129   0.05037   0.86964
   D33       -1.33208   0.00113   0.00000   0.03344   0.03266  -1.29943
   D34       -1.38985   0.00245   0.00000   0.05988   0.05966  -1.33018
   D35        2.91181   0.00302   0.00000   0.06979   0.06947   2.98128
   D36        0.76045   0.00268   0.00000   0.05193   0.05176   0.81221
   D37        0.63858  -0.00031   0.00000   0.02133   0.02184   0.66041
   D38       -1.34295   0.00026   0.00000   0.03123   0.03165  -1.31131
   D39        2.78888  -0.00007   0.00000   0.01338   0.01393   2.80281
   D40       -1.28323  -0.00293   0.00000  -0.03433  -0.03451  -1.31774
   D41        0.89716  -0.00087   0.00000  -0.02122  -0.02170   0.87546
   D42        0.91128   0.00428   0.00000   0.03773   0.03721   0.94849
   D43        3.09167   0.00634   0.00000   0.05084   0.05002  -3.14150
   D44        2.96308   0.00071   0.00000   0.00014   0.00021   2.96329
   D45       -1.13972   0.00277   0.00000   0.01325   0.01302  -1.12670
   D46       -2.93796   0.00807   0.00000   0.04765   0.04683  -2.89112
   D47        1.17309  -0.00169   0.00000  -0.01392  -0.01451   1.15858
   D48       -0.89781   0.00289   0.00000   0.01347   0.01324  -0.88457
   D49       -2.91600   0.00185   0.00000  -0.00975  -0.00900  -2.92500
   D50        0.85615  -0.00189   0.00000  -0.10919  -0.10968   0.74647
   D51        1.36357   0.00216   0.00000   0.00550   0.00618   1.36975
   D52       -1.14746  -0.00158   0.00000  -0.09393  -0.09451  -1.24197
   D53       -0.73084   0.00230   0.00000   0.01341   0.01396  -0.71688
   D54        3.04131  -0.00143   0.00000  -0.08602  -0.08672   2.95459
   D55       -1.17280   0.00064   0.00000   0.01934   0.01902  -1.15378
   D56        0.94236   0.00028   0.00000   0.00004  -0.00001   0.94235
   D57        2.97729  -0.00083   0.00000  -0.01657  -0.01620   2.96109
   D58       -2.62349   0.01113   0.00000   0.14316   0.14490  -2.47859
   D59        1.18170   0.00492   0.00000   0.03452   0.03540   1.21710
   D60        2.14444  -0.00680   0.00000  -0.06399  -0.06712   2.07732
   D61        3.01326   0.00017   0.00000   0.00248   0.00247   3.01573
   D62        0.94372  -0.00027   0.00000  -0.00014  -0.00013   0.94359
   D63       -1.16935   0.00031   0.00000   0.00421   0.00421  -1.16514
   D64        0.56231   0.00959   0.00000   0.15061   0.14948   0.71179
   D65       -0.03995   0.00015   0.00000   0.00192   0.00173  -0.03821
   D66        1.94824   0.00112   0.00000   0.02260   0.02236   1.97060
   D67       -0.25551   0.00027   0.00000  -0.00619  -0.00604  -0.26155
   D68       -1.99699  -0.00072   0.00000  -0.00112  -0.00095  -1.99794
   D69       -0.11949  -0.00136   0.00000  -0.00712  -0.00672  -0.12621
   D70        1.90893   0.00234   0.00000   0.01329   0.01239   1.92131
   D71       -0.08593   0.00151   0.00000  -0.02146  -0.02325  -0.10918
   D72       -0.20020  -0.00429   0.00000  -0.06349  -0.06557  -0.26577
   D73       -2.07264  -0.00356   0.00000  -0.09572  -0.09747  -2.17011
   D74       -0.18929  -0.00042   0.00000   0.00927   0.00924  -0.18005
   D75        1.79636  -0.00029   0.00000   0.00439   0.00442   1.80078
         Item               Value     Threshold  Converged?
 Maximum Force            0.013894     0.000450     NO 
 RMS     Force            0.003819     0.000300     NO 
 Maximum Displacement     0.697094     0.001800     NO 
 RMS     Displacement     0.146817     0.001200     NO 
 Predicted change in Energy=-1.123518D-02
 GradGradGradGradGradGradGradGradGradGradGradGradGradGradGradGradGradGrad

                          Input orientation:                          
 ---------------------------------------------------------------------
 Center     Atomic      Atomic             Coordinates (Angstroms)
 Number     Number       Type             X           Y           Z
 ---------------------------------------------------------------------
      1          6           0        0.952808    0.872782   -0.580516
      2          6           0       -1.384978   -0.400732   -0.569853
      3          6           0       -0.505510    0.811723   -0.086225
      4          6           0       -0.673783   -1.707351   -1.013613
      5          1           0       -1.442143   -2.496115   -1.004343
      6          1           0       -1.980664   -0.025616   -1.410192
      7          1           0        0.990973    0.919540   -1.669431
      8          1           0       -0.472289    0.735181    1.012419
      9          6           0        0.335713   -2.135165    0.041106
     10          1           0        1.039025   -2.922468   -0.268321
     11          8           0        1.673386   -0.333798   -0.228839
     12          6           0        1.673463    2.084872   -0.005664
     13          1           0        1.125228    2.978002   -0.329666
     14          1           0        1.628332    2.050082    1.097634
     15          8           0        3.014622    2.070222   -0.470347
     16          1           0        3.431953    2.900387   -0.195961
     17          8           0       -0.032094   -2.052483    1.267172
     18          8           0       -0.046201   -1.621007   -2.282705
     19          1           0       -0.740322   -1.510139   -2.950543
     20          8           0       -2.317871   -0.786168    0.451680
     21          1           0       -1.745782   -1.264744    1.098190
     22          8           0       -1.070045    2.048231   -0.476784
     23          1           0       -1.919229    2.154443    0.012882
     24          8           0        2.113921   -0.963516    2.187647
     25          1           0        1.281080   -1.551899    2.094025
     26          1           0        1.903004   -0.326532    2.887486
     27          1           0        2.011950   -0.378835    0.752553
     28          8           0       -3.368411    1.702380    1.010495
     29          1           0       -4.191802    1.790555    0.507402
     30          1           0       -3.160475    0.740212    0.981731
 ---------------------------------------------------------------------
                    Distance matrix (angstroms):
                    1          2          3          4          5
     1  C    0.000000
     2  C    2.662178   0.000000
     3  C    1.541020   1.573979   0.000000
     4  C    3.080659   1.552409   2.689629   0.000000
     5  H    4.155104   2.140720   3.558373   1.101186   0.000000
     6  H    3.178166   1.096231   2.151769   2.166436   2.560876
     7  H    1.090587   2.932120   2.181198   3.178375   4.246068
     8  H    2.141793   2.151019   1.101808   3.179838   3.930550
     9  C    3.132884   2.518394   3.067250   1.521361   2.093805
    10  H    3.809044   3.510820   4.045111   2.228380   2.622917
    11  O    1.448704   3.078045   2.465795   2.830499   3.870858
    12  C    1.522813   3.981280   2.524939   4.572360   5.629369
    13  H    2.127112   4.216001   2.722376   5.065250   6.083793
    14  H    2.158369   4.226942   2.736482   4.886247   5.874865
    15  O    2.386855   5.046979   3.758018   5.307498   6.403073
    16  H    3.225713   5.851496   4.458494   6.225502   7.316593
    17  O    3.597382   2.816600   3.203043   2.394339   2.710134
    18  O    3.180322   2.493041   3.309632   1.418418   2.085348
    19  H    3.763247   2.704450   3.694659   1.948081   2.291811
    20  O    3.809840   1.436099   2.475328   2.387192   2.410565
    21  H    3.830073   1.912868   2.693108   2.409314   2.455427
    22  O    2.341875   2.470883   1.414280   3.814395   4.589974
    23  H    3.200527   2.674682   1.952260   4.185485   4.784355
    24  O    3.518934   4.490303   3.896586   4.309600   5.018292
    25  H    3.624915   3.940723   3.678601   3.674652   4.231710
    26  H    3.790549   4.771742   3.992433   4.874943   5.571663
    27  H    2.113148   3.645319   2.908363   3.478140   4.415916
    28  O    4.678941   3.294630   3.192533   4.794194   5.039588
    29  H    5.337873   3.720280   3.859956   5.188959   5.312395
    30  H    4.401964   2.619457   2.862601   4.019403   4.167850
                    6          7          8          9         10
     6  H    0.000000
     7  H    3.129081   0.000000
     8  H    2.953481   3.060628   0.000000
     9  C    3.452835   3.561815   3.136113   0.000000
    10  H    4.337526   4.089797   4.159658   1.100107   0.000000
    11  O    3.852616   2.027770   2.699511   2.259903   2.665555
    12  C    4.447415   2.142875   2.731741   4.427242   5.054201
    13  H    4.453742   2.459728   3.063250   5.187030   5.901418
    14  H    4.860306   3.056306   2.479685   4.505931   5.190315
    15  O    5.498066   2.618593   4.017397   5.012327   5.373150
    16  H    6.271545   3.471780   4.625085   5.916054   6.295790
    17  O    3.882446   4.301538   2.833680   1.282714   2.064439
    18  O    2.654938   2.811799   4.073206   2.410459   2.632348
    19  H    2.472840   3.246839   4.562715   3.240135   3.514977
    20  O    2.039293   4.284506   2.456644   3.004975   4.043628
    21  H    2.807595   4.463256   2.372517   2.491523   3.517179
    22  O    2.449759   2.635174   2.073436   4.443554   5.403654
    23  H    2.604145   3.581122   2.259870   4.846267   5.882632
    24  O    5.530798   4.436661   3.309866   3.023644   3.320342
    25  H    5.024744   4.511738   3.078134   2.334180   2.741848
    26  H    5.800299   4.811444   3.207044   3.718795   4.176656
    27  H    4.554470   2.931583   2.734960   2.529945   2.908408
    28  O    3.282002   5.176782   3.053359   5.420978   6.515372
    29  H    3.444528   5.688447   3.899184   6.010583   7.083493
    30  H    2.774841   4.929030   2.688365   4.623408   5.710836
                   11         12         13         14         15
    11  O    0.000000
    12  C    2.428944   0.000000
    13  H    3.358372   1.096914   0.000000
    14  H    2.728452   1.104769   1.775200   0.000000
    15  O    2.763431   1.419456   2.100873   2.093030   0.000000
    16  H    3.681520   1.947708   2.311901   2.376858   0.968828
    17  O    2.846154   4.652606   5.403246   4.429086   5.412776
    18  O    2.971910   4.677146   5.132006   5.263806   5.126251
    19  H    3.823275   5.236675   5.522017   5.888415   5.750648
    20  O    4.074049   4.937891   5.160852   4.902457   6.119197
    21  H    3.783964   4.912194   5.318116   4.729981   6.020279
    22  O    3.641696   2.783906   2.388585   3.124105   4.084732
    23  H    4.376832   3.593413   3.172429   3.711168   4.958174
    24  O    2.535749   3.781175   4.780161   3.241249   4.132766
    25  H    2.652051   4.217672   5.139900   3.753352   4.764550
    26  H    3.124782   3.773311   4.677067   2.987861   4.272607
    27  H    1.039127   2.599868   3.636733   2.483119   2.915255
    28  O    5.576889   5.157458   4.859633   5.009584   6.562874
    29  H    6.281350   5.895014   5.511944   5.855740   7.277827
    30  H    5.097567   5.113708   5.009462   4.966071   6.481457
                   16         17         18         19         20
    16  H    0.000000
    17  O    6.218626   0.000000
    18  O    6.074130   3.576030   0.000000
    19  H    6.666959   4.311014   0.969589   0.000000
    20  O    6.860801   2.737399   3.651616   3.819413   0.000000
    21  H    6.769940   1.893625   3.800783   4.178925   0.987064
    22  O    4.590536   4.575432   4.215793   4.346285   3.233099
    23  H    5.406958   4.778363   4.799163   4.858073   2.999775
    24  O    4.727424   2.576530   5.008240   5.903092   4.762962
    25  H    5.449141   1.630551   4.574081   5.434655   4.029403
    26  H    4.717874   3.057602   5.675027   6.516953   4.894915
    27  H    3.697213   2.691477   3.871920   4.750554   4.359334
    28  O    7.009687   5.029502   5.738218   5.737330   2.758401
    29  H    7.736155   5.713962   6.050575   5.896158   3.186569
    30  H    7.036577   4.203259   5.092209   5.136536   1.822298
                   21         22         23         24         25
    21  H    0.000000
    22  O    3.730009   0.000000
    23  H    3.591492   0.985985   0.000000
    24  O    4.021811   5.129079   5.542343   0.000000
    25  H    3.199381   5.009769   5.320724   1.024004   0.000000
    26  H    4.170787   5.079058   5.387769   0.969540   1.586787
    27  H    3.876190   4.111035   4.734847   1.552980   1.926084
    28  O    3.382963   2.759366   1.816514   6.208756   5.777727
    29  H    3.958143   3.283350   2.354051   7.083098   6.606195
    30  H    2.456576   2.864974   2.116462   5.672404   5.120389
                   26         27         28         29         30
    26  H    0.000000
    27  H    2.138351   0.000000
    28  O    5.952092   5.774623   0.000000
    29  H    6.877029   6.576693   0.968943   0.000000
    30  H    5.514405   5.297053   0.984800   1.546559   0.000000
 Stoichiometry    C6H16O8
 Framework group  C1[X(C6H16O8)]
 Deg. of freedom    84
 Full point group                 C1      NOp   1
 Largest Abelian subgroup         C1      NOp   1
 Largest concise Abelian subgroup C1      NOp   1
[...]
 004671,0.00099484,0.00011045,0.00016025,-0.00024555,-0.00407557,-0.002
 17442,-0.01004260,-0.00003944,0.00057843,-0.00050786,0.00005481,-0.000
 05377,-0.00012646,-0.00002278,0.00101456,-0.00015402,0.00050953,-0.000
 81555,0.00000893,0.00093735,-0.00015884,0.00073272,-0.00056089,-0.0000
 5167,0.00000557,0.08855783,0.47914682,0.00236920,-0.00533016,-0.000126
 37,0.00109033,0.00039051,-0.00041578,0.00059213,-0.00060738,0.00087374
 ,0.00027421,0.00045809,0.00035055,-0.00011202,-0.00004781,-0.00020648,
 -0.00020559,0.00001559,-0.00005076,-0.00079797,0.00130992,-0.00058422,
 -0.00021972,0.00010182,-0.00096814,0.00081690,0.00155550,0.00171495,-0
 .00023506,-0.00020645,-0.00011547,-0.00202620,0.00452759,-0.01513203,-
 0.00099016,0.00000858,-0.00006553,0.00022177,0.00035586,-0.00001721,0.
 00004458,0.00025391,-0.00010836,0.00077140,0.00023280,-0.00001947,-0.0
 0015427,0.00009852,-0.00006607,-0.00449107,-0.00392555,-0.00202624,-0.
 00019039,-0.00020505,-0.00050170,-0.00008840,0.00009703,0.00013680,-0.
 00111978,-0.00005849,0.00053236,0.00062681,-0.00011568,-0.00038386,-0.
 00142904,0.00121540,0.00001501,0.00064744,-0.00005045,-0.00050788,-0.1
 2263003,0.25725064,0.26072755,0.00020551,-0.00019047,-0.00033700,-0.00
 011460,0.00055580,0.00006934,-0.00004120,0.00048097,-0.00024662,-0.000
 26076,-0.00079728,0.00008749,-0.00016356,-0.00006658,0.00006101,0.0000
 8870,-0.00014471,0.00004478,-0.00010162,0.00010789,-0.00004251,0.00031
 312,0.00001641,0.00018833,0.00574918,0.00142520,-0.00729997,-0.0002461
 7,0.00054110,0.00094730,-0.00176403,-0.00093573,-0.00087943,0.00019748
 ,0.00017939,0.00051681,-0.00002362,-0.00001984,-0.00009917,0.00000232,
 -0.00015160,-0.00016794,-0.00020069,-0.00004501,-0.00015623,0.00001235
 ,-0.00004612,0.00006204,-0.00602378,0.00220520,0.00624810,-0.00006413,
 -0.00026260,0.00090086,-0.00004183,-0.00008131,0.00001724,0.00036792,-
 0.00051729,0.00021800,-0.00083356,0.00032140,-0.00031311,0.00001106,-0
 .00060943,0.00008722,-0.00005672,0.00012657,0.00006448,-0.21893411,-0.
 23221892,-0.04427112,0.20844000,-0.00005263,-0.00073827,-0.00006775,0.
 00030245,0.00092696,0.00012027,0.00045149,-0.00033626,0.00158450,-0.00
 046635,-0.00056084,0.00055815,-0.00016749,-0.00005948,-0.00007812,-0.0
 0006631,-0.00022808,-0.00009295,0.00001714,0.00023310,-0.00018935,0.00
 010628,-0.00003080,-0.00059200,0.00374641,0.00182359,-0.00626176,-0.00
 027113,0.00079927,0.00015503,-0.00052651,-0.00068763,-0.00205555,-0.00
 014304,-0.00009291,0.00048062,-0.00000117,0.00001329,-0.00009063,-0.00
 000134,-0.00008178,-0.00016116,0.00020012,0.00006241,-0.00024425,-0.00
 003172,-0.00003143,0.00006599,0.00072143,-0.00180864,0.00627178,0.0001
 6939,-0.00049438,0.00062014,-0.00007558,0.00001165,0.00013037,0.000307
 82,-0.00102285,-0.00001851,-0.00056263,0.00098958,0.00026988,-0.000653
 75,0.00025885,-0.00060807,0.00034228,0.00003385,0.00003829,-0.18415885
 ,-0.27176100,-0.08052175,0.20564580,0.29551614,-0.00067726,0.00128505,
 -0.00067344,-0.00054435,0.00056135,0.00036706,-0.00008788,0.00044912,0
 .00007033,-0.00004053,-0.00108534,-0.00042445,-0.00012656,-0.00009672,
 0.00017730,0.00015861,-0.00020470,-0.00000914,0.00008605,-0.00013736,0
 .00006231,0.00012408,0.00008820,0.00009143,0.00111194,0.00077954,-0.01
 123189,0.00006666,0.00048020,0.00019317,-0.00147437,-0.00320871,-0.000
 51047,0.00043787,0.00013624,0.00089439,-0.00010036,-0.00016324,-0.0001
 7787,0.00001784,-0.00016540,-0.00032826,-0.00028195,-0.00008377,-0.000
 25401,0.00003678,-0.00008287,0.00009589,0.00147485,0.00186377,0.004924
 87,0.00000697,-0.00028889,0.00085849,0.00000277,-0.00006554,-0.0000150
 4,0.00095522,-0.00072058,-0.00023032,-0.00108502,0.00067364,0.00036934
 ,0.00032092,-0.00079176,-0.00015040,-0.00019986,0.00008877,0.00026882,
 -0.01531952,-0.05670520,-0.04201916,0.03222190,0.07750743,0.05122152,0
 .00030186,0.00022050,0.00004131,-0.00002457,-0.00014688,0.00000545,-0.
 00019543,0.00045891,-0.00105500,0.00010970,-0.00000784,-0.00012752,0.0
 0000771,0.00001778,0.00000293,0.00005561,0.00003763,0.00007249,-0.0000
 9752,-0.00009037,0.00002585,-0.00007370,0.00001957,0.00028507,-0.00002
 613,-0.00006732,0.00001039,-0.00006044,-0.00005236,0.00005270,-0.00007
 568,-0.00015809,-0.00049267,0.00012605,0.00014438,0.00044052,-0.000013
 09,-0.00000295,-0.00011463,0.00005881,-0.00000332,-0.00019703,-0.00017
 815,-0.00005036,-0.00017585,0.00001712,-0.00006723,0.00010594,-0.00113
 463,0.00000603,-0.00034776,-0.00009195,0.00005818,0.00012539,0.0000187
 2,-0.00002465,-0.00005115,-0.00003038,0.00013123,0.00022035,-0.0000661
 7,-0.00023786,-0.00026631,0.00021039,-0.00040608,0.00034580,-0.0001379
 3,0.00006422,-0.00008630,-0.15338818,0.14867133,0.17503466,0.01327302,
 -0.02265976,-0.02088627,0.14202035,-0.00032777,0.00099173,-0.00003792,
 0.00007822,0.00025160,-0.00015362,-0.00000510,-0.00009580,0.00046863,-
 0.00001098,0.00001411,-0.00004175,0.00000480,-0.00005279,0.00002970,-0
 .00001804,-0.00005921,-0.00001159,0.00011727,-0.00022550,0.00002242,0.
 00010893,0.00014328,-0.00008729,0.00000068,0.00014013,-0.00050840,0.00
 001971,-0.00003161,0.00007221,0.00078391,-0.00137866,0.00265319,-0.000
 19662,0.00010574,0.00119091,-0.00004103,-0.00007817,-0.00020105,-0.000
 01415,-0.00012949,-0.00043614,0.00030292,-0.00004817,-0.00047008,-0.00
 004634,-0.00007696,0.00011661,-0.00073518,0.00012000,0.00054920,0.0000
 0288,-0.00009582,0.00009731,0.00000995,0.00002823,0.00000930,-0.000034
 95,-0.00022516,0.00009204,-0.00012308,0.00012857,-0.00017082,-0.000092
 79,-0.00022954,-0.00021350,0.00016106,0.00005008,0.00009328,0.10124515
 ,-0.19917541,-0.17446831,0.02593294,-0.02068251,-0.02540637,-0.1261283
 5,0.21812329,0.00046962,-0.00054702,-0.00066504,-0.00033539,-0.0004530
 2,0.00032030,-0.00026559,0.00087813,-0.00177904,0.00009217,-0.00010028
 ,-0.00016907,0.00000005,0.00006458,0.00002845,0.00013815,0.00009138,0.
 00009686,-0.00023547,0.00020030,0.00007504,-0.00045053,0.00000194,0.00
 062479,0.00031852,-0.00016925,-0.00038538,-0.00007340,0.00002968,0.000
 06194,-0.00103404,0.00146808,-0.00094196,0.00043292,0.00000060,-0.0010
 5827,0.00001887,0.00002079,0.00024126,0.00003065,0.00025882,0.00044710
 ,-0.00055674,-0.00008200,0.00043694,0.00006386,0.00005081,-0.00004775,
 -0.00026044,0.00048027,0.00043088,-0.00006491,0.00012551,0.00018080,0.
 00001313,-0.00006396,-0.00006387,0.00030004,0.00023223,-0.00004922,-0.
 00019382,-0.00022480,-0.00002910,0.00067841,-0.00063497,0.00054482,-0.
 00046562,0.00006273,0.00007197,0.14334693,-0.19692509,-0.20236917,0.00
 917168,-0.00204599,-0.00569230,-0.15298006,0.20031869,0.20926729,-0.00
 773265,0.00022670,-0.02164684,-0.00062071,-0.00038378,-0.00011939,-0.0
 0037730,0.00085098,-0.00390756,0.00010681,-0.00010663,-0.00052808,-0.0
 0008854,0.00004481,-0.00004527,0.00018933,0.00009626,0.00019508,-0.000
 79792,0.00154584,0.00030607,-0.00119310,0.00036737,0.00173699,-0.00080
 359,-0.00228003,-0.00428251,0.00001780,-0.00000251,0.00025927,-0.03432
 861,0.01201973,-0.06661203,0.00335872,-0.00051631,0.00135338,-0.000331
 35,-0.00022076,-0.00012802,0.00024777,0.00041276,0.00004887,-0.0013565
 6,0.00058026,-0.00040492,-0.00005229,-0.00008305,0.00010119,0.00035175
 ,0.00148256,0.00125416,-0.00022931,0.00004058,0.00049817,0.00002083,-0
 .00012243,-0.00007725,0.00038608,0.00012696,0.00013538,-0.00040914,-0.
 00011217,-0.00002709,0.00092464,-0.00120629,0.00112144,-0.00036494,0.0
 0008510,0.00024722,-0.00572006,0.00191012,-0.00345318,0.00033281,-0.00
 203027,0.00388104,-0.00060992,-0.00089098,0.00177532,0.04907239,0.0104
 2712,-0.00283760,0.03908992,0.00008854,0.00017962,-0.00014526,-0.00017
 711,-0.00002475,0.00060301,0.00060250,-0.00043952,-0.00075716,-0.00018
 667,-0.00006034,-0.00009316,-0.00005687,-0.00012624,-0.00005177,0.0035
 5315,-0.00494552,0.00145603,0.00040616,0.00010322,-0.00044074,-0.00036
 518,0.00124193,-0.00584734,0.00001165,-0.00052003,-0.00040428,-0.00068
 436,-0.05013038,-0.06226850,-0.00023163,0.00095655,0.00408040,0.000236
 78,0.00058358,-0.00091510,0.00005128,-0.00083191,-0.00159127,0.0002171
 0,0.00012866,-0.00104352,-0.00028970,-0.00008472,0.00008044,0.00072918
 ,0.00055706,0.00322328,-0.00049965,-0.00005966,0.00000984,-0.00028443,
 -0.00025982,0.00003174,-0.00008170,-0.00025938,0.00025589,-0.00032351,
 0.00025296,-0.00012050,-0.00036131,-0.00025329,-0.00028452,0.00013718,
 0.00001021,-0.00009777,0.00025504,-0.00932996,-0.00216136,-0.00153978,
 -0.00213676,0.00513199,0.00031382,0.00245978,-0.00307049,-0.01187037,0
 .06582529,-0.00259930,0.00470704,-0.01071649,-0.00081044,-0.00035160,-
 0.00017568,-0.00094394,-0.00182618,0.00354944,-0.00021022,0.00047788,-
 0.00013550,0.00037192,0.00006065,0.00027969,0.00004294,-0.00001157,-0.
 00005407,-0.00021113,0.00030835,0.00191839,0.00049350,-0.00012938,-0.0
 0054355,-0.00519124,-0.00581336,0.00596899,0.00040279,0.00015500,0.000
 17839,-0.08524389,-0.02234783,-0.41337747,0.00142063,-0.00040739,0.003
 81221,-0.00062492,-0.00130397,-0.00021491,0.00030307,0.00037311,-0.000
 82789,-0.00002258,-0.00026159,-0.00067545,0.00022997,-0.00026049,0.000
 22889,0.00090912,-0.00014808,-0.00703170,0.00026922,0.00031839,-0.0000
 4853,0.00013255,0.00000606,-0.00009035,0.00075391,0.00029742,-0.000603
 44,-0.00001759,0.00006613,0.00035070,0.00193497,-0.00060501,-0.0012204
 7,-0.00020452,-0.00020531,0.00061270,-0.00259643,-0.00015931,0.0011951
 6,0.00289180,0.00513913,0.00211859,0.00001998,-0.00349976,0.00049622,0
 .08837230,0.02528471,0.41517107,0.00113524,0.00021814,-0.00048027,0.00
 013205,-0.00006817,-0.00085695,0.00210862,-0.00670159,0.00135810,0.000
 27000,-0.00001016,-0.00032352,-0.00000443,0.00022004,0.00005068,-0.000
 13863,-0.00013953,0.00010231,-0.00006528,-0.00005904,0.00002760,0.0001
 3859,0.00048365,-0.00040015,0.00008595,-0.00067139,0.00041771,-0.00009
 864,0.00001559,-0.00001467,-0.00133157,0.00099247,-0.00021462,0.000779
 87,0.00011943,0.00006237,0.00012144,0.00036467,-0.00006286,-0.00005403
 ,0.00002450,-0.00005476,-0.00094885,-0.00011021,0.00019209,0.00008818,
 0.00001881,-0.00001715,-0.00008434,0.00055423,-0.00046241,-0.00030132,
 0.00040441,0.00048678,0.00000826,-0.00018131,-0.00021931,0.00052024,0.
 00789616,0.00317115,-0.00001696,-0.00072258,0.00051585,-0.01560193,0.0
 0117211,0.01172144,0.00144546,0.00336831,-0.00326525,-0.00036952,0.000
 31928,-0.00061898,0.00015269,-0.00018990,0.00027962,0.00015175,-0.0000
 8346,0.00032844,0.00030373,-0.00009965,0.00039809,0.38692122,0.0002123
 6,0.00064725,-0.00004725,-0.00417039,-0.00404353,0.00434223,0.00060846
 ,-0.00415698,0.00111800,0.00044596,0.00115583,-0.00028056,-0.00006439,
 0.00047264,0.00014627,0.00004629,0.00005474,-0.00046799,0.00003767,-0.
 00006256,-0.00000586,-0.00045995,0.00050937,-0.00048161,-0.00125270,-0
 .00022103,0.00047334,0.00024260,-0.00002012,-0.00006259,-0.00016081,0.
 00095309,-0.00005271,0.00031698,-0.00038538,-0.00009905,0.00005644,0.0
 0020791,-0.00009490,0.00002581,0.00001505,0.00002310,-0.00005447,0.000
 27150,0.00002058,0.00008878,-0.00001742,0.00001815,0.00155233,-0.00043
 907,-0.00017616,0.00115024,-0.00055117,-0.00111416,-0.00005810,-0.0000
 1080,0.00029075,0.01163779,-0.01046384,-0.00753080,-0.00049445,0.00007
 812,-0.00222063,-0.00536729,0.00696721,0.00142713,0.00592724,-0.009200
 42,0.00083705,0.00028123,0.00021173,0.00016085,-0.00027993,-0.00013889
 ,-0.00023509,-0.00012601,-0.00012334,-0.00006135,-0.00013969,-0.000090
 49,0.00001497,-0.16889491,0.49679504,-0.00069720,-0.00031882,0.0006813
 2,-0.00102368,0.00024878,0.00041042,-0.00149350,0.00480569,-0.00230181
 ,-0.00019948,0.00015245,0.00048070,-0.00001925,-0.00012520,0.00000959,
 0.00003122,0.00024522,0.00048307,-0.00009939,0.00005071,0.00002782,0.0
 0053886,-0.00086979,0.00083017,-0.00021770,0.00047626,-0.00079737,0.00
 011956,-0.00002516,0.00006086,0.00111571,-0.00069461,0.00027746,-0.000
 50545,-0.00007543,-0.00030219,-0.00008394,-0.00029050,0.00004047,0.000
 07919,-0.00003250,0.00016517,0.00063639,0.00007546,0.00000501,-0.00005
 588,0.00000615,-0.00003727,0.00031891,-0.00041553,0.00085150,0.0003207
 7,-0.00035878,-0.00035895,-0.00005829,0.00017263,0.00019305,0.00259253
 ,-0.00496697,0.00441860,0.00086642,-0.00123561,-0.00235951,0.01258045,
 -0.00115357,-0.00191725,-0.00655621,-0.00025520,-0.00670872,0.00017941
 ,-0.00009644,0.00063082,-0.00012284,-0.00003092,-0.00037844,0.00005544
 ,-0.00001517,-0.00021986,-0.00019288,0.00008080,-0.00050075,0.20299698
 ,0.06150795,0.21140666,-0.00018732,-0.00003190,0.00009602,-0.00023476,
 0.00003961,-0.00005242,-0.00008748,0.00065038,-0.00041497,-0.00000564,
 0.00003639,0.00017360,-0.00000607,-0.00003707,-0.00000820,0.00000086,0
 .00007022,0.00016619,-0.00001367,0.00000834,-0.00000256,0.00014255,-0.
 00017984,0.00015887,-0.00004156,0.00008995,-0.00016003,0.00003486,-0.0
 0000455,0.00001480,0.00021318,-0.00014851,0.00005114,-0.00012972,-0.00
 002303,-0.00004386,-0.00002086,-0.00004393,0.00001300,0.00001342,-0.00
 000191,0.00002128,0.00015073,0.00001291,-0.00001320,-0.00002210,0.0000
 0472,-0.00000456,0.00005733,-0.00009976,0.00013917,0.00007487,-0.00009
 999,-0.00010572,-0.00001157,0.00005669,0.00005079,0.00049042,-0.000314
 40,0.00019107,0.00005186,0.00002225,-0.00015557,0.00111090,-0.00092612
 ,0.00147015,-0.00398928,0.00146738,-0.00299000,0.00005479,-0.00003527,
 0.00012207,-0.00003503,0.00001114,-0.00006890,-0.00000824,0.00000438,-
 0.00004752,-0.00004778,0.00001883,-0.00008918,-0.32684547,0.13412511,-
 0.19701440,0.33580762,0.00009707,-0.00001205,-0.00005924,0.00021416,-0
 .00010956,-0.00009734,0.00024466,-0.00020624,0.00001690,0.00007918,-0.
 00001270,-0.00017248,0.00000043,-0.00001066,-0.00000651,0.00005993,0.0
 0001900,-0.00011256,-0.00000928,0.00000532,0.00000365,0.00013223,-0.00
 008242,-0.00004912,0.00012657,0.00000347,0.00000755,-0.00003046,0.0000
 0745,-0.00000338,-0.00011874,-0.00005617,-0.00000165,0.00002085,0.0000
 8252,-0.00001136,0.00000759,0.00000376,0.00001071,-0.00000443,-0.00000
 293,0.00000174,-0.00007219,-0.00005884,0.00002840,-0.00001194,0.000011
 73,-0.00001052,-0.00014198,0.00004886,0.00000537,-0.00008468,0.0000140
 4,0.00011263,0.00002988,-0.00000362,-0.00004388,-0.00026082,-0.0014605
 1,-0.00180962,-0.00009520,0.00020135,0.00023594,-0.00120760,-0.0005374
 3,0.00159665,0.00048138,0.00172668,-0.00299136,-0.00007168,-0.00000308
 ,-0.00005924,0.00004494,0.00000126,0.00004120,0.00003791,0.00000821,0.
 00003317,0.00004808,0.00000882,0.00002079,0.09059424,-0.08445489,0.042
 78269,-0.13093347,0.09540629,0.00007956,0.00000874,-0.00001562,0.00014
 962,-0.00028568,0.00043441,0.00004623,-0.00011616,0.00006739,-0.000004
 93,0.00000071,-0.00015007,0.00001198,0.00001670,0.00000123,0.00003285,
 -0.00002714,-0.00020984,0.00001197,-0.00000594,-0.00000635,-0.00010796
 ,0.00006130,-0.00007128,0.00002534,-0.00005065,0.00017285,-0.00002829,
 0.00000591,-0.00001778,-0.00012014,0.00006489,-0.00004734,0.00007894,0
 .00002115,0.00002812,0.00000810,0.00002230,0.00000264,-0.00001080,0.00
 000431,-0.00001848,-0.00009098,-0.00001404,-0.00000242,0.00001294,-0.0
 0000285,0.00000922,-0.00001252,0.00006033,-0.00013206,-0.00001987,0.00
 005112,0.00001787,0.00002654,-0.00005068,-0.00002761,0.00025697,-0.000
 85928,-0.00122043,-0.00010375,0.00003742,0.00015678,0.00049220,0.00057
 431,-0.00195912,0.00079972,-0.00151000,0.00283422,-0.00005164,0.000027
 21,-0.00009709,0.00002991,-0.00001176,0.00005518,0.00002197,-0.0000063
 6,0.00004534,0.00003529,-0.00001132,0.00006113,-0.21747843,0.07810914,
 -0.14169310,0.20526143,-0.06823753,0.13672981,-0.00055717,0.00058622,-
 0.00004395,-0.00438097,-0.00039499,0.00484110,-0.00072163,-0.00092999,
 0.00081299,0.00009085,0.00045425,0.00017780,-0.00001931,0.00016390,0.0
 0006695,0.00024583,0.00011248,-0.00047559,0.00015425,-0.00000435,-0.00
 005990,-0.00067547,0.00006105,-0.00057327,-0.00075895,0.00021621,0.000
 04967,0.00019435,-0.00001575,-0.00001808,0.00041929,0.00007537,0.00010
 462,-0.00011397,-0.00037995,-0.00013260,-0.00001403,0.00001469,-0.0000
 3147,0.00003363,0.00000655,0.00003233,0.00040369,0.00025213,-0.0000661
 8,0.00001866,-0.00000770,0.00001895,0.00085495,-0.00058539,0.00008831,
 0.00081566,-0.00047849,-0.00089532,-0.00001910,0.00009813,0.00027161,-
 0.00087999,-0.00453811,-0.00398099,-0.00084074,0.00238460,-0.00084450,
 -0.00117727,0.00225552,0.00063153,0.00170561,-0.00688975,-0.00078015,0
 .00035232,-0.00005957,0.00042148,-0.00024076,0.00003668,-0.00029031,-0
 .00013900,-0.00002400,-0.00021524,-0.00024891,0.00000362,-0.00018139,-
 0.04850231,0.02476779,-0.01409174,-0.00651684,0.04082334,0.01064775,0.
 06051729,-0.00035538,-0.00056089,-0.00033683,0.00483510,0.00737889,-0.
 00639195,-0.00271414,0.00491215,0.00084905,-0.00096487,-0.00168021,0.0
 0056413,0.00013299,-0.00059692,-0.00018949,-0.00023465,-0.00009071,0.0
 0095664,0.00009166,0.00007513,-0.00000612,0.00011975,-0.00023294,0.000
 14605,0.00155304,0.00016115,-0.00033216,-0.00031005,0.00001196,0.00006
 153,0.00004342,-0.00099765,0.00000138,-0.00031186,0.00043651,0.0001631
 7,-0.00006974,-0.00024955,0.00008420,-0.00003838,-0.00002755,-0.000050
 59,0.00004193,-0.00028596,-0.00003999,-0.00008041,0.00000071,-0.000006
 97,-0.00182770,0.00056638,-0.00000350,-0.00153661,0.00089716,0.0015314
 0,0.00004385,-0.00000225,-0.00037571,-0.00603459,-0.00684606,0.0059733
 0,0.00107504,-0.00203499,0.00188122,0.00586112,-0.00241036,-0.00252928
 ,-0.00898113,-0.00400430,0.00435798,-0.00025925,-0.00026939,-0.0002749
 4,0.00032298,0.00022256,0.00035503,0.00004793,0.00014336,0.00006051,0.
 00012714,0.00008266,0.00010120,0.07116582,-0.39395954,-0.09964458,-0.0
 0373854,-0.01053766,-0.00787616,-0.05800446,0.40989832,0.00016324,-0.0
 0035872,-0.00034501,0.00329477,-0.00034533,-0.00316157,0.00091446,-0.0
 0005341,0.00123254,0.00005111,-0.00031408,-0.00045139,0.00002274,-0.00
 010518,-0.00007024,0.00003692,-0.00017134,-0.00027534,0.00007181,0.000
 02194,-0.00002989,-0.00023119,0.00019451,-0.00031504,0.00066089,-0.000
 16909,0.00040069,-0.00016900,0.00001154,-0.00003260,-0.00032599,-0.000
 05091,-0.00017073,0.00003975,0.00019349,0.00020557,0.00001687,0.000021
 26,0.00000592,-0.00003921,-0.00000433,-0.00008023,-0.00022644,-0.00013
 349,-0.00003083,-0.00000891,-0.00000587,0.00001615,-0.00097644,0.00048
 200,-0.00064763,-0.00053204,0.00032737,0.00052105,0.00005887,-0.000087
 39,-0.00019181,-0.00100603,0.00106114,-0.00826217,-0.00190781,0.002482
 38,0.00435712,-0.00065714,-0.00123638,-0.00111714,0.00059396,0.0039806
 8,0.00187958,-0.00008814,-0.00004143,-0.00039597,0.00010764,0.00012894
 ,0.00032650,-0.00008570,0.00001462,0.00010002,0.00010385,-0.00002399,0
 .00027471,0.00236013,-0.13555879,-0.06339748,-0.00675852,0.02876841,0.
 00505241,0.00451558,0.10097146,0.06460279\\-0.00002026,0.00001405,-0.0
 0000036,-0.00000362,-0.00003571,-0.00000372,0.00002224,-0.00001014,-0.
 00000205,-0.00003263,-0.00000368,0.00000026,-0.00000030,0.00000574,-0.
 00000389,0.00000151,0.00000966,0.00000446,0.00000211,0.00000161,-0.000
 00291,-0.00000192,0.00000189,0.00000138,0.00001645,0.00002289,-0.00001
 996,0.00000130,-0.00000975,-0.00000870,0.00001098,-0.00000020,0.000013
 58,0.00001137,-0.00000733,-0.00000426,0.00000089,-0.00000497,0.0000012
 3,0.00000390,-0.00000375,0.00000258,-0.00000290,-0.00000357,0.00000306
 ,0.00000384,-0.00000491,-0.00000108,-0.00002689,-0.00001316,0.00005247
 ,0.00000728,-0.00000512,-0.00001353,-0.00000190,0.00000478,0.00000004,
 0.00001440,0.00001807,-0.00000834,-0.00000143,0.00000081,0.00000583,0.
 00000171,0.00001094,-0.00000781,-0.00000171,0.00000684,-0.00000287,0.0
 0000361,-0.00003339,0.00002223,-0.00000721,0.00001503,-0.00000958,0.00
 000006,0.00000312,-0.00000218,0.00000064,0.00001824,-0.00001947,0.0000
 2031,0.00000260,0.00001191,0.00000834,0.00000950,-0.00000902,-0.000030
 20,-0.00001007,0.00000069\\\@


 DEMOCRATS BUY MOST OF THE BOOKS THAT HAVE BEEN
 BANNED; REPUBLICANS FORM CENSORSHIP COMMITTEES AND
 READ THEM AS A GROUP.
 Job cpu time:       0 days  0 hours 31 minutes 36.0 seconds.
 File lengths (MBytes):  RWF=    221 Int=      0 D2E=      0 Chk=      6 Scr=      1
 Normal termination of Gaussian 09 at Sun Jan 15 22:09:03 2017.
