 Entering Gaussian System, Link 0=g09
 Initial command:
 /global/software/gaussian/g09.e01/l1.exe "/scratch/10456460.yak.local/Gau-26966.inp" -scrdir="/scratch/10456460.yak.local/"
 Entering Link 1 = /global/software/gaussian/g09.e01/l1.exe PID=     26967.
  
 Copyright (c) 1988,1990,1992,1993,1995,1998,2003,2009,2015,
            Gaussian, Inc.  All Rights Reserved.
  
 This is part of the Gaussian(R) 09 program.  It is based on
 the Gaussian(R) 03 system (copyright 2003, Gaussian, Inc.),
 the Gaussian(R) 98 system (copyright 1998, Gaussian, Inc.),
 the Gaussian(R) 94 system (copyright 1995, Gaussian, Inc.),
 the Gaussian 92(TM) system (copyright 1992, Gaussian, Inc.),
 the Gaussian 90(TM) system (copyright 1990, Gaussian, Inc.),
 the Gaussian 88(TM) system (copyright 1988, Gaussian, Inc.),
 the Gaussian 86(TM) system (copyright 1986, Carnegie Mellon
 University), and the Gaussian 82(TM) system (copyright 1983,
 Carnegie Mellon University). Gaussian is a federally registered
 trademark of Gaussian, Inc.
  
 This software contains proprietary and confidential information,
 including trade secrets, belonging to Gaussian, Inc.
  
 This software is provided under written license and may be
 used, copied, transmitted, or stored only in accord with that
 written license.
  
 The following legend is applicable only to US Government
 contracts under FAR:
  
                    RESTRICTED RIGHTS LEGEND
  
 Use, reproduction and disclosure by the US Government is
 subject to restrictions as set forth in subparagraphs (a)
 and (c) of the Commercial Computer Software - Restricted
 Rights clause in FAR 52.227-19.
  
 Gaussian, Inc.
 340 Quinnipiac St., Bldg. 40, Wallingford CT 06492
  
  
 ---------------------------------------------------------------
 Warning -- This program may not be used in any manner that
 competes with the business of Gaussian, Inc. or will provide
 assistance to any competitor of Gaussian, Inc.  The licensee
 of this program is prohibited from giving any competitor of
 Gaussian, Inc. access to this program.  By using this program,
 the user acknowledges that Gaussian, Inc. is engaged in the
 business of creating and licensing software in the field of
 computational chemistry and represents and warrants to the
 licensee that it is not a competitor of Gaussian, Inc. and that
 it will not use this program in any manner prohibited above.
 ---------------------------------------------------------------
  

 Cite this work as:
 Gaussian 09, Revision E.01,
 M. J. Frisch, G. W. Trucks, H. B. Schlegel, G. E. Scuseria, 
 M. A. Robb, J. R. Cheeseman, G. Scalmani, V. Barone, B. Mennucci, 
 G. A. Petersson, H. Nakatsuji, M. Caricato, X. Li, H. P. Hratchian, 
 A. F. Izmaylov, J. Bloino, G. Zheng, J. L. Sonnenberg, M. Hada, 
 M. Ehara, K. Toyota, R. Fukuda, J. Hasegawa, M. Ishida, T. Nakajima, 
 Y. Honda, O. Kitao, H. Nakai, T. Vreven, J. A. Montgomery, Jr., 
 J. E. Peralta, F. Ogliaro, M. Bearpark, J. J. Heyd, E. Brothers, 
 K. N. Kudin, V. N. Staroverov, T. Keith, R. Kobayashi, J. Normand, 
 K. Raghavachari, A. Rendell, J. C. Burant, S. S. Iyengar, J. Tomasi, 
 M. Cossi, N. Rega, J. M. Millam, M. Klene, J. E. Knox, J. B. Cross, 
 V. Bakken, C. Adamo, J. Jaramillo, R. Gomperts, R. E. Stratmann, 
 O. Yazyev, A. J. Austin, R. Cammi, C. Pomelli, J. W. Ochterski, 
 R. L. Martin, K. Morokuma, V. G. Zakrzewski, G. A. Voth, 
 P. Salvador, J. J. Dannenberg, S. Dapprich, A. D. Daniels, 
 O. Farkas, J. B. Foresman, J. V. Ortiz, J. Cioslowski, 
 and D. J. Fox, Gaussian, Inc., Wallingford CT, 2013.
 
 ******************************************
 Gaussian 09:  ES64L-G09RevE.01 30-Nov-2015
                12-Jan-2017 
 ******************************************
 %NPROCS=18
 Will use up to   18 processors via shared memory.
 ----------------------------------------------------------------------
 # opt=(TS,CalcFC,NoEigenTest,MaxCycle=500,cartesian) Freq B3LYP 6-31G(
 d)
 ----------------------------------------------------------------------
 1/5=1,6=500,10=4,11=1,14=-1,18=10,26=3,38=1/1,3;
 2/12=2,17=6,18=5,29=2,40=1/2;
 3/5=1,6=6,7=1,11=2,16=1,25=1,30=1,71=2,74=-5,140=1/1,2,3;
 4//1;
 5/5=2,38=5/2;
 8/6=4,10=90,11=11/1;
 11/6=1,8=1,9=11,15=111,16=1/1,2,10;
 10/6=1,13=1/2;
 6/7=2,8=2,9=2,10=2,28=1/1;
 7/7=1,10=1,18=20,25=1/1,2,3,16;
 1/5=1,6=500,10=4,11=1,14=-1,18=10,26=3/3(2);
 2/29=1/2;
 99/12=1/99;
 2/29=1/2;
 3/5=1,6=6,7=1,11=2,16=1,25=1,30=1,71=1,74=-5/1,2,3;
 4/5=5,16=3,69=1/1;
 5/5=2,38=5/2;
 7/7=1/1,2,3,16;
 1/5=1,6=500,11=1,14=-1,18=10,26=3/3(-5);
 2/29=1/2;
 6/7=2,8=2,9=2,10=2,19=2,28=1/1;
 99/9=1,12=1/99;
 ------------------------------------
 glo_2w_beta_ts_boat1_B3LYP_631Gd.log
 ------------------------------------
 Symbolic Z-matrix:
 Charge =  0 Multiplicity = 1
 1                    0     0.42646   1.58072   1.54322 
 6                    0     0.08848   1.12427   0.60397 
 6                    0     1.88666  -0.57472   0.25787 
 6                    0    -0.52163  -1.38257  -0.16605 
 6                    0     0.98074  -1.70112  -0.24096 
 8                    0    -0.61841  -0.07767   0.95707 
 6                    0     1.35466   0.77814  -0.20092 
 1                    0    -1.04773  -2.08053   0.5023 
 1                    0     1.20011  -1.84843  -1.30791 
 1                    0     1.1173    0.72458  -1.27399 
 6                    0    -0.8017    2.11889  -0.14428 
 1                    0    -1.67405   2.39115   0.465 
 1                    0    -1.1524    1.65432  -1.07537 
 8                    0    -1.08981  -1.04609  -1.27741 
 1                    0     1.89548  -0.60063   1.35869 
 8                    0     0.02218   3.26312  -0.4067 
 1                    0    -0.46073   3.86198  -0.99464 
 8                    0     1.19765  -2.90018   0.49203 
 1                    0     2.14861  -3.08699   0.42911 
 8                    0     3.1889   -0.82373  -0.25305 
 1                    0     3.67365   0.01436  -0.15471 
 8                    0     2.37821   1.74      0.02807 
 1                    0     2.00674   2.59386  -0.25723 
 8                    0    -3.01061   0.20025   1.21009 
 1                    0    -2.36418  -1.07285  -1.13794 
 1                    0    -1.78553   0.08625   1.15194 
 1                    0    -3.34425  -0.28554   1.98109 
 8                    0    -3.47726  -1.0149   -0.82985 
 1                    0    -3.35685  -0.35735   0.24786 
 1                    0    -3.93273  -0.47878  -1.49723 
 

 GradGradGradGradGradGradGradGradGradGradGradGradGradGradGradGradGradGrad
 Berny optimization.
 Initialization pass.
 No Z-matrix variables, so optimization will use Cartesian coordinates.
 Trust Radius=3.00D-01 FncErr=1.00D-07 GrdErr=1.00D-06
 Number of steps in this run=    180 maximum allowed number of steps=    180.
 Search for a saddle point of order  1.
 GradGradGradGradGradGradGradGradGradGradGradGradGradGradGradGradGradGrad

 ---------------------------------------------------------------------------------------------------
                            Z-MATRIX (ANGSTROMS AND DEGREES)
   CD    Cent   Atom    N1       Length/X        N2       Alpha/Y        N3        Beta/Z          J
 ---------------------------------------------------------------------------------------------------
      1      1  H        0   0.426461          1.580720          1.543217
      2      2  C        0   0.088481          1.124274          0.603970
      3      3  C        0   1.886662         -0.574723          0.257869
      4      4  C        0  -0.521631         -1.382567         -0.166046
      5      5  C        0   0.980740         -1.701123         -0.240961
      6      6  O        0  -0.618411         -0.077667          0.957071
      7      7  C        0   1.354657          0.778144         -0.200922
      8      8  H        0  -1.047727         -2.080527          0.502298
      9      9  H        0   1.200112         -1.848430         -1.307907
     10     10  H        0   1.117298          0.724578         -1.273990
     11     11  C        0  -0.801698          2.118894         -0.144276
     12     12  H        0  -1.674045          2.391146          0.464996
     13     13  H        0  -1.152395          1.654319         -1.075373
     14     14  O        0  -1.089809         -1.046090         -1.277408
     15     15  H        0   1.895477         -0.600627          1.358686
     16     16  O        0   0.022180          3.263124         -0.406697
     17     17  H        0  -0.460730          3.861979         -0.994640
     18     18  O        0   1.197645         -2.900184          0.492034
     19     19  H        0   2.148613         -3.086994          0.429106
     20     20  O        0   3.188900         -0.823728         -0.253054
     21     21  H        0   3.673645          0.014360         -0.154713
     22     22  O        0   2.378212          1.740004          0.028069
     23     23  H        0   2.006740          2.593863         -0.257227
     24     24  O        0  -3.010607          0.200251          1.210093
     25     25  H        0  -2.364177         -1.072846         -1.137942
     26     26  H        0  -1.785529          0.086248          1.151943
     27     27  H        0  -3.344252         -0.285543          1.981090
     28     28  O        0  -3.477257         -1.014899         -0.829854
     29     29  H        0  -3.356846         -0.357352          0.247864
     30     30  H        0  -3.932732         -0.478781         -1.497233
 ---------------------------------------------------------------------------------------------------
                         Z-Matrix orientation:                         
 ---------------------------------------------------------------------
 Center     Atomic      Atomic             Coordinates (Angstroms)
 Number     Number       Type             X           Y           Z
 ---------------------------------------------------------------------
      1          1           0        0.426461    1.580720    1.543217
      2          6           0        0.088481    1.124274    0.603970
      3          6           0        1.886662   -0.574723    0.257869
      4          6           0       -0.521631   -1.382567   -0.166046
      5          6           0        0.980740   -1.701123   -0.240961
      6          8           0       -0.618411   -0.077667    0.957071
      7          6           0        1.354657    0.778144   -0.200922
      8          1           0       -1.047727   -2.080527    0.502298
      9          1           0        1.200112   -1.848430   -1.307907
     10          1           0        1.117298    0.724578   -1.273990
     11          6           0       -0.801698    2.118894   -0.144276
     12          1           0       -1.674045    2.391146    0.464996
     13          1           0       -1.152395    1.654319   -1.075373
     14          8           0       -1.089809   -1.046090   -1.277408
     15          1           0        1.895477   -0.600627    1.358686
     16          8           0        0.022180    3.263124   -0.406697
     17          1           0       -0.460730    3.861979   -0.994640
     18          8           0        1.197645   -2.900184    0.492034
     19          1           0        2.148613   -3.086994    0.429106
     20          8           0        3.188900   -0.823728   -0.253054
     21          1           0        3.673645    0.014360   -0.154713
     22          8           0        2.378212    1.740004    0.028069
     23          1           0        2.006740    2.593863   -0.257227
     24          8           0       -3.010607    0.200251    1.210093
     25          1           0       -2.364177   -1.072846   -1.137942
     26          1           0       -1.785529    0.086248    1.151943
     27          1           0       -3.344252   -0.285543    1.981090
     28          8           0       -3.477257   -1.014899   -0.829854
     29          1           0       -3.356846   -0.357352    0.247864
     30          1           0       -3.932732   -0.478781   -1.497233
 ---------------------------------------------------------------------
                    Distance matrix (angstroms):
                    1          2          3          4          5
     1  H    0.000000
     2  C    1.097615   0.000000
     3  C    2.903488   2.497965   0.000000
     4  C    3.549863   2.692473   2.575304   0.000000
     5  C    3.776375   3.081055   1.529151   1.537598   0.000000
     6  O    2.045867   1.438415   2.647893   1.724390   2.574524
     7  C    2.132533   1.539759   1.524391   2.861878   2.507625
     8  H    4.081847   3.401772   3.307239   1.100277   2.193413
     9  H    4.526203   3.705127   2.131979   2.117847   1.099180
    10  H    3.024383   2.178292   2.150976   2.890275   2.640042
    11  C    2.155374   1.530216   3.826823   3.512711   4.216511
    12  H    2.496293   2.175035   4.638741   3.995896   4.928785
    13  H    3.058630   2.154278   3.997753   3.232246   4.062696
    14  O    4.141875   3.104582   3.382106   1.292737   2.406338
    15  H    2.636349   2.609620   1.101157   2.962878   2.146324
    16  O    2.606931   2.366542   4.318218   4.683598   5.058661
    17  H    3.525900   3.217486   5.173331   5.309947   5.796031
    18  O    4.666713   4.176007   2.436667   2.385821   1.421997
    19  H    5.098490   4.691428   2.531688   3.223272   1.932241
    20  O    4.079097   3.760558   1.420869   3.753387   2.376118
    21  H    3.985054   3.828957   1.926279   4.421750   3.194066
    22  O    2.475960   2.440011   2.377476   4.265820   3.723796
    23  H    2.601027   2.565360   3.212426   4.713064   4.415863
    24  O    3.718885   3.290220   5.048818   3.254854   4.653131
    25  H    4.692301   3.725201   4.501783   2.106059   3.519627
    26  H    2.698044   2.211263   3.836827   2.343491   3.575908
    27  H    4.230006   3.958244   5.515032   3.712256   5.064280
    28  O    5.254305   4.398454   5.490767   3.051483   4.548784
    29  H    4.443813   3.767268   5.248021   3.043161   4.567201
    30  H    5.699864   4.811964   6.079057   3.771538   5.216756
                    6          7          8          9         10
     6  O    0.000000
     7  C    2.442613   0.000000
     8  H    2.098232   3.799733   0.000000
     9  H    3.401875   2.854504   2.895426   0.000000
    10  H    2.938353   1.100311   3.963729   2.574564   0.000000
    11  C    2.464029   2.539820   4.256022   4.593576   2.627340
    12  H    2.729751   3.495462   4.515476   5.420145   3.686884
    13  H    2.723186   2.796007   4.055746   4.225827   2.460767
    14  O    2.480515   3.234512   2.058928   2.426606   2.829593
    15  H    2.598926   2.150784   3.403815   3.025105   3.048395
    16  O    3.664847   2.827183   5.524996   5.322376   2.897533
    17  H    4.399415   3.665468   6.156197   5.955275   3.522995
    18  O    3.388351   3.746323   2.390322   2.084701   4.032889
    19  H    4.122040   3.995822   3.351854   2.334718   4.300259
    20  O    4.064065   2.435808   4.483203   2.473460   2.780485
    21  H    4.434668   2.441968   5.206877   3.304271   2.879601
    22  O    3.625841   1.423122   5.153485   4.006196   2.077583
    23  H    3.937386   1.930082   5.635297   4.635574   2.306326
    24  O    2.421541   4.623900   3.091249   5.316726   4.846152
    25  H    2.902957   4.258391   2.332134   3.651654   3.920448
    26  H    1.194574   3.488514   2.379350   4.325262   3.836538
    27  H    2.919253   5.288890   3.268458   5.823346   5.614385
    28  O    3.499215   5.192105   2.968637   4.775049   4.932846
    29  H    2.842574   4.867137   2.892421   5.040794   4.848152
    30  H    4.143576   5.587197   3.858363   5.315813   5.196221
                   11         12         13         14         15
    11  C    0.000000
    12  H    1.098327   0.000000
    13  H    1.098071   1.785433   0.000000
    14  O    3.374036   3.897678   2.708679   0.000000
    15  H    4.114540   4.742455   4.505435   4.007413   0.000000
    16  O    1.434190   2.096992   2.101192   4.534753   4.642671
    17  H    1.969194   2.401254   2.314882   4.956293   5.568187
    18  O    5.439982   6.020424   5.359380   3.435264   2.554607
    19  H    6.011187   6.680121   5.969938   4.191045   2.666499
    20  O    4.959408   5.873606   5.065942   4.405235   2.078563
    21  H    4.945490   5.884806   5.179550   5.007544   2.414636
    22  O    3.207037   4.127430   3.700015   4.636136   2.735348
    23  H    2.850557   3.756445   3.395915   4.886578   3.581665
    24  O    3.224094   2.672375   3.284908   3.380901   4.973243
    25  H    3.689975   3.878780   2.984922   1.282256   4.959919
    26  H    2.603797   2.407671   2.796541   2.769109   3.750246
    27  H    4.094274   3.500399   4.231934   4.034694   5.285965
    28  O    4.177235   4.065631   3.548237   2.429236   5.816150
    29  H    3.579714   3.230047   3.264564   2.817849   5.374012
    30  H    4.287398   4.145900   3.529640   2.907297   6.491467
                   16         17         18         19         20
    16  O    0.000000
    17  H    0.968249   0.000000
    18  O    6.338438   7.119498   0.000000
    19  H    6.748650   7.558039   0.971184   0.000000
    20  O    5.172435   5.985449   2.971855   2.582617   0.000000
    21  H    4.893992   5.709878   3.878585   3.504991   0.973160
    22  O    2.838979   3.688943   4.810441   4.849068   2.703510
    23  H    2.099698   2.870593   5.603622   5.723925   3.616275
    24  O    4.603585   4.977045   5.276144   6.167128   6.451606
    25  H    5.003005   5.291138   4.322333   5.184371   5.628654
    26  H    3.973627   4.540821   4.272421   5.105823   5.248525
    27  H    5.443108   5.862730   5.448161   6.358329   6.925541
    28  O    5.543158   5.736770   5.211180   6.126089   6.693795
    29  H    4.995409   5.266314   5.221973   6.147672   6.581430
    30  H    5.552698   5.581182   6.011750   6.891757   7.237721
                   21         22         23         24         25
    21  H    0.000000
    22  O    2.165503   0.000000
    23  H    3.072933   0.973889   0.000000
    24  O    6.824696   5.727774   5.749450   0.000000
    25  H    6.213216   5.635775   5.772809   2.748075   0.000000
    26  H    5.613831   4.618955   4.759748   1.231744   2.630951
    27  H    7.341830   6.376812   6.475659   0.970439   3.362849
    28  O    7.256073   6.527790   6.589787   2.419863   1.156384
    29  H    7.051811   6.110491   6.142706   1.164769   1.848724
    30  H    7.739672   6.861309   6.801183   2.939560   1.715333
                   26         27         28         29         30
    26  H    0.000000
    27  H    1.804253   0.000000
    28  O    2.828778   2.907070   0.000000
    29  H    1.866327   1.734759   1.268205   0.000000
    30  H    3.456569   3.533041   0.969678   1.841671   0.000000
 Stoichiometry    C6H16O8
 Framework group  C1[X(C6H16O8)]
 Deg. of freedom    84
 Full point group                 C1      NOp   1
 Largest Abelian subgroup         C1      NOp   1
 Largest concise Abelian subgroup C1      NOp   1
                         Standard orientation:                         
 ---------------------------------------------------------------------
 Center     Atomic      Atomic             Coordinates (Angstroms)
 Number     Number       Type             X           Y           Z
 ---------------------------------------------------------------------
      1          1           0        0.426460    1.580720    1.543217
      2          6           0        0.088480    1.124274    0.603970
      3          6           0        1.886662   -0.574722    0.257869
      4          6           0       -0.521630   -1.382567   -0.166046
      5          6           0        0.980741   -1.701123   -0.240961
      6          8           0       -0.618411   -0.077667    0.957071
      7          6           0        1.354657    0.778145   -0.200922
      8          1           0       -1.047726   -2.080527    0.502298
      9          1           0        1.200113   -1.848429   -1.307907
     10          1           0        1.117298    0.724579   -1.273990
     11          6           0       -0.801699    2.118894   -0.144276
     12          1           0       -1.674046    2.391145    0.464996
     13          1           0       -1.152396    1.654319   -1.075373
     14          8           0       -1.089809   -1.046090   -1.277408
     15          1           0        1.895477   -0.600626    1.358686
     16          8           0        0.022179    3.263124   -0.406697
     17          1           0       -0.460732    3.861979   -0.994640
     18          8           0        1.197646   -2.900183    0.492034
     19          1           0        2.148614   -3.086993    0.429106
     20          8           0        3.188900   -0.823727   -0.253054
     21          1           0        3.673645    0.014362   -0.154713
     22          8           0        2.378211    1.740005    0.028069
     23          1           0        2.006739    2.593864   -0.257227
     24          8           0       -3.010607    0.200250    1.210093
     25          1           0       -2.364177   -1.072847   -1.137942
     26          1           0       -1.785529    0.086247    1.151943
     27          1           0       -3.344252   -0.285544    1.981090
     28          8           0       -3.477257   -1.014900   -0.829854
     29          1           0       -3.356846   -0.357353    0.247864
     30          1           0       -3.932732   -0.478783   -1.497233
 ---------------------------------------------------------------------
 Rotational constants (GHZ):      0.7234118      0.5509944      0.3616060
 Standard basis: 6-31G(d) (6D, 7F)
 There are   242 symmetry adapted cartesian basis functions of A   symmetry.
 There are   242 symmetry adapted basis functions of A   symmetry.
   242 basis functions,   456 primitive gaussians,   242 cartesian basis functions
    58 alpha electrons       58 beta electrons
       nuclear repulsion energy      1114.0923909737 Hartrees.
 NAtoms=   30 NActive=   30 NUniq=   30 SFac= 1.00D+00 NAtFMM=   60 NAOKFM=F Big=F
 Integral buffers will be    131072 words long.
 Raffenetti 2 integral format.
 Two-electron integral symmetry is turned on.
 One-electron integrals computed using PRISM.
 NBasis=   242 RedAO= T EigKep=  1.41D-03  NBF=   242
 NBsUse=   242 1.00D-06 EigRej= -1.00D+00 NBFU=   242
 ExpMin= 1.61D-01 ExpMax= 5.48D+03 ExpMxC= 8.25D+02 IAcc=1 IRadAn=         1 AccDes= 0.00D+00
 Harris functional with IExCor=  402 and IRadAn=       1 diagonalized for initial guess.
 HarFok:  IExCor=  402 AccDes= 0.00D+00 IRadAn=         1 IDoV= 1 UseB2=F ITyADJ=14
 ICtDFT=  3500011 ScaDFX=  1.000000  1.000000  1.000000  1.000000
 FoFCou: FMM=F IPFlag=           0 FMFlag=      100000 FMFlg1=           0
         NFxFlg=           0 DoJE=T BraDBF=F KetDBF=T FulRan=T
         wScrn=  0.000000 ICntrl=     500 IOpCl=  0 I1Cent=   200000004 NGrid=           0
         NMat0=    1 NMatS0=      1 NMatT0=    0 NMatD0=    1 NMtDS0=    0 NMtDT0=    0
 Petite list used in FoFCou.
 Requested convergence on RMS density matrix=1.00D-08 within 128 cycles.
 Requested convergence on MAX density matrix=1.00D-06.
 Requested convergence on             energy=1.00D-06.
 No special actions if energy rises.
 Integral accuracy reduced to 1.0D-05 until final iterations.
 Initial convergence to 1.0D-05 achieved.  Increase integral accuracy.
 SCF Done:  E(RB3LYP) =  -839.962047726     A.U. after   14 cycles
            NFock= 14  Conv=0.46D-08     -V/T= 2.0086
 DoSCS=F DFT=T ScalE2(SS,OS)=  1.000000  1.000000
 Range of M.O.s used for correlation:     1   242
 NBasis=   242 NAE=    58 NBE=    58 NFC=     0 NFV=     0
 NROrb=    242 NOA=    58 NOB=    58 NVA=   184 NVB=   184
 Symmetrizing basis deriv contribution to polar:
 IMax=3 JMax=2 DiffMx= 0.00D+00
 G2DrvN: will do    31 centers at a time, making    1 passes.
 Calling FoFCou, ICntrl=  3107 FMM=F I1Cent=   0 AccDes= 0.00D+00.
 End of G2Drv F.D. properties file   721 does not exist.
 End of G2Drv F.D. properties file   722 does not exist.
 End of G2Drv F.D. properties file   788 does not exist.
          IDoAtm=111111111111111111111111111111
          Differentiating once with respect to nuclear coordinates.
          There are    93 degrees of freedom in the 1st order CPHF.  IDoFFX=6 NUNeed=     0.
     87 vectors produced by pass  0 Test12= 1.15D-14 1.08D-09 XBig12= 1.43D-01 6.16D-02.
 AX will form    87 AO Fock derivatives at one time.
     87 vectors produced by pass  1 Test12= 1.15D-14 1.08D-09 XBig12= 1.09D-02 1.26D-02.
     87 vectors produced by pass  2 Test12= 1.15D-14 1.08D-09 XBig12= 1.45D-04 1.66D-03.
     87 vectors produced by pass  3 Test12= 1.15D-14 1.08D-09 XBig12= 3.23D-07 5.84D-05.
     87 vectors produced by pass  4 Test12= 1.15D-14 1.08D-09 XBig12= 5.02D-10 2.16D-06.
     66 vectors produced by pass  5 Test12= 1.15D-14 1.08D-09 XBig12= 4.14D-13 5.32D-08.
      2 vectors produced by pass  6 Test12= 1.15D-14 1.08D-09 XBig12= 3.67D-16 1.44D-09.
 InvSVY:  IOpt=1 It=  1 EMax= 5.55D-16
 Solved reduced A of dimension   503 with    93 vectors.
 End of Minotr F.D. properties file   721 does not exist.
 End of Minotr F.D. properties file   722 does not exist.
 End of Minotr F.D. properties file   788 does not exist.

 **********************************************************************

            Population analysis using the SCF density.

 **********************************************************************

 Orbital symmetries:
       Occupied  (A) (A) (A) (A) (A) (A) (A) (A) (A) (A) (A) (A)
                 (A) (A) (A) (A) (A) (A) (A) (A) (A) (A) (A) (A)
                 (A) (A) (A) (A) (A) (A) (A) (A) (A) (A) (A) (A)
                 (A) (A) (A) (A) (A) (A) (A) (A) (A) (A) (A) (A)
                 (A) (A) (A) (A) (A) (A) (A) (A) (A) (A)
       Virtual   (A) (A) (A) (A) (A) (A) (A) (A) (A) (A) (A) (A)
                 (A) (A) (A) (A) (A) (A) (A) (A) (A) (A) (A) (A)
                 (A) (A) (A) (A) (A) (A) (A) (A) (A) (A) (A) (A)
                 (A) (A) (A) (A) (A) (A) (A) (A) (A) (A) (A) (A)
                 (A) (A) (A) (A) (A) (A) (A) (A) (A) (A) (A) (A)
                 (A) (A) (A) (A) (A) (A) (A) (A) (A) (A) (A) (A)
                 (A) (A) (A) (A) (A) (A) (A) (A) (A) (A) (A) (A)
                 (A) (A) (A) (A) (A) (A) (A) (A) (A) (A) (A) (A)
                 (A) (A) (A) (A) (A) (A) (A) (A) (A) (A) (A) (A)
                 (A) (A) (A) (A) (A) (A) (A) (A) (A) (A) (A) (A)
                 (A) (A) (A) (A) (A) (A) (A) (A) (A) (A) (A) (A)
                 (A) (A) (A) (A) (A) (A) (A) (A) (A) (A) (A) (A)
                 (A) (A) (A) (A) (A) (A) (A) (A) (A) (A) (A) (A)
                 (A) (A) (A) (A) (A) (A) (A) (A) (A) (A) (A) (A)
                 (A) (A) (A) (A) (A) (A) (A) (A) (A) (A) (A) (A)
                 (A) (A) (A) (A)
 The electronic state is 1-A.
 Alpha  occ. eigenvalues --  -19.17295 -19.17054 -19.16225 -19.14701 -19.14399
 Alpha  occ. eigenvalues --  -19.13998 -19.13828 -19.11529 -10.28430 -10.24663
 Alpha  occ. eigenvalues --  -10.24412 -10.23573 -10.23035 -10.22876  -1.05474
 Alpha  occ. eigenvalues --   -1.04090  -1.03166  -1.01826  -1.01198  -1.00511
 Alpha  occ. eigenvalues --   -0.99867  -0.97163  -0.77926  -0.75419  -0.68885
 Alpha  occ. eigenvalues --   -0.63190  -0.61590  -0.56581  -0.55339  -0.54619
 Alpha  occ. eigenvalues --   -0.54102  -0.53268  -0.51721  -0.50106  -0.48502
 Alpha  occ. eigenvalues --   -0.46677  -0.45431  -0.44378  -0.43757  -0.42387
 Alpha  occ. eigenvalues --   -0.41776  -0.41704  -0.40745  -0.38354  -0.38075
 Alpha  occ. eigenvalues --   -0.35928  -0.34959  -0.34461  -0.33589  -0.32245
 Alpha  occ. eigenvalues --   -0.31062  -0.30360  -0.29361  -0.27290  -0.26770
 Alpha  occ. eigenvalues --   -0.26004  -0.25859  -0.24989
 Alpha virt. eigenvalues --    0.03252   0.05571   0.05776   0.08714   0.09404
 Alpha virt. eigenvalues --    0.11056   0.11534   0.12799   0.13917   0.14510
 Alpha virt. eigenvalues --    0.15127   0.16724   0.17358   0.18093   0.19364
 Alpha virt. eigenvalues --    0.20060   0.21421   0.21935   0.24105   0.25864
 Alpha virt. eigenvalues --    0.27121   0.28245   0.28671   0.30669   0.30810
 Alpha virt. eigenvalues --    0.32325   0.32922   0.37182   0.51583   0.52432
 Alpha virt. eigenvalues --    0.55046   0.55322   0.58063   0.59180   0.60023
 Alpha virt. eigenvalues --    0.60409   0.62815   0.64718   0.65241   0.66561
 Alpha virt. eigenvalues --    0.67977   0.69315   0.71565   0.72071   0.73413
 Alpha virt. eigenvalues --    0.74953   0.75871   0.77731   0.80281   0.80920
 Alpha virt. eigenvalues --    0.81736   0.82711   0.83619   0.84915   0.85203
 Alpha virt. eigenvalues --    0.85899   0.86668   0.87655   0.89664   0.90154
 Alpha virt. eigenvalues --    0.92128   0.92408   0.93798   0.95735   0.96359
 Alpha virt. eigenvalues --    0.97348   0.98534   0.99813   1.01088   1.03312
 Alpha virt. eigenvalues --    1.03679   1.05480   1.06833   1.07208   1.07845
 Alpha virt. eigenvalues --    1.09169   1.12803   1.13887   1.14387   1.16299
 Alpha virt. eigenvalues --    1.17883   1.21001   1.21925   1.26403   1.27639
 Alpha virt. eigenvalues --    1.30523   1.32725   1.34063   1.36498   1.39888
 Alpha virt. eigenvalues --    1.42203   1.43180   1.45470   1.48279   1.53836
 Alpha virt. eigenvalues --    1.54323   1.57833   1.58014   1.59985   1.61645
 Alpha virt. eigenvalues --    1.63536   1.65848   1.66476   1.68476   1.69468
 Alpha virt. eigenvalues --    1.70959   1.71489   1.72782   1.74012   1.74359
 Alpha virt. eigenvalues --    1.76773   1.77120   1.78171   1.79425   1.81395
 Alpha virt. eigenvalues --    1.82227   1.83195   1.85501   1.85933   1.87173
 Alpha virt. eigenvalues --    1.88845   1.89708   1.91712   1.93629   1.95783
 Alpha virt. eigenvalues --    1.97524   2.00690   2.03263   2.04941   2.05607
 Alpha virt. eigenvalues --    2.06136   2.09066   2.10182   2.12549   2.15659
 Alpha virt. eigenvalues --    2.18635   2.22261   2.24681   2.27446   2.29670
 Alpha virt. eigenvalues --    2.33288   2.34875   2.36410   2.40375   2.41598
 Alpha virt. eigenvalues --    2.42359   2.45730   2.49165   2.50651   2.52102
 Alpha virt. eigenvalues --    2.54618   2.55038   2.57229   2.57670   2.61465
 Alpha virt. eigenvalues --    2.62851   2.66276   2.68605   2.71560   2.74596
 Alpha virt. eigenvalues --    2.75372   2.79230   2.82523   2.88426   2.91281
 Alpha virt. eigenvalues --    2.95420   2.95976   3.01921   3.05768   3.10503
 Alpha virt. eigenvalues --    3.74513   3.77929   3.78488   3.87166   3.89589
 Alpha virt. eigenvalues --    3.97399   4.03277   4.15686   4.25644   4.37003
 Alpha virt. eigenvalues --    4.46006   4.50546   4.67112   4.81581
          Condensed to atoms (all electrons):
               1          2          3          4          5          6
     1  H    0.599287   0.363909  -0.007484   0.001577   0.000480  -0.032046
     2  C    0.363909   4.948923  -0.029836  -0.008825  -0.013592   0.139259
     3  C   -0.007484  -0.029836   4.947280  -0.028721   0.327457  -0.006351
     4  C    0.001577  -0.008825  -0.028721   4.799826   0.308245   0.061623
     5  C    0.000480  -0.013592   0.327457   0.308245   4.931714  -0.018021
     6  O   -0.032046   0.139259  -0.006351   0.061623  -0.018021   8.624098
     7  C   -0.045624   0.298094   0.284508  -0.004393  -0.018879  -0.025358
     8  H   -0.000199   0.003984   0.002478   0.350362  -0.062512  -0.035880
     9  H    0.000017   0.000876  -0.040504  -0.059655   0.350815   0.002268
    10  H    0.006854  -0.056294  -0.051211  -0.001168  -0.005801   0.002256
    11  C   -0.054539   0.349609   0.003721  -0.000741  -0.000192  -0.026330
    12  H   -0.006544  -0.035743  -0.000076  -0.000161  -0.000023   0.001114
    13  H    0.005790  -0.029487  -0.000275   0.000909  -0.000039  -0.000396
    14  O   -0.000150   0.006967  -0.000198   0.311731  -0.046355  -0.056843
    15  H    0.003863  -0.001430   0.347026  -0.002816  -0.047648   0.003344
    16  O    0.004143  -0.047454   0.000220   0.000021  -0.000003   0.001155
    17  H   -0.000245   0.005389   0.000005  -0.000001   0.000000  -0.000081
    18  O    0.000005   0.000046  -0.033696  -0.032705   0.220289   0.000571
    19  H   -0.000002  -0.000020  -0.007040   0.006905  -0.026608  -0.000141
    20  O   -0.000077   0.002914   0.232015   0.002875  -0.043840   0.000080
    21  H    0.000017   0.000779  -0.030294  -0.000246   0.006267  -0.000021
    22  O    0.005541  -0.040834  -0.032927   0.000095   0.001972   0.001417
    23  H    0.000476  -0.005236   0.005273   0.000008  -0.000166  -0.000004
    24  O    0.000037   0.004317   0.000004   0.005349   0.000067  -0.098430
    25  H    0.000009  -0.000300  -0.000072  -0.018839   0.002572   0.003152
    26  H   -0.001598  -0.007949   0.000274  -0.002674   0.001111   0.108232
    27  H    0.000011  -0.000049  -0.000001  -0.000102   0.000007   0.004209
    28  O   -0.000000  -0.000016   0.000000   0.009721  -0.000138  -0.001050
    29  H    0.000006  -0.000359  -0.000002  -0.000124   0.000087   0.005494
    30  H   -0.000000  -0.000006   0.000000  -0.000385   0.000002   0.000001
               7          8          9         10         11         12
     1  H   -0.045624  -0.000199   0.000017   0.006854  -0.054539  -0.006544
     2  C    0.298094   0.003984   0.000876  -0.056294   0.349609  -0.035743
     3  C    0.284508   0.002478  -0.040504  -0.051211   0.003721  -0.000076
     4  C   -0.004393   0.350362  -0.059655  -0.001168  -0.000741  -0.000161
     5  C   -0.018879  -0.062512   0.350815  -0.005801  -0.000192  -0.000023
     6  O   -0.025358  -0.035880   0.002268   0.002256  -0.026330   0.001114
     7  C    5.017293   0.000313  -0.004658   0.356385  -0.035513   0.005818
     8  H    0.000313   0.634992   0.004792   0.000222  -0.000149   0.000008
     9  H   -0.004658   0.004792   0.611235   0.006977   0.000029  -0.000000
    10  H    0.356385   0.000222   0.006977   0.632039  -0.006496   0.000189
    11  C   -0.035513  -0.000149   0.000029  -0.006496   4.972669   0.359208
    12  H    0.005818   0.000008  -0.000000   0.000189   0.359208   0.598217
    13  H   -0.012128   0.000138   0.000014   0.004711   0.351240  -0.047857
    14  O    0.000359  -0.044739   0.006889   0.005143  -0.003628   0.000125
    15  H   -0.056121   0.000066   0.007698   0.007501   0.000287   0.000006
    16  O    0.008098   0.000001  -0.000000   0.000807   0.204060  -0.033438
    17  H   -0.000005  -0.000000   0.000000  -0.000083  -0.018965  -0.002194
    18  O    0.004229   0.008811  -0.036991   0.000022  -0.000000  -0.000000
    19  H    0.000485  -0.000513  -0.003595  -0.000021   0.000000  -0.000000
    20  O   -0.029063  -0.000077   0.000216   0.000320  -0.000044   0.000000
    21  H   -0.015684   0.000007  -0.000092   0.000465  -0.000018   0.000000
    22  O    0.213389   0.000002  -0.000141  -0.040534  -0.000275  -0.000213
    23  H   -0.023399  -0.000000   0.000007  -0.002985  -0.003026   0.000232
    24  O   -0.000124   0.001870   0.000002   0.000008  -0.001000   0.005334
    25  H   -0.000042  -0.006442   0.000030  -0.000021   0.000256  -0.000054
    26  H    0.001742  -0.000925  -0.000072  -0.000186  -0.001034   0.002029
    27  H    0.000004   0.000301  -0.000000  -0.000000  -0.000020   0.000003
    28  O    0.000002   0.003742   0.000003   0.000004  -0.000215   0.000024
    29  H    0.000016  -0.001045  -0.000003  -0.000005   0.000168   0.000285
    30  H   -0.000000  -0.000149  -0.000001  -0.000001   0.000035  -0.000025
              13         14         15         16         17         18
     1  H    0.005790  -0.000150   0.003863   0.004143  -0.000245   0.000005
     2  C   -0.029487   0.006967  -0.001430  -0.047454   0.005389   0.000046
     3  C   -0.000275  -0.000198   0.347026   0.000220   0.000005  -0.033696
     4  C    0.000909   0.311731  -0.002816   0.000021  -0.000001  -0.032705
     5  C   -0.000039  -0.046355  -0.047648  -0.000003   0.000000   0.220289
     6  O   -0.000396  -0.056843   0.003344   0.001155  -0.000081   0.000571
     7  C   -0.012128   0.000359  -0.056121   0.008098  -0.000005   0.004229
     8  H    0.000138  -0.044739   0.000066   0.000001  -0.000000   0.008811
     9  H    0.000014   0.006889   0.007698  -0.000000   0.000000  -0.036991
    10  H    0.004711   0.005143   0.007501   0.000807  -0.000083   0.000022
    11  C    0.351240  -0.003628   0.000287   0.204060  -0.018965  -0.000000
    12  H   -0.047857   0.000125   0.000006  -0.033438  -0.002194  -0.000000
    13  H    0.598405   0.009714   0.000010  -0.030641  -0.005172   0.000000
    14  O    0.009714   8.383817   0.000057   0.000021  -0.000002   0.000774
    15  H    0.000010   0.000057   0.650772  -0.000011   0.000001   0.002463
    16  O   -0.030641   0.000021  -0.000011   8.272506   0.235921   0.000000
    17  H   -0.005172  -0.000002   0.000001   0.235921   0.377904  -0.000000
    18  O    0.000000   0.000774   0.002463   0.000000  -0.000000   8.278620
    19  H    0.000000  -0.000130  -0.000493   0.000000  -0.000000   0.237373
    20  O   -0.000002  -0.000020  -0.046013  -0.000000   0.000000  -0.000907
    21  H   -0.000000   0.000002  -0.000373   0.000004  -0.000000  -0.000115
    22  O    0.000124   0.000014  -0.000633  -0.009610   0.000436  -0.000011
    23  H    0.000374  -0.000000  -0.000252   0.033673  -0.001118   0.000001
    24  O   -0.000124  -0.001916   0.000004   0.000015   0.000001   0.000000
    25  H    0.000134   0.129654   0.000003  -0.000001  -0.000000  -0.000059
    26  H   -0.000075   0.004669  -0.000093  -0.000046  -0.000001  -0.000037
    27  H    0.000015   0.000013  -0.000001  -0.000001  -0.000000  -0.000000
    28  O    0.000743  -0.098214  -0.000000   0.000000   0.000000   0.000001
    29  H    0.000159   0.005868  -0.000000   0.000001  -0.000001  -0.000001
    30  H    0.000142   0.004668   0.000000  -0.000000  -0.000000  -0.000000
              19         20         21         22         23         24
     1  H   -0.000002  -0.000077   0.000017   0.005541   0.000476   0.000037
     2  C   -0.000020   0.002914   0.000779  -0.040834  -0.005236   0.004317
     3  C   -0.007040   0.232015  -0.030294  -0.032927   0.005273   0.000004
     4  C    0.006905   0.002875  -0.000246   0.000095   0.000008   0.005349
     5  C   -0.026608  -0.043840   0.006267   0.001972  -0.000166   0.000067
     6  O   -0.000141   0.000080  -0.000021   0.001417  -0.000004  -0.098430
     7  C    0.000485  -0.029063  -0.015684   0.213389  -0.023399  -0.000124
     8  H   -0.000513  -0.000077   0.000007   0.000002  -0.000000   0.001870
     9  H   -0.003595   0.000216  -0.000092  -0.000141   0.000007   0.000002
    10  H   -0.000021   0.000320   0.000465  -0.040534  -0.002985   0.000008
    11  C    0.000000  -0.000044  -0.000018  -0.000275  -0.003026  -0.001000
    12  H   -0.000000   0.000000   0.000000  -0.000213   0.000232   0.005334
    13  H    0.000000  -0.000002  -0.000000   0.000124   0.000374  -0.000124
    14  O   -0.000130  -0.000020   0.000002   0.000014  -0.000000  -0.001916
    15  H   -0.000493  -0.046013  -0.000373  -0.000633  -0.000252   0.000004
    16  O    0.000000  -0.000000   0.000004  -0.009610   0.033673   0.000015
    17  H   -0.000000   0.000000  -0.000000   0.000436  -0.001118   0.000001
    18  O    0.237373  -0.000907  -0.000115  -0.000011   0.000001   0.000000
    19  H    0.377823   0.009072  -0.000319  -0.000001   0.000000  -0.000000
    20  O    0.009072   8.308148   0.236158  -0.007867   0.000177   0.000000
    21  H   -0.000319   0.236158   0.361174   0.027359  -0.000731  -0.000000
    22  O   -0.000001  -0.007867   0.027359   8.323789   0.231569   0.000000
    23  H    0.000000   0.000177  -0.000731   0.231569   0.343290  -0.000000
    24  O   -0.000000   0.000000  -0.000000   0.000000  -0.000000   8.529780
    25  H    0.000004   0.000000  -0.000000  -0.000000   0.000000   0.005955
    26  H    0.000004   0.000001   0.000000  -0.000018  -0.000000   0.133192
    27  H    0.000000  -0.000000   0.000000  -0.000000   0.000000   0.229778
    28  O   -0.000000  -0.000000   0.000000   0.000000  -0.000000  -0.101538
    29  H    0.000000   0.000000  -0.000000  -0.000000   0.000000   0.127622
    30  H    0.000000   0.000000  -0.000000  -0.000000   0.000000   0.004282
              25         26         27         28         29         30
     1  H    0.000009  -0.001598   0.000011  -0.000000   0.000006  -0.000000
     2  C   -0.000300  -0.007949  -0.000049  -0.000016  -0.000359  -0.000006
     3  C   -0.000072   0.000274  -0.000001   0.000000  -0.000002   0.000000
     4  C   -0.018839  -0.002674  -0.000102   0.009721  -0.000124  -0.000385
     5  C    0.002572   0.001111   0.000007  -0.000138   0.000087   0.000002
     6  O    0.003152   0.108232   0.004209  -0.001050   0.005494   0.000001
     7  C   -0.000042   0.001742   0.000004   0.000002   0.000016  -0.000000
     8  H   -0.006442  -0.000925   0.000301   0.003742  -0.001045  -0.000149
     9  H    0.000030  -0.000072  -0.000000   0.000003  -0.000003  -0.000001
    10  H   -0.000021  -0.000186  -0.000000   0.000004  -0.000005  -0.000001
    11  C    0.000256  -0.001034  -0.000020  -0.000215   0.000168   0.000035
    12  H   -0.000054   0.002029   0.000003   0.000024   0.000285  -0.000025
    13  H    0.000134  -0.000075   0.000015   0.000743   0.000159   0.000142
    14  O    0.129654   0.004669   0.000013  -0.098214   0.005868   0.004668
    15  H    0.000003  -0.000093  -0.000001  -0.000000  -0.000000   0.000000
    16  O   -0.000001  -0.000046  -0.000001   0.000000   0.000001  -0.000000
    17  H   -0.000000  -0.000001  -0.000000   0.000000  -0.000001  -0.000000
    18  O   -0.000059  -0.000037  -0.000000   0.000001  -0.000001  -0.000000
    19  H    0.000004   0.000004   0.000000  -0.000000   0.000000   0.000000
    20  O    0.000000   0.000001  -0.000000  -0.000000   0.000000   0.000000
    21  H   -0.000000   0.000000   0.000000   0.000000  -0.000000  -0.000000
    22  O   -0.000000  -0.000018  -0.000000   0.000000  -0.000000  -0.000000
    23  H    0.000000  -0.000000   0.000000  -0.000000   0.000000   0.000000
    24  O    0.005955   0.133192   0.229778  -0.101538   0.127622   0.004282
    25  H    0.304634  -0.000910  -0.000253   0.132663  -0.011049  -0.004861
    26  H   -0.000910   0.290008  -0.004371   0.005341  -0.008488  -0.000072
    27  H   -0.000253  -0.004371   0.364444   0.004326  -0.005692  -0.000157
    28  O    0.132663   0.005341   0.004326   8.529831   0.133628   0.227510
    29  H   -0.011049  -0.008488  -0.005692   0.133628   0.300561  -0.006232
    30  H   -0.004861  -0.000072  -0.000157   0.227510  -0.006232   0.378184
 Mulliken charges:
               1
     1  H    0.156487
     2  C    0.152366
     3  C    0.118429
     4  C    0.302309
     5  C    0.132734
     6  O   -0.657321
     7  C    0.080256
     8  H    0.140543
     9  H    0.153844
    10  H    0.140904
    11  C   -0.089097
    12  H    0.153738
    13  H    0.153572
    14  O   -0.618291
    15  H    0.132785
    16  O   -0.639440
    17  H    0.408211
    18  O   -0.648683
    19  H    0.407219
    20  O   -0.664065
    21  H    0.415663
    22  O   -0.672643
    23  H    0.421838
    24  O   -0.844482
    25  H    0.463836
    26  H    0.481948
    27  H    0.407534
    28  O   -0.846366
    29  H    0.459106
    30  H    0.397065
 Sum of Mulliken charges =  -0.00000
 Mulliken charges with hydrogens summed into heavy atoms:
               1
     2  C    0.308852
     3  C    0.251214
     4  C    0.442852
     5  C    0.286579
     6  O   -0.175373
     7  C    0.221160
    11  C    0.218214
    14  O   -0.618291
    16  O   -0.231230
    18  O   -0.241464
    20  O   -0.248402
    22  O   -0.250805
    24  O    0.022159
    28  O    0.014535
 APT charges:
               1
     1  H    0.451366
     2  C   -0.353861
     3  C   -0.165022
     4  C   -0.282705
     5  C   -0.220543
     6  O   -0.397346
     7  C   -0.146136
     8  H    0.438942
     9  H    0.394763
    10  H    0.287815
    11  C   -0.447710
    12  H    0.467851
    13  H    0.262020
    14  O   -0.415772
    15  H    0.331886
    16  O   -1.075344
    17  H    0.890333
    18  O   -0.912815
    19  H    0.795139
    20  O   -0.805355
    21  H    0.668230
    22  O   -0.803783
    23  H    0.624568
    24  O   -1.198299
    25  H    0.361418
    26  H    0.430365
    27  H    0.826521
    28  O   -1.161879
    29  H    0.373146
    30  H    0.782207
 Sum of APT charges =  -0.00000
 APT charges with hydrogens summed into heavy atoms:
               1
     2  C    0.097505
     3  C    0.166864
     4  C    0.156236
     5  C    0.174219
     6  O    0.033019
     7  C    0.141679
    11  C    0.282161
    14  O   -0.415772
    16  O   -0.185011
    18  O   -0.117676
    20  O   -0.137125
    22  O   -0.179215
    24  O    0.001369
    28  O   -0.018254
 Electronic spatial extent (au):  <R**2>=           3139.8238
 Charge=              0.0000 electrons
 Dipole moment (field-independent basis, Debye):
    X=             -2.5323    Y=              3.5920    Z=              0.0340  Tot=              4.3950
 Quadrupole moment (field-independent basis, Debye-Ang):
   XX=            -78.7531   YY=            -81.0900   ZZ=            -80.2497
   XY=             -5.1508   XZ=             -0.4735   YZ=             -7.7610
 Traceless Quadrupole moment (field-independent basis, Debye-Ang):
   XX=              1.2778   YY=             -1.0591   ZZ=             -0.2188
   XY=             -5.1508   XZ=             -0.4735   YZ=             -7.7610
 Octapole moment (field-independent basis, Debye-Ang**2):
  XXX=            -35.2980  YYY=             47.7206  ZZZ=              6.0535  XYY=              0.5484
  XXY=              4.4268  XXZ=              2.4922  XZZ=            -24.3318  YZZ=              8.0099
  YYZ=            -20.3610  XYZ=             10.8407
 Hexadecapole moment (field-independent basis, Debye-Ang**3):
 XXXX=          -1749.5561 YYYY=          -1278.5282 ZZZZ=           -304.1343 XXXY=            -13.2502
 XXXZ=             25.3155 YYYX=            -73.9787 YYYZ=            -80.8887 ZZZX=            -15.8814
 ZZZY=            -17.3314 XXYY=           -544.7007 XXZZ=           -288.3885 YYZZ=           -274.8160
 XXYZ=            -55.9100 YYXZ=              0.3246 ZZXY=              8.7385
 N-N= 1.114092390974D+03 E-N=-4.201238623361D+03  KE= 8.328157170925D+02
  Exact polarizability:   0.000   0.000   0.000   0.000   0.000   0.000
 Approx polarizability: 140.342   1.982 130.534   2.917  -0.212 130.172
 Calling FoFJK, ICntrl=    100147 FMM=F ISym2X=0 I1Cent= 0 IOpClX= 0 NMat=1 NMatS=1 NMatT=0.
 ***** Axes restored to original set *****
 -------------------------------------------------------------------
 Center     Atomic                   Forces (Hartrees/Bohr)
 Number     Number              X              Y              Z
 -------------------------------------------------------------------
      1        1          -0.000000311   -0.000000406    0.000000721
      2        6          -0.000001329    0.000000100    0.000000725
      3        6           0.000001477   -0.000001152   -0.000001551
      4        6          -0.000000525   -0.000000571   -0.000003751
      5        6           0.000003587   -0.000001454   -0.000004420
      6        8          -0.000001966   -0.000000397   -0.000000874
      7        6          -0.000000426    0.000001277    0.000000631
      8        1           0.000001029    0.000000000   -0.000000879
      9        1          -0.000000637    0.000001528    0.000003838
     10        1           0.000000522    0.000001251    0.000002337
     11        6          -0.000002286   -0.000000408    0.000004359
     12        1           0.000000873   -0.000000431    0.000000448
     13        1          -0.000001264   -0.000000148    0.000001082
     14        8           0.000001354   -0.000000042    0.000001716
     15        1           0.000000023    0.000000221   -0.000002675
     16        8          -0.000005920    0.000004465    0.000000863
     17        1           0.000002469   -0.000002540    0.000006674
     18        8           0.000001434    0.000005976   -0.000008533
     19        1           0.000000491    0.000000843   -0.000002669
     20        8          -0.000001266    0.000003891   -0.000001744
     21        1          -0.000001083   -0.000000037    0.000000045
     22        8          -0.000015136    0.000025404   -0.000002964
     23        1           0.000011538   -0.000021738    0.000007233
     24        8           0.000014902   -0.000009007   -0.000037020
     25        1          -0.000000651    0.000000661    0.000000362
     26        1          -0.000000124   -0.000002152   -0.000000242
     27        1          -0.000012849   -0.000012606    0.000026911
     28        8           0.000015374    0.000005325    0.000021495
     29        1           0.000001844   -0.000001228    0.000002785
     30        1          -0.000011144    0.000003373   -0.000014903
 -------------------------------------------------------------------
 Cartesian Forces:  Max     0.000037020 RMS     0.000007993

 GradGradGradGradGradGradGradGradGradGradGradGradGradGradGradGradGradGrad
 Berny optimization.
 Search for a saddle point.
 Step number   1 out of a maximum of  180
 All quantities printed in internal units (Hartrees-Bohrs-Radians)
 Swapping is turned off.
 Second derivative matrix not updated -- analytic derivatives used.
 ITU=  0
     Eigenvalues ---   -0.10847   0.00024   0.00053   0.00146   0.00179
     Eigenvalues ---    0.00245   0.00311   0.00391   0.00461   0.00573
     Eigenvalues ---    0.00717   0.00887   0.01058   0.01248   0.01303
     Eigenvalues ---    0.01533   0.01665   0.01795   0.01931   0.02097
     Eigenvalues ---    0.02196   0.02650   0.02838   0.03082   0.03367
     Eigenvalues ---    0.03612   0.04047   0.04604   0.04955   0.05098
     Eigenvalues ---    0.05541   0.06429   0.06671   0.06740   0.07249
     Eigenvalues ---    0.07662   0.08106   0.08252   0.09133   0.09375
     Eigenvalues ---    0.10151   0.11252   0.12019   0.12269   0.13408
     Eigenvalues ---    0.13901   0.14577   0.15329   0.16043   0.16767
     Eigenvalues ---    0.17789   0.19444   0.20249   0.21815   0.22403
     Eigenvalues ---    0.22641   0.25115   0.29430   0.30287   0.32021
     Eigenvalues ---    0.33710   0.38765   0.45386   0.49879   0.53794
     Eigenvalues ---    0.59250   0.64317   0.65178   0.67832   0.70282
     Eigenvalues ---    0.72265   0.76687   0.80632   0.83645   0.86460
     Eigenvalues ---    0.88199   0.93250   0.96187   0.99723   1.03439
     Eigenvalues ---    1.04600   1.05486   1.07772   1.13467
 Eigenvectors required to have negative eigenvalues:
                          X26       X25       Z29       Y29       Y4
   1                    0.49977  -0.48641   0.47012   0.20139  -0.19276
                          Z6        Z4        X24       X14       Y6
   1                    0.17886  -0.17628  -0.17308   0.15779   0.14411
 RFO step:  Lambda0=7.137554436D-13 Lambda=-2.17546113D-08.
 Linear search not attempted -- option 19 set.
 B after Tr=     0.000004   -0.000003   -0.000000
         Rot=    1.000000   -0.000004    0.000001    0.000001 Ang=  -0.00 deg.
 Variable       Old X    -DE/DX   Delta X   Delta X   Delta X     New X
                                 (Linear)    (Quad)   (Total)
    X1        0.80589  -0.00000   0.00000  -0.00030  -0.00029   0.80560
    Y1        2.98713  -0.00000   0.00000   0.00032   0.00029   2.98742
    Z1        2.91626   0.00000   0.00000  -0.00004  -0.00002   2.91624
    X2        0.16720  -0.00000   0.00000  -0.00003  -0.00003   0.16718
    Y2        2.12457   0.00000   0.00000   0.00019   0.00018   2.12475
    Z2        1.14134   0.00000   0.00000  -0.00007  -0.00006   1.14128
    X3        3.56527   0.00000   0.00000  -0.00010  -0.00010   3.56517
    Y3       -1.08607  -0.00000   0.00000   0.00001  -0.00000  -1.08607
    Z3        0.48730  -0.00000   0.00000   0.00019   0.00019   0.48749
    X4       -0.98574  -0.00000   0.00000  -0.00010  -0.00010  -0.98584
    Y4       -2.61267  -0.00000   0.00000   0.00014   0.00014  -2.61253
    Z4       -0.31378  -0.00000   0.00000  -0.00011  -0.00014  -0.31392
    X5        1.85333   0.00000   0.00000  -0.00009  -0.00009   1.85324
    Y5       -3.21466  -0.00000   0.00000   0.00026   0.00026  -3.21440
    Z5       -0.45535  -0.00000   0.00000  -0.00034  -0.00036  -0.45571
    X6       -1.16863  -0.00000   0.00000  -0.00002  -0.00002  -1.16865
    Y6       -0.14677  -0.00000   0.00000   0.00018   0.00017  -0.14660
    Z6        1.80860  -0.00000   0.00000  -0.00012  -0.00012   1.80848
    X7        2.55993  -0.00000   0.00000   0.00021   0.00022   2.56015
    Y7        1.47048   0.00000   0.00000   0.00016   0.00016   1.47064
    Z7       -0.37969   0.00000   0.00000   0.00031   0.00033  -0.37936
    X8       -1.97992   0.00000   0.00000   0.00006   0.00006  -1.97986
    Y8       -3.93163   0.00000   0.00000   0.00015   0.00014  -3.93149
    Z8        0.94921  -0.00000   0.00000   0.00002  -0.00001   0.94919
    X9        2.26788  -0.00000   0.00000  -0.00012  -0.00011   2.26777
    Y9       -3.49303   0.00000   0.00000   0.00079   0.00080  -3.49222
    Z9       -2.47159   0.00000   0.00000  -0.00041  -0.00043  -2.47201
   X10        2.11139   0.00000   0.00000   0.00059   0.00060   2.11199
   Y10        1.36925   0.00000   0.00000   0.00039   0.00041   1.36966
   Z10       -2.40749   0.00000   0.00000   0.00022   0.00023  -2.40726
   X11       -1.51499  -0.00000   0.00000   0.00015   0.00016  -1.51483
   Y11        4.00413  -0.00000   0.00000   0.00007   0.00007   4.00420
   Z11       -0.27264   0.00000   0.00000  -0.00044  -0.00041  -0.27306
   X12       -3.16349   0.00000   0.00000   0.00007   0.00007  -3.16341
   Y12        4.51861  -0.00000   0.00000   0.00025   0.00025   4.51886
   Z12        0.87872   0.00000   0.00000  -0.00065  -0.00062   0.87809
   X13       -2.17771  -0.00000   0.00000   0.00028   0.00029  -2.17742
   Y13        3.12621  -0.00000   0.00000  -0.00010  -0.00009   3.12612
   Z13       -2.03216   0.00000   0.00000  -0.00040  -0.00038  -2.03254
   X14       -2.05944   0.00000   0.00000  -0.00032  -0.00031  -2.05975
   Y14       -1.97682  -0.00000   0.00000   0.00005   0.00006  -1.97676
   Z14       -2.41395   0.00000   0.00000  -0.00002  -0.00004  -2.41399
   X15        3.58193   0.00000   0.00000  -0.00040  -0.00040   3.58153
   Y15       -1.13502   0.00000   0.00000  -0.00024  -0.00026  -1.13528
   Z15        2.56754  -0.00000   0.00000   0.00018   0.00018   2.56772
   X16        0.04191  -0.00001   0.00000   0.00029   0.00030   0.04222
   Y16        6.16641   0.00000   0.00000  -0.00005  -0.00005   6.16637
   Z16       -0.76855   0.00000   0.00000  -0.00052  -0.00047  -0.76902
   X17       -0.87065   0.00000   0.00000   0.00033   0.00035  -0.87031
   Y17        7.29808  -0.00000   0.00000   0.00003   0.00004   7.29812
   Z17       -1.87960   0.00001   0.00000  -0.00045  -0.00040  -1.88000
   X18        2.26322   0.00000   0.00000  -0.00002  -0.00002   2.26320
   Y18       -5.48055   0.00001   0.00000  -0.00008  -0.00009  -5.48065
   Z18        0.92981  -0.00001   0.00000  -0.00095  -0.00099   0.92882
   X19        4.06029   0.00000   0.00000  -0.00000  -0.00001   4.06028
   Y19       -5.83357   0.00000   0.00000   0.00003   0.00001  -5.83356
   Z19        0.81089  -0.00000   0.00000  -0.00106  -0.00110   0.80980
   X20        6.02615  -0.00000   0.00000  -0.00001  -0.00001   6.02614
   Y20       -1.55662   0.00000   0.00000  -0.00008  -0.00009  -1.55671
   Z20       -0.47820  -0.00000   0.00000   0.00048   0.00048  -0.47772
   X21        6.94218  -0.00000   0.00000   0.00009   0.00009   6.94228
   Y21        0.02714  -0.00000   0.00000  -0.00018  -0.00019   0.02695
   Z21       -0.29237   0.00000   0.00000   0.00080   0.00081  -0.29156
   X22        4.49417  -0.00002   0.00000   0.00025   0.00025   4.49442
   Y22        3.28813   0.00003   0.00000   0.00001  -0.00000   3.28813
   Z22        0.05304  -0.00000   0.00000   0.00082   0.00085   0.05390
   X23        3.79219   0.00001   0.00000   0.00068   0.00069   3.79288
   Y23        4.90169  -0.00002   0.00000  -0.00002  -0.00002   4.90167
   Z23       -0.48609   0.00001   0.00000   0.00038   0.00043  -0.48566
   X24       -5.68922   0.00001   0.00000   0.00004   0.00004  -5.68918
   Y24        0.37842  -0.00001   0.00000  -0.00008  -0.00009   0.37833
   Z24        2.28674  -0.00004   0.00000   0.00004   0.00003   2.28678
   X25       -4.46765  -0.00000   0.00000  -0.00028  -0.00028  -4.46793
   Y25       -2.02739   0.00000   0.00000  -0.00021  -0.00019  -2.02758
   Z25       -2.15040   0.00000   0.00000   0.00026   0.00023  -2.15017
   X26       -3.37416  -0.00000   0.00000  -0.00001  -0.00001  -3.37417
   Y26        0.16299  -0.00000   0.00000   0.00006   0.00005   0.16303
   Z26        2.17686  -0.00000   0.00000  -0.00001  -0.00001   2.17684
   X27       -6.31972  -0.00001   0.00000  -0.00005  -0.00006  -6.31978
   Y27       -0.53960  -0.00001   0.00000   0.00056   0.00054  -0.53906
   Z27        3.74372   0.00003   0.00000   0.00047   0.00045   3.74417
   X28       -6.57106   0.00002   0.00000  -0.00017  -0.00016  -6.57123
   Y28       -1.91788   0.00001   0.00000  -0.00064  -0.00062  -1.91850
   Z28       -1.56820   0.00002   0.00000   0.00065   0.00062  -1.56758
   X29       -6.34352   0.00000   0.00000  -0.00017  -0.00017  -6.34369
   Y29       -0.67530  -0.00000   0.00000  -0.00033  -0.00033  -0.67563
   Z29        0.46840   0.00000   0.00000   0.00035   0.00033   0.46873
   X30       -7.43179  -0.00001   0.00000  -0.00098  -0.00097  -7.43276
   Y30       -0.90476   0.00000   0.00000  -0.00156  -0.00153  -0.90629
   Z30       -2.82936  -0.00001   0.00000   0.00043   0.00041  -2.82895
         Item               Value     Threshold  Converged?
 Maximum Force            0.000037     0.000450     YES
 RMS     Force            0.000008     0.000300     YES
 Maximum Displacement     0.001529     0.001800     YES
 RMS     Displacement     0.000392     0.001200     YES
 Predicted change in Energy=-1.201064D-08
 Optimization completed.
    -- Stationary point found.
 GradGradGradGradGradGradGradGradGradGradGradGradGradGradGradGradGradGrad

                          Input orientation:                          
 ---------------------------------------------------------------------
 Center     Atomic      Atomic             Coordinates (Angstroms)
 Number     Number       Type             X           Y           Z
 ---------------------------------------------------------------------
      1          1           0        0.426461    1.580720    1.543217
      2          6           0        0.088481    1.124274    0.603970
      3          6           0        1.886662   -0.574723    0.257869
      4          6           0       -0.521631   -1.382567   -0.166046
      5          6           0        0.980740   -1.701123   -0.240961
      6          8           0       -0.618411   -0.077667    0.957071
      7          6           0        1.354657    0.778144   -0.200922
      8          1           0       -1.047727   -2.080527    0.502298
      9          1           0        1.200112   -1.848430   -1.307907
     10          1           0        1.117298    0.724578   -1.273990
     11          6           0       -0.801698    2.118894   -0.144276
     12          1           0       -1.674045    2.391146    0.464996
     13          1           0       -1.152395    1.654319   -1.075373
     14          8           0       -1.089809   -1.046090   -1.277408
     15          1           0        1.895477   -0.600627    1.358686
     16          8           0        0.022180    3.263124   -0.406697
     17          1           0       -0.460730    3.861979   -0.994640
     18          8           0        1.197645   -2.900184    0.492034
     19          1           0        2.148613   -3.086994    0.429106
     20          8           0        3.188900   -0.823728   -0.253054
     21          1           0        3.673645    0.014360   -0.154713
     22          8           0        2.378212    1.740004    0.028069
     23          1           0        2.006740    2.593863   -0.257227
     24          8           0       -3.010607    0.200251    1.210093
     25          1           0       -2.364177   -1.072846   -1.137942
     26          1           0       -1.785529    0.086248    1.151943
     27          1           0       -3.344252   -0.285543    1.981090
     28          8           0       -3.477257   -1.014899   -0.829854
     29          1           0       -3.356846   -0.357352    0.247864
     30          1           0       -3.932732   -0.478781   -1.497233
 ---------------------------------------------------------------------
                    Distance matrix (angstroms):
                    1          2          3          4          5
     1  H    0.000000
     2  C    1.097615   0.000000
     3  C    2.903488   2.497965   0.000000
     4  C    3.549863   2.692473   2.575304   0.000000
     5  C    3.776375   3.081055   1.529151   1.537598   0.000000
     6  O    2.045867   1.438415   2.647893   1.724390   2.574524
     7  C    2.132533   1.539759   1.524391   2.861878   2.507625
     8  H    4.081847   3.401772   3.307239   1.100277   2.193413
     9  H    4.526203   3.705127   2.131979   2.117847   1.099180
    10  H    3.024383   2.178292   2.150976   2.890275   2.640042
    11  C    2.155374   1.530216   3.826823   3.512711   4.216511
    12  H    2.496293   2.175035   4.638741   3.995896   4.928785
    13  H    3.058630   2.154278   3.997753   3.232246   4.062696
    14  O    4.141875   3.104582   3.382106   1.292737   2.406338
    15  H    2.636349   2.609620   1.101157   2.962878   2.146324
    16  O    2.606931   2.366542   4.318218   4.683598   5.058661
    17  H    3.525900   3.217486   5.173331   5.309947   5.796031
    18  O    4.666713   4.176007   2.436667   2.385821   1.421997
    19  H    5.098490   4.691428   2.531688   3.223272   1.932241
    20  O    4.079097   3.760558   1.420869   3.753387   2.376118
    21  H    3.985054   3.828957   1.926279   4.421750   3.194066
    22  O    2.475960   2.440011   2.377476   4.265820   3.723796
    23  H    2.601027   2.565360   3.212426   4.713064   4.415863
    24  O    3.718885   3.290220   5.048818   3.254854   4.653131
    25  H    4.692301   3.725201   4.501783   2.106059   3.519627
    26  H    2.698044   2.211263   3.836827   2.343491   3.575908
    27  H    4.230006   3.958244   5.515032   3.712256   5.064280
    28  O    5.254305   4.398454   5.490767   3.051483   4.548784
    29  H    4.443813   3.767268   5.248021   3.043161   4.567201
    30  H    5.699864   4.811964   6.079057   3.771538   5.216756
                    6          7          8          9         10
     6  O    0.000000
     7  C    2.442613   0.000000
     8  H    2.098232   3.799733   0.000000
     9  H    3.401875   2.854504   2.895426   0.000000
    10  H    2.938353   1.100311   3.963729   2.574564   0.000000
    11  C    2.464029   2.539820   4.256022   4.593576   2.627340
    12  H    2.729751   3.495462   4.515476   5.420145   3.686884
    13  H    2.723186   2.796007   4.055746   4.225827   2.460767
    14  O    2.480515   3.234512   2.058928   2.426606   2.829593
    15  H    2.598926   2.150784   3.403815   3.025105   3.048395
    16  O    3.664847   2.827183   5.524996   5.322376   2.897533
    17  H    4.399415   3.665468   6.156197   5.955275   3.522995
    18  O    3.388351   3.746323   2.390322   2.084701   4.032889
    19  H    4.122040   3.995822   3.351854   2.334718   4.300259
    20  O    4.064065   2.435808   4.483203   2.473460   2.780485
    21  H    4.434668   2.441968   5.206877   3.304271   2.879601
    22  O    3.625841   1.423122   5.153485   4.006196   2.077583
    23  H    3.937386   1.930082   5.635297   4.635574   2.306326
    24  O    2.421541   4.623900   3.091249   5.316726   4.846152
    25  H    2.902957   4.258391   2.332134   3.651654   3.920448
    26  H    1.194574   3.488514   2.379350   4.325262   3.836538
    27  H    2.919253   5.288890   3.268458   5.823346   5.614385
    28  O    3.499215   5.192105   2.968637   4.775049   4.932846
    29  H    2.842574   4.867137   2.892421   5.040794   4.848152
    30  H    4.143576   5.587197   3.858363   5.315813   5.196221
                   11         12         13         14         15
    11  C    0.000000
    12  H    1.098327   0.000000
    13  H    1.098071   1.785433   0.000000
    14  O    3.374036   3.897678   2.708679   0.000000
    15  H    4.114540   4.742455   4.505435   4.007413   0.000000
    16  O    1.434190   2.096992   2.101192   4.534753   4.642671
    17  H    1.969194   2.401254   2.314882   4.956293   5.568187
    18  O    5.439982   6.020424   5.359380   3.435264   2.554607
    19  H    6.011187   6.680121   5.969938   4.191045   2.666499
    20  O    4.959408   5.873606   5.065942   4.405235   2.078563
    21  H    4.945490   5.884806   5.179550   5.007544   2.414636
    22  O    3.207037   4.127430   3.700015   4.636136   2.735348
    23  H    2.850557   3.756445   3.395915   4.886578   3.581665
    24  O    3.224094   2.672375   3.284908   3.380901   4.973243
    25  H    3.689975   3.878780   2.984922   1.282256   4.959919
    26  H    2.603797   2.407671   2.796541   2.769109   3.750246
    27  H    4.094274   3.500399   4.231934   4.034694   5.285965
    28  O    4.177235   4.065631   3.548237   2.429236   5.816150
    29  H    3.579714   3.230047   3.264564   2.817849   5.374012
    30  H    4.287398   4.145900   3.529640   2.907297   6.491467
                   16         17         18         19         20
    16  O    0.000000
    17  H    0.968249   0.000000
    18  O    6.338438   7.119498   0.000000
    19  H    6.748650   7.558039   0.971184   0.000000
    20  O    5.172435   5.985449   2.971855   2.582617   0.000000
    21  H    4.893992   5.709878   3.878585   3.504991   0.973160
    22  O    2.838979   3.688943   4.810441   4.849068   2.703510
    23  H    2.099698   2.870593   5.603622   5.723925   3.616275
    24  O    4.603585   4.977045   5.276144   6.167128   6.451606
    25  H    5.003005   5.291138   4.322333   5.184371   5.628654
    26  H    3.973627   4.540821   4.272421   5.105823   5.248525
    27  H    5.443108   5.862730   5.448161   6.358329   6.925541
    28  O    5.543158   5.736770   5.211180   6.126089   6.693795
    29  H    4.995409   5.266314   5.221973   6.147672   6.581430
    30  H    5.552698   5.581182   6.011750   6.891757   7.237721
                   21         22         23         24         25
    21  H    0.000000
    22  O    2.165503   0.000000
    23  H    3.072933   0.973889   0.000000
    24  O    6.824696   5.727774   5.749450   0.000000
    25  H    6.213216   5.635775   5.772809   2.748075   0.000000
    26  H    5.613831   4.618955   4.759748   1.231744   2.630951
    27  H    7.341830   6.376812   6.475659   0.970439   3.362849
    28  O    7.256073   6.527790   6.589787   2.419863   1.156384
    29  H    7.051811   6.110491   6.142706   1.164769   1.848724
    30  H    7.739672   6.861309   6.801183   2.939560   1.715333
                   26         27         28         29         30
    26  H    0.000000
    27  H    1.804253   0.000000
    28  O    2.828778   2.907070   0.000000
    29  H    1.866327   1.734759   1.268205   0.000000
    30  H    3.456569   3.533041   0.969678   1.841671   0.000000
 Stoichiometry    C6H16O8
 Framework group  C1[X(C6H16O8)]
 Deg. of freedom    84
 Full point group                 C1      NOp   1
 Largest Abelian subgroup         C1      NOp   1
 Largest concise Abelian subgroup C1      NOp   1
                         Standard orientation:                         
 ---------------------------------------------------------------------
 Center     Atomic      Atomic             Coordinates (Angstroms)
 Number     Number       Type             X           Y           Z
 ---------------------------------------------------------------------
      1          1           0        0.426460    1.580720    1.543217
      2          6           0        0.088480    1.124274    0.603970
      3          6           0        1.886662   -0.574722    0.257869
      4          6           0       -0.521630   -1.382567   -0.166046
      5          6           0        0.980741   -1.701123   -0.240961
      6          8           0       -0.618411   -0.077667    0.957071
      7          6           0        1.354657    0.778145   -0.200922
      8          1           0       -1.047726   -2.080527    0.502298
      9          1           0        1.200113   -1.848429   -1.307907
     10          1           0        1.117298    0.724579   -1.273990
     11          6           0       -0.801699    2.118894   -0.144276
     12          1           0       -1.674046    2.391145    0.464996
     13          1           0       -1.152396    1.654319   -1.075373
     14          8           0       -1.089809   -1.046090   -1.277408
     15          1           0        1.895477   -0.600626    1.358686
     16          8           0        0.022179    3.263124   -0.406697
     17          1           0       -0.460732    3.861979   -0.994640
     18          8           0        1.197646   -2.900183    0.492034
     19          1           0        2.148614   -3.086993    0.429106
     20          8           0        3.188900   -0.823727   -0.253054
     21          1           0        3.673645    0.014362   -0.154713
     22          8           0        2.378211    1.740005    0.028069
     23          1           0        2.006739    2.593864   -0.257227
     24          8           0       -3.010607    0.200250    1.210093
     25          1           0       -2.364177   -1.072847   -1.137942
     26          1           0       -1.785529    0.086247    1.151943
     27          1           0       -3.344252   -0.285544    1.981090
     28          8           0       -3.477257   -1.014900   -0.829854
     29          1           0       -3.356846   -0.357353    0.247864
     30          1           0       -3.932732   -0.478783   -1.497233
 ---------------------------------------------------------------------
 Rotational constants (GHZ):      0.7234118      0.5509944      0.3616060
 1\1\GINC-N157\FTS\RB3LYP\6-31G(d)\C6H16O8\ROOT\12-Jan-2017\0\\# opt=(T
 S,CalcFC,NoEigenTest,MaxCycle=500,cartesian) Freq B3LYP 6-31G(d)\\glo_
 2w_beta_ts_boat1_B3LYP_631Gd.log\\0,1\H,0.426461,1.58072,1.543217\C,0.
 088481,1.124274,0.60397\C,1.886662,-0.574723,0.257869\C,-0.521631,-1.3
 82567,-0.166046\C,0.98074,-1.701123,-0.240961\O,-0.618411,-0.077667,0.
 957071\C,1.354657,0.778144,-0.200922\H,-1.047727,-2.080527,0.502298\H,
 1.200112,-1.84843,-1.307907\H,1.117298,0.724578,-1.27399\C,-0.801698,2
 .118894,-0.144276\H,-1.674045,2.391146,0.464996\H,-1.152395,1.654319,-
 1.075373\O,-1.089809,-1.04609,-1.277408\H,1.895477,-0.600627,1.358686\
 O,0.02218,3.263124,-0.406697\H,-0.46073,3.861979,-0.99464\O,1.197645,-
 2.900184,0.492034\H,2.148613,-3.086994,0.429106\O,3.1889,-0.823728,-0.
 253054\H,3.673645,0.01436,-0.154713\O,2.378212,1.740004,0.028069\H,2.0
 0674,2.593863,-0.257227\O,-3.010607,0.200251,1.210093\H,-2.364177,-1.0
 72846,-1.137942\H,-1.785529,0.086248,1.151943\H,-3.344252,-0.285543,1.
 98109\O,-3.477257,-1.014899,-0.829854\H,-3.356846,-0.357352,0.247864\H
 ,-3.932732,-0.478781,-1.497233\\Version=ES64L-G09RevE.01\State=1-A\HF=
 -839.9620477\RMSD=4.638e-09\RMSF=7.993e-06\Dipole=-0.9962711,1.4131873
 ,0.0133723\Polar=0.,0.,0.,0.,0.,0.\Quadrupole=0.950043,-0.7873862,-0.1
 626568,-3.8294793,-0.3520274,-5.770077\PG=C01 [X(C6H16O8)]\\@


 ROSE IS A RED
 TY COBB IS BLUE
 'CAUSE PETE JUST HIT
 NO. 4592.
 Job cpu time:       0 days  0 hours 52 minutes 36.1 seconds.
 File lengths (MBytes):  RWF=    220 Int=      0 D2E=      0 Chk=      6 Scr=      1
 Normal termination of Gaussian 09 at Thu Jan 12 17:53:31 2017.
 Link1:  Proceeding to internal job step number  2.
 --------------------------------------------------------------------
 #N Geom=AllCheck Guess=TCheck SCRF=Check GenChk RB3LYP/6-31G(d) Freq
 --------------------------------------------------------------------
 1/5=1,6=500,10=4,11=1,29=7,30=1,38=1,40=1/1,3;
 2/12=2,40=1/2;
 3/5=1,6=6,7=1,11=2,14=-4,16=1,25=1,30=1,70=2,71=2,74=-5,116=1,140=1/1,2,3;
 4/5=101/1;
 5/5=2,38=6,98=1/2;
 8/6=4,10=90,11=11/1;
 11/6=1,8=1,9=11,15=111,16=1/1,2,10;
 10/6=1/2;
 6/7=2,8=2,9=2,10=2,18=1,28=1/1;
 7/8=1,10=1,25=1/1,2,3,16;
 1/5=1,6=500,10=4,11=1,30=1/3;
 99//99;
 Structure from the checkpoint file:  "/scratch/10456460.yak.local/Gau-26967.chk"
 ------------------------------------
 glo_2w_beta_ts_boat1_B3LYP_631Gd.log
 ------------------------------------
 Charge =  0 Multiplicity = 1
 No Z-Matrix found in file; cartesian coordinates used.
  H                                                 0.426461000000      1.580720000000      1.543217000000
  C                                                 0.088481000000      1.124274000000      0.603970000000
  C                                                 1.886662000000     -0.574723000000      0.257869000000
  C                                                -0.521631000000     -1.382567000000     -0.166046000000
  C                                                 0.980740000000     -1.701123000000     -0.240961000000
  O                                                -0.618411000000     -0.077667000000      0.957071000000
  C                                                 1.354657000000      0.778144000000     -0.200922000000
  H                                                -1.047727000000     -2.080527000000      0.502298000000
  H                                                 1.200112000000     -1.848430000000     -1.307907000000
  H                                                 1.117298000000      0.724578000000     -1.273990000000
  C                                                -0.801698000000      2.118894000000     -0.144276000000
  H                                                -1.674045000000      2.391146000000      0.464996000000
  H                                                -1.152395000000      1.654319000000     -1.075373000000
  O                                                -1.089809000000     -1.046090000000     -1.277408000000
  H                                                 1.895477000000     -0.600627000000      1.358686000000
  O                                                 0.022180000000      3.263124000000     -0.406697000000
  H                                                -0.460730000000      3.861979000000     -0.994640000000
  O                                                 1.197645000000     -2.900184000000      0.492034000000
  H                                                 2.148613000000     -3.086994000000      0.429106000000
  O                                                 3.188900000000     -0.823728000000     -0.253054000000
  H                                                 3.673645000000      0.014360000000     -0.154713000000
  O                                                 2.378212000000      1.740004000000      0.028069000000
  H                                                 2.006740000000      2.593863000000     -0.257227000000
  O                                                -3.010607000000      0.200251000000      1.210093000000
  H                                                -2.364177000000     -1.072846000000     -1.137942000000
  H                                                -1.785529000000      0.086248000000      1.151943000000
  H                                                -3.344252000000     -0.285543000000      1.981090000000
  O                                                -3.477257000000     -1.014899000000     -0.829854000000
  H                                                -3.356846000000     -0.357352000000      0.247864000000
  H                                                -3.932732000000     -0.478781000000     -1.497233000000
 Recover connectivity data from disk.

 GradGradGradGradGradGradGradGradGradGradGradGradGradGradGradGradGradGrad
 Berny optimization.
 Initialization pass.
 Trust Radius=3.00D-01 FncErr=1.00D-07 GrdErr=1.00D-07
 Number of steps in this run=      2 maximum allowed number of steps=      2.
 Search for a saddle point of order  1.
 GradGradGradGradGradGradGradGradGradGradGradGradGradGradGradGradGradGrad

                          Input orientation:                          
 ---------------------------------------------------------------------
 Center     Atomic      Atomic             Coordinates (Angstroms)
 Number     Number       Type             X           Y           Z
 ---------------------------------------------------------------------
      1          1           0        0.426461    1.580720    1.543217
      2          6           0        0.088481    1.124274    0.603970
      3          6           0        1.886662   -0.574723    0.257869
      4          6           0       -0.521631   -1.382567   -0.166046
      5          6           0        0.980740   -1.701123   -0.240961
      6          8           0       -0.618411   -0.077667    0.957071
      7          6           0        1.354657    0.778144   -0.200922
      8          1           0       -1.047727   -2.080527    0.502298
      9          1           0        1.200112   -1.848430   -1.307907
     10          1           0        1.117298    0.724578   -1.273990
     11          6           0       -0.801698    2.118894   -0.144276
     12          1           0       -1.674045    2.391146    0.464996
     13          1           0       -1.152395    1.654319   -1.075373
     14          8           0       -1.089809   -1.046090   -1.277408
     15          1           0        1.895477   -0.600627    1.358686
     16          8           0        0.022180    3.263124   -0.406697
     17          1           0       -0.460730    3.861979   -0.994640
     18          8           0        1.197645   -2.900184    0.492034
     19          1           0        2.148613   -3.086994    0.429106
     20          8           0        3.188900   -0.823728   -0.253054
     21          1           0        3.673645    0.014360   -0.154713
     22          8           0        2.378212    1.740004    0.028069
     23          1           0        2.006740    2.593863   -0.257227
     24          8           0       -3.010607    0.200251    1.210093
     25          1           0       -2.364177   -1.072846   -1.137942
     26          1           0       -1.785529    0.086248    1.151943
     27          1           0       -3.344252   -0.285543    1.981090
     28          8           0       -3.477257   -1.014899   -0.829854
     29          1           0       -3.356846   -0.357352    0.247864
     30          1           0       -3.932732   -0.478781   -1.497233
 ---------------------------------------------------------------------
                    Distance matrix (angstroms):
                    1          2          3          4          5
     1  H    0.000000
     2  C    1.097615   0.000000
     3  C    2.903488   2.497965   0.000000
     4  C    3.549863   2.692473   2.575304   0.000000
     5  C    3.776375   3.081055   1.529151   1.537598   0.000000
     6  O    2.045867   1.438415   2.647893   1.724390   2.574524
     7  C    2.132533   1.539759   1.524391   2.861878   2.507625
     8  H    4.081847   3.401772   3.307239   1.100277   2.193413
     9  H    4.526203   3.705127   2.131979   2.117847   1.099180
    10  H    3.024383   2.178292   2.150976   2.890275   2.640042
    11  C    2.155374   1.530216   3.826823   3.512711   4.216511
[...]
 31853,0.00059515,0.00097096,-0.00025714,-0.00007561,0.00025482,0.00714
 021,0.00082090,0.00171305,0.00003118,0.00003847,0.00006324,-0.00187395
 ,-0.00024196,0.00080699,0.00013763,0.00013304,-0.00035741,0.00024656,0
 .00010802,0.00014412,-0.00002863,-0.00004689,-0.00007814,0.00017591,0.
 00039531,0.00002999,0.00008895,-0.00007671,0.00000410,0.00027422,0.000
 55414,-0.00004375,0.00034332,-0.00020795,0.00000146,0.10057048,0.22052
 982,0.00058061,0.00035275,-0.00000942,-0.00110087,0.00012447,0.0007995
 0,0.00001949,-0.00032483,-0.00024730,-0.00422997,-0.00226823,-0.010764
 28,0.00030877,0.00069300,0.00071787,0.00678600,0.00201039,0.01700339,0
 .00000757,-0.00064090,-0.00042552,-0.00027698,-0.00029018,0.00031427,-
 0.00026345,0.00004837,0.00022000,-0.00010111,-0.00001191,0.00025460,0.
 00000091,0.00032901,-0.00083775,0.00019490,0.00058045,-0.00098608,-0.0
 0048057,0.00005502,0.00068617,0.01386188,-0.00123938,0.00525023,0.0000
 7471,0.00003666,0.00009679,0.00052365,0.00026918,0.00049851,-0.0000130
 5,-0.00023051,-0.00014952,0.00031306,-0.00006512,0.00047155,-0.0000358
 7,-0.00007421,-0.00010369,0.00017409,0.00020524,0.00013633,0.00004103,
 -0.00003663,-0.00005274,-0.00016591,0.00021380,0.00035223,-0.00000955,
 0.00000298,-0.00014682,-0.11416849,-0.14431397,0.47681240,0.00061702,0
 .00146761,-0.00027183,-0.00280699,-0.00338685,0.00182865,-0.00184258,-
 0.00229620,-0.00060279,-0.02297079,-0.00057476,-0.06376540,0.00297468,
 0.00141217,0.00542347,-0.00999090,0.01660359,0.01706485,-0.00107072,-0
 .00178403,-0.00146067,0.00020836,-0.00308090,0.00849088,-0.00122571,0.
 00026512,0.00084200,-0.00030882,-0.00049372,0.00078330,0.00166357,-0.0
 0086576,-0.00063466,-0.00026202,0.00087619,0.00064637,0.00088034,-0.00
 088076,0.00007167,0.02994386,-0.00395623,0.02471418,0.00031961,0.00026
 728,0.00034376,-0.00097004,0.00155932,-0.00006786,0.00025846,-0.000033
 29,-0.00012894,0.00341919,-0.00256577,0.00179840,-0.00017055,-0.000195
 26,0.00004558,0.00269296,0.00117090,-0.00007891,-0.00004936,-0.0001914
 7,0.00002244,0.00118332,0.00218383,0.00052297,0.00021518,-0.00063094,0
 .00010130,-0.02215204,-0.01159103,-0.02220616,0.03299135,0.00007390,-0
 .00014300,0.00011244,-0.00044755,0.00004567,-0.00027454,0.00053274,-0.
 00021743,0.00003817,0.00762011,0.00103928,0.00280152,0.00188835,0.0027
 9706,0.00227421,0.00082031,-0.00136678,-0.00031743,-0.00011530,-0.0000
 4632,0.00044074,0.00153610,-0.00099473,-0.00099148,-0.00011960,-0.0000
 5860,0.00014722,0.00001919,0.00010407,-0.00019007,-0.00059410,-0.00069
 883,-0.00078249,0.00007727,-0.00010801,-0.00000895,-0.00037123,-0.0002
 4723,0.00047039,-0.01321928,-0.02877558,0.00263918,-0.00001769,0.00002
 468,0.00000301,0.00059405,0.00052516,0.00016057,-0.00002365,-0.0001662
 8,0.00000320,-0.00044580,-0.00028180,-0.00008656,0.00004424,0.00004561
 ,-0.00000128,0.00021480,-0.00004064,-0.00001266,0.00000244,0.00002031,
 -0.00001489,0.00012124,-0.00018390,-0.00014899,-0.00017902,0.00006554,
 0.00000698,-0.00067606,-0.00044832,0.00103601,-0.00909707,0.06419107,-
 0.00003923,-0.00008162,0.00004514,-0.00014522,-0.00039175,-0.00025692,
 0.00011736,0.00041321,0.00020333,-0.02407028,0.00164331,0.00792855,0.0
 0036197,0.00094417,-0.00285214,0.00246289,-0.00238230,-0.00287952,-0.0
 0001242,0.00031685,0.00023937,-0.00036829,0.00046154,-0.00235367,0.000
 28962,-0.00000758,0.00014809,-0.00001985,-0.00001372,-0.00009406,-0.00
 024620,0.00001768,0.00026778,0.00003948,-0.00019390,-0.00016031,-0.000
 08855,0.00011968,0.00007513,0.00932700,0.00399193,-0.04286780,-0.00002
 009,-0.00001952,-0.00006053,0.00022989,0.00001591,-0.00014541,-0.00002
 871,0.00002784,0.00007859,-0.00106177,0.00043992,-0.00016411,0.0000220
 1,0.00024165,-0.00009266,-0.00020214,-0.00023522,-0.00004954,-0.000040
 22,0.00004314,0.00002473,0.00007638,-0.00022988,-0.00013674,-0.0000724
 9,0.00004468,0.00003226,0.00007094,0.00129096,0.00211256,0.00561267,-0
 .00910893,0.10454003,0.00068494,0.00182039,0.00059952,-0.00791362,-0.0
 2733255,-0.00013236,-0.00362069,0.00071063,0.00075765,0.01298958,0.030
 84997,0.03497349,-0.00254290,-0.00170403,-0.00330802,-0.02337678,-0.00
 709069,-0.01337141,-0.00132245,0.00375220,0.00112015,0.00083178,-0.003
 38400,-0.00052039,0.00138010,-0.00076150,-0.00067208,0.00051728,-0.000
 30776,-0.00084972,0.00706048,-0.00161446,-0.00006819,-0.00046224,0.002
 18662,0.00086946,0.00015108,-0.00007954,-0.00049973,-0.02078395,-0.000
 22086,-0.01690702,-0.00034469,0.00006278,-0.00052542,-0.00294313,0.003
 34595,-0.00133108,0.00055739,0.00055621,-0.00038116,0.00156177,-0.0026
 2600,0.00046496,-0.00005613,0.00039258,0.00013054,0.00268835,-0.000549
 10,-0.00071256,-0.00069605,0.00010590,-0.00005727,0.00518446,0.0022644
 4,-0.00165449,-0.00012739,-0.00109334,0.00056853,0.00185410,0.00592939
 ,0.01225751,0.02621153,-0.00173891,-0.00453092,0.02165959,-0.00063829,
 -0.00106740,-0.00014158,-0.02026567,0.00801741,0.00437980,0.00011941,-
 0.00035849,-0.00013073,0.01133157,0.00005142,-0.00182368,-0.00058920,-
 0.00184163,-0.00145883,0.01311344,-0.05409528,-0.00598970,0.00008784,-
 0.00372270,-0.00052795,-0.00025408,-0.00135203,0.00030247,0.00031641,-
 0.00015918,-0.00005056,-0.00012914,0.00020588,0.00028101,-0.00360655,-
 0.00027743,0.00218003,0.00095361,-0.00179993,-0.00005682,0.00032168,-0
 .00002640,0.00007962,-0.00034036,0.00009891,0.00147406,-0.00000492,-0.
 00000922,-0.00001060,0.00167638,0.00044778,-0.00066529,0.00001675,-0.0
 0012621,0.00017443,0.00022307,-0.00004199,0.00013763,0.00000136,-0.000
 10999,0.00006092,-0.00019307,0.00005352,0.00006316,0.00006240,-0.00007
 280,0.00000032,-0.00196861,-0.00059449,0.00077596,-0.00023841,0.000398
 00,-0.00017906,0.01668228,-0.03382692,0.00394692,-0.00150362,0.0000614
 2,-0.00121225,0.00609567,0.08857179,-0.00094458,-0.00108757,0.00010475
 ,0.00741324,0.00389366,-0.00368751,0.00020927,-0.00018116,-0.00020524,
 0.00994805,-0.00581813,-0.00251920,-0.00007329,-0.00155635,-0.00057119
 ,-0.01163448,-0.00076906,-0.02528902,0.00085819,0.00117082,-0.00041207
 ,-0.00022643,0.00076259,0.00033924,0.00013148,0.00003887,-0.00004999,-
 0.00004320,-0.00006916,-0.00007543,0.00038744,0.00139746,0.00030041,0.
 00006976,-0.00007613,0.00018072,0.00012266,0.00001857,-0.00069575,0.00
 015639,0.00254829,0.00084259,0.00010969,-0.00002427,0.00028693,-0.0002
 8535,-0.00132026,0.00020637,-0.00015972,0.00002383,0.00004613,0.000078
 94,0.00031846,-0.00017782,0.00001959,-0.00014835,0.00004490,-0.0006208
 4,0.00013441,0.00020356,0.00011110,0.00000527,0.00003399,-0.00042994,-
 0.00029213,0.00001925,0.00018885,0.00004441,0.00001531,-0.01932894,0.0
 0398527,-0.05281694,-0.00414797,-0.00163389,-0.00137812,0.00862726,-0.
 00226204,0.07867582,-0.00008274,-0.00004875,0.00001199,0.00043910,0.00
 011963,-0.00019137,-0.00007421,-0.00005973,0.00004112,-0.00033776,-0.0
 0085694,0.00056735,-0.00000231,0.00020490,0.00003678,-0.00706161,0.003
 33686,-0.00203996,-0.00008238,-0.00002284,0.00000930,0.00005121,0.0004
 5014,-0.00005182,0.00003025,0.00000657,-0.00000941,0.00001328,-0.00000
 534,-0.00001570,0.00035954,-0.00019209,-0.00004761,-0.00018162,-0.0001
 5824,0.00012082,0.00001348,-0.00001361,-0.00000954,-0.00006767,0.00030
 354,-0.00035883,-0.00000123,0.00000259,-0.00000637,-0.00010121,0.00015
 260,-0.00004392,0.00000978,-0.00000799,-0.00001506,0.00004070,-0.00005
 120,-0.00006252,-0.00000703,0.00003531,-0.00000037,0.00014384,0.000029
 96,-0.00004735,-0.00001880,-0.00000812,0.00001685,0.00007153,0.0000810
 3,-0.00003616,-0.00000434,-0.00003418,0.00002844,-0.08875377,-0.085078
 20,0.11754587,-0.00002170,0.00001339,0.00031236,0.00353941,-0.01468089
 ,0.02029971,0.08754059,-0.00012215,-0.00004755,-0.00003424,0.00021673,
 -0.00004328,0.00024380,0.00004147,0.00008594,0.00004906,0.00015225,0.0
 0125027,-0.00045736,-0.00001788,-0.00012626,0.00002922,0.00268866,-0.0
 0049947,-0.00001101,-0.00000098,0.00007854,-0.00005457,0.00002626,-0.0
 0037399,0.00010545,-0.00003573,-0.00000898,0.00001138,0.00002150,-0.00
 000445,-0.00002261,0.00021948,-0.00029145,-0.00030732,-0.00017693,0.00
 020913,0.00037193,0.00008595,0.00003945,-0.00008608,0.00018455,-0.0003
 9785,0.00022857,-0.00000466,0.00000552,-0.00001030,-0.00024881,-0.0001
 7386,0.00007120,-0.00001262,0.00005235,0.00000677,-0.00003957,-0.00005
 008,0.00001918,0.00000840,-0.00000263,0.00001785,-0.00008289,-0.000066
 93,-0.00000164,-0.00000028,0.00001402,-0.00000145,-0.00003743,-0.00008
 362,-0.00002872,0.00001801,0.00001491,0.00002024,-0.09717863,-0.140870
 52,0.20345051,-0.00049781,0.00040756,0.00009001,-0.00142163,0.00019778
 ,-0.00282829,0.08957801,0.13428613,-0.00009244,-0.00010857,-0.00002718
 ,0.00034610,0.00071725,0.00008179,0.00010051,0.00004895,0.00008496,0.0
 0018905,0.00002877,-0.00062101,0.00007868,-0.00019652,0.00014441,-0.00
 413934,0.00044606,0.00055622,0.00007621,-0.00003212,-0.00004621,0.0000
 5253,-0.00024082,0.00011855,-0.00005644,0.00002295,-0.00000122,0.00000
 200,0.00001413,-0.00000886,0.00004660,-0.00003981,-0.00009232,0.000106
 32,0.00031814,-0.00002170,0.00000314,0.00002581,-0.00003088,-0.0002599
 0,-0.00009153,0.00024573,-0.00000505,-0.00000700,-0.00001641,-0.000109
 09,-0.00020606,0.00007557,-0.00000644,0.00002734,0.00000709,-0.0000895
 9,0.00010557,-0.00010429,0.00000729,-0.00001629,0.00002909,-0.00016261
 ,-0.00001330,-0.00001499,0.00002451,-0.00000420,0.00001221,-0.00019063
 ,-0.00010528,0.00000705,0.00003850,0.00003166,0.00000435,0.11963497,0.
 17801898,-0.32623781,0.00032772,0.00026728,0.00001975,0.00633223,-0.00
 092463,0.00050977,-0.13091027,-0.19123383,0.33999394,-0.00035249,-0.00
 077782,0.00008815,0.00175617,0.00213978,-0.00090747,0.00111735,0.00133
 447,0.00032801,0.00467064,-0.00082331,0.03739858,-0.00128115,-0.000996
 36,-0.00392387,0.00422941,-0.00868726,-0.00884390,0.00073164,0.0010606
 9,0.00081720,0.00103511,0.00170159,-0.00378116,0.00077874,-0.00010184,
 -0.00062942,0.00015401,0.00025032,-0.00047377,-0.00061017,0.00082470,0
 .00055388,0.00009599,-0.00035957,-0.00034302,-0.00024566,0.00052442,-0
 .00028895,-0.09726487,0.00752979,-0.00775838,-0.00019952,-0.00016225,-
 0.00020395,0.00022922,-0.00125480,0.00006718,-0.00014387,0.00012293,0.
 00006290,-0.00227000,0.00166439,-0.00116459,0.00010455,0.00012250,-0.0
 0006666,-0.00174350,-0.00063992,0.00007371,0.00008516,0.00010031,-0.00
 000714,-0.00089192,-0.00134282,-0.00029494,-0.00003660,0.00038770,-0.0
 0006744,0.02118126,-0.00443751,-0.00705391,-0.04908161,-0.01312869,0.0
 2213677,-0.01092640,0.00144735,0.00360237,-0.00162737,-0.00126889,-0.0
 0196058,0.30364006,0.00001752,0.00020374,-0.00011222,0.00034292,0.0004
 7249,0.00047097,-0.00002200,-0.00032908,-0.00010958,-0.00251794,-0.002
 34467,-0.00713686,-0.00023311,-0.00069850,-0.00006997,-0.00646542,0.00
 331275,0.00325622,0.00023352,-0.00023111,-0.00047902,-0.00076259,0.000
 22304,0.00008444,-0.00013763,0.00005735,0.00011201,-0.00005503,-0.0000
 6737,0.00015001,0.00106999,0.00053675,0.00002163,-0.00015099,0.0005046
 6,0.00026943,0.00055833,0.00008599,-0.00047499,0.01421776,0.01257484,0
 .00210465,0.00005576,0.00002438,0.00007701,-0.00095584,-0.00061661,0.0
 0021926,0.00009168,0.00016927,-0.00012521,0.00032512,0.00035241,0.0002
 2136,-0.00002616,-0.00014228,-0.00005670,-0.00020495,0.00033100,0.0000
 9672,0.00012264,-0.00008710,0.00000804,-0.00045172,0.00020869,0.000217
 19,0.00029579,-0.00004200,-0.00005750,-0.01423855,-0.00234566,-0.03967
 573,-0.00385970,-0.03215724,0.00571336,0.01267251,-0.00187949,-0.00255
 980,-0.00362163,-0.00451336,-0.00430586,-0.13102258,0.22957532,0.00023
 255,0.00019707,-0.00003223,0.00014858,0.00167229,0.00041178,0.00004397
 ,-0.00073548,-0.00027282,0.00085636,-0.00348087,-0.01889201,0.00070866
 ,0.00010016,0.00220483,-0.01224918,0.00592771,0.00792952,0.00012415,-0
 .00069668,-0.00075634,0.00021439,-0.00087526,0.00203682,-0.00058347,0.
 00013631,0.00023052,-0.00013840,-0.00005928,0.00032970,0.00106835,-0.0
 0039609,-0.00146740,-0.00023198,0.00082208,0.00020805,-0.00015859,-0.0
 0019077,0.00028454,0.02758595,-0.00354387,0.02359019,0.00013750,0.0000
 6415,0.00020210,-0.00067888,-0.00019761,0.00074489,0.00004532,-0.00008
 202,-0.00027057,0.00082840,-0.00019546,0.00056736,-0.00005039,-0.00022
 068,-0.00004797,0.00011941,0.00045780,0.00019206,0.00012808,-0.0000863
 0,-0.00003687,-0.00046388,0.00033484,0.00045413,0.00020973,-0.00004513
 ,-0.00013457,-0.03224937,-0.03971743,-0.06976094,-0.01930618,0.0140144
 3,-0.06269907,0.02478604,-0.00208581,-0.00556093,-0.00313115,-0.003879
 22,-0.00124925,0.13963005,-0.15754897,0.37071757,0.00005696,0.00011135
 ,0.00004620,-0.00083458,-0.00142293,-0.00003295,-0.00021693,0.00009349
 ,0.00004680,-0.00206096,0.00199465,0.00461533,-0.00011038,0.00057144,-
 0.00040406,0.00315037,-0.00009484,0.00023102,-0.00027536,0.00008062,0.
 00024956,0.00022559,0.00047023,-0.00048071,0.00017303,-0.00005139,-0.0
 0005233,0.00005000,-0.00000265,-0.00007504,-0.00036568,-0.00035301,0.0
 0015745,0.00004282,-0.00030225,0.00000407,-0.00000131,-0.00003463,0.00
 017968,-0.00702928,-0.00158104,-0.00401009,-0.00002682,-0.00000097,-0.
 00006024,0.00040027,0.00060089,-0.00024897,0.00003535,-0.00004726,0.00
 007479,-0.00006227,-0.00023667,-0.00006216,-0.00000597,0.00011214,0.00
 000486,0.00034509,-0.00010385,-0.00009749,-0.00008891,0.00002673,0.000
 01131,0.00044032,0.00010813,-0.00016049,-0.00013119,-0.00005515,0.0000
 6646,-0.04791799,-0.01442166,-0.00468491,0.01488166,0.00878430,0.01446
 882,-0.01152304,-0.00819587,-0.01426785,0.00580923,0.00805733,0.010657
 95,-0.04347618,0.01319065,0.00758738,0.08986493,-0.00012619,-0.0002047
 3,0.00008679,-0.00022559,-0.00126259,-0.00066665,-0.00012457,0.0005816
 7,0.00019247,0.00346850,0.00489822,0.01013675,-0.00031886,-0.00039242,
 -0.00057079,0.01087188,-0.00479357,-0.00580100,-0.00020745,0.00046015,
 0.00057851,0.00030533,-0.00034338,-0.00008137,0.00018676,-0.00007973,-
 0.00019589,0.00009859,0.00004717,-0.00020340,-0.00132819,-0.00024318,0
 .00107402,0.00007677,-0.00079574,-0.00046675,-0.00006511,0.00017424,0.
 00007706,-0.01341740,-0.00030915,-0.00486864,-0.00009148,-0.00004422,-
 0.00013301,0.00091476,0.00048119,-0.00053370,-0.00007197,-0.00005627,0
 .00023003,-0.00028429,-0.00024271,-0.00031027,0.00002606,0.00013182,0.
 00008924,0.00008714,-0.00043373,-0.00014270,-0.00015145,0.00009542,0.0
 0000229,0.00055749,-0.00021858,-0.00031156,-0.00027322,0.00002481,0.00
 009705,-0.00988430,-0.05196688,-0.01903313,0.02231241,-0.00116500,-0.0
 0371036,-0.02139060,0.00307938,0.00638914,0.01038967,0.01091242,0.0173
 8943,0.00273990,-0.03661151,0.00227764,-0.00140232,0.06634129,-0.00037
 516,-0.00012918,0.00001759,-0.00038355,-0.00375676,-0.00038810,-0.0003
 2199,0.00077568,0.00037413,0.00572145,0.00677178,0.02346981,-0.0007404
 6,-0.00044631,-0.00138570,0.02193130,-0.00823719,-0.01220162,-0.000343
 15,0.00100950,0.00101685,0.00061525,0.00037106,-0.00112852,0.00052640,
 -0.00016846,-0.00043318,0.00023765,0.00005154,-0.00046184,-0.00146082,
 0.00067690,0.00248052,0.00027125,-0.00143463,0.00001358,0.00048846,0.0
 0017476,-0.00078103,-0.02739561,0.00175635,-0.01099817,-0.00019353,-0.
 00005977,-0.00027677,0.00077694,0.00044744,-0.00128740,0.00000068,0.00
 015376,0.00038686,-0.00052528,-0.00023124,-0.00066101,0.00004621,0.000
 24310,0.00014079,0.00021657,-0.00054348,-0.00032211,-0.00020703,0.0001
 0959,0.00004385,0.00099668,-0.00017815,-0.00068391,-0.00027788,-0.0000
 4301,0.00022837,0.02678555,0.00669931,-0.04039699,0.04659557,-0.005616
 82,-0.00864550,-0.04588421,0.00346564,0.01160018,-0.00203421,-0.005944
 05,-0.01379314,-0.01514158,0.02301862,0.00887601,-0.00598304,-0.018186
 76,0.05179388,0.00006309,-0.00002604,0.00005129,-0.00019249,0.00006586
 ,-0.00004140,-0.00005629,-0.00003472,-0.00002163,0.00090272,-0.0005073
 4,0.00044371,0.00003138,0.00041978,0.00011954,0.00027412,0.00000704,0.
 00023488,-0.00012451,-0.00009086,0.00001061,0.00045192,0.00000507,-0.0
 0001821,-0.00000229,-0.00000581,-0.00003188,-0.00000881,0.00001023,0.0
 0001636,-0.00024056,-0.00046470,-0.00041509,0.00002804,-0.00003013,0.0
 0001527,-0.00017275,-0.00001689,0.00021977,-0.00527667,-0.00283815,0.0
 0394615,0.00000992,0.00000040,0.00001117,0.00029571,0.00039771,0.00009
 551,-0.00000165,-0.00012963,-0.00003120,0.00002672,-0.00014337,0.00004
 826,-0.00001127,0.00003735,-0.00001639,0.00018089,-0.00002448,-0.00000
 361,-0.00004013,0.00001430,-0.00000911,0.00015174,0.00005374,0.0000141
 5,-0.00008766,-0.00001734,-0.00000487,0.00058882,0.00131532,0.00210076
 ,-0.00553729,0.01783153,-0.02458178,-0.00023236,0.00015945,-0.00017140
 ,0.00036381,-0.00015169,-0.00004190,-0.12965804,0.12153167,-0.13521339
 ,-0.00134874,-0.00267226,-0.00394246,0.13962264,0.00004706,-0.00005452
 ,0.00004275,-0.00002121,0.00030967,-0.00011553,-0.00003055,0.00004482,
 -0.00002148,-0.00031648,-0.00001140,-0.00012413,-0.00000205,0.00010352
 ,0.00002611,-0.00015647,-0.00016800,0.00007422,-0.00005909,-0.00004947
 ,0.00005177,-0.00017216,0.00000454,-0.00009161,0.00001078,0.00000204,-
 0.00000517,-0.00001240,0.00001210,0.00001516,-0.00021829,-0.00029957,-
 0.00019585,0.00000844,-0.00003750,-0.00012327,-0.00018970,0.00006461,0
 .00018873,-0.00063383,0.00010711,0.00006095,0.00000347,-0.00000638,0.0
 0000070,0.00029494,0.00020201,0.00006253,-0.00006776,-0.00009642,-0.00
 000164,0.00001602,-0.00010484,-0.00000174,0.00000284,0.00003318,0.0000
 1301,0.00009070,-0.00006345,-0.00000971,-0.00003511,0.00002272,-0.0000
 0343,0.00008677,-0.00003569,0.00000379,-0.00009390,0.00001589,-0.00000
 203,-0.00108537,-0.00540856,-0.00515004,-0.00063325,-0.00222772,0.0017
 7117,0.00056973,0.00017827,-0.00010445,0.00013554,0.00000028,0.0000634
 7,0.14305278,-0.16656671,0.18803245,-0.00589544,0.01193563,-0.00074922
 ,-0.13469602,0.16209384,0.00002420,0.00001182,0.00000754,-0.00010709,-
 0.00005856,-0.00005456,-0.00006887,-0.00001424,-0.00001821,-0.00047102
 ,0.00035416,-0.00123983,-0.00004106,0.00002141,0.00011701,0.00020981,0
 .00007875,0.00013674,-0.00004292,-0.00003811,0.00005825,-0.00024435,-0
 .00006618,0.00006062,0.00001098,-0.00000947,0.00001197,-0.00001038,-0.
 00000985,0.00000514,-0.00013721,-0.00011330,0.00004332,0.00000325,-0.0
 0005084,-0.00011088,-0.00008430,-0.00000466,0.00013455,0.00541591,0.00
 057703,-0.00102448,0.00000142,0.00000348,-0.00000694,0.00017161,0.0001
 4254,-0.00006213,-0.00002420,-0.00001503,0.00005510,0.00009415,-0.0000
 8924,0.00001262,0.00000301,0.00000532,0.00001810,0.00010113,-0.0000081
 1,-0.00002870,-0.00001710,0.00000350,0.00000911,0.00008202,0.00002820,
 -0.00002713,-0.00004033,-0.00000448,0.00002281,0.00020855,-0.00546042,
 -0.00279061,-0.00256440,-0.00522636,0.00912076,-0.00008129,0.00019758,
 0.00002928,0.00002104,0.00018552,0.00037481,-0.15184808,0.17667147,-0.
 25779909,-0.00778136,0.01659555,-0.00659743,0.15721689,-0.18370751,0.2
 5954224\\0.00000030,0.00000039,-0.00000075,0.00000136,-0.00000009,-0.0
 0000067,-0.00000142,0.00000117,0.00000158,0.00000053,0.00000056,0.0000
 0386,-0.00000358,0.00000139,0.00000441,0.00000193,0.00000037,0.0000008
 6,0.00000044,-0.00000124,-0.00000062,-0.00000102,0.00000001,0.00000086
 ,0.00000064,-0.00000151,-0.00000384,-0.00000053,-0.00000126,-0.0000023
 6,0.00000226,0.00000045,-0.00000435,-0.00000087,0.00000043,-0.00000045
 ,0.00000126,0.00000014,-0.00000110,-0.00000139,0.00000006,-0.00000178,
 -0.00000004,-0.00000022,0.00000266,0.00000592,-0.00000446,-0.00000087,
 -0.00000247,0.00000253,-0.00000667,-0.00000144,-0.00000598,0.00000854,
 -0.00000049,-0.00000083,0.00000266,0.00000127,-0.00000389,0.00000174,0
 .00000107,0.00000003,-0.00000004,0.00001514,-0.00002542,0.00000297,-0.
 00001155,0.00002174,-0.00000724,-0.00001488,0.00000899,0.00003705,0.00
 000060,-0.00000065,-0.00000035,0.00000011,0.00000215,0.00000023,0.0000
 1286,0.00001262,-0.00002693,-0.00001533,-0.00000533,-0.00002149,-0.000
 00184,0.00000122,-0.00000281,0.00001115,-0.00000337,0.00001490\\\@


 FESTINA LENTE!
     - IMPERATOR AUGUSTUS 
 Job cpu time:       0 days  0 hours 46 minutes 37.0 seconds.
 File lengths (MBytes):  RWF=    220 Int=      0 D2E=      0 Chk=      6 Scr=      1
 Normal termination of Gaussian 09 at Thu Jan 12 18:16:52 2017.
