 Entering Gaussian System, Link 0=g09
 Initial command:
 /global/software/gaussian/g09.e01/l1.exe "/scratch/10447925.yak.local/Gau-32730.inp" -scrdir="/scratch/10447925.yak.local/"
 Entering Link 1 = /global/software/gaussian/g09.e01/l1.exe PID=     32731.
  
 Copyright (c) 1988,1990,1992,1993,1995,1998,2003,2009,2015,
            Gaussian, Inc.  All Rights Reserved.
  
 This is part of the Gaussian(R) 09 program.  It is based on
 the Gaussian(R) 03 system (copyright 2003, Gaussian, Inc.),
 the Gaussian(R) 98 system (copyright 1998, Gaussian, Inc.),
 the Gaussian(R) 94 system (copyright 1995, Gaussian, Inc.),
 the Gaussian 92(TM) system (copyright 1992, Gaussian, Inc.),
 the Gaussian 90(TM) system (copyright 1990, Gaussian, Inc.),
 the Gaussian 88(TM) system (copyright 1988, Gaussian, Inc.),
 the Gaussian 86(TM) system (copyright 1986, Carnegie Mellon
 University), and the Gaussian 82(TM) system (copyright 1983,
 Carnegie Mellon University). Gaussian is a federally registered
 trademark of Gaussian, Inc.
  
 This software contains proprietary and confidential information,
 including trade secrets, belonging to Gaussian, Inc.
  
 This software is provided under written license and may be
 used, copied, transmitted, or stored only in accord with that
 written license.
  
 The following legend is applicable only to US Government
 contracts under FAR:
  
                    RESTRICTED RIGHTS LEGEND
  
 Use, reproduction and disclosure by the US Government is
 subject to restrictions as set forth in subparagraphs (a)
 and (c) of the Commercial Computer Software - Restricted
 Rights clause in FAR 52.227-19.
  
 Gaussian, Inc.
 340 Quinnipiac St., Bldg. 40, Wallingford CT 06492
  
  
 ---------------------------------------------------------------
 Warning -- This program may not be used in any manner that
 competes with the business of Gaussian, Inc. or will provide
 assistance to any competitor of Gaussian, Inc.  The licensee
 of this program is prohibited from giving any competitor of
 Gaussian, Inc. access to this program.  By using this program,
 the user acknowledges that Gaussian, Inc. is engaged in the
 business of creating and licensing software in the field of
 computational chemistry and represents and warrants to the
 licensee that it is not a competitor of Gaussian, Inc. and that
 it will not use this program in any manner prohibited above.
 ---------------------------------------------------------------
  

 Cite this work as:
 Gaussian 09, Revision E.01,
 M. J. Frisch, G. W. Trucks, H. B. Schlegel, G. E. Scuseria, 
 M. A. Robb, J. R. Cheeseman, G. Scalmani, V. Barone, B. Mennucci, 
 G. A. Petersson, H. Nakatsuji, M. Caricato, X. Li, H. P. Hratchian, 
 A. F. Izmaylov, J. Bloino, G. Zheng, J. L. Sonnenberg, M. Hada, 
 M. Ehara, K. Toyota, R. Fukuda, J. Hasegawa, M. Ishida, T. Nakajima, 
 Y. Honda, O. Kitao, H. Nakai, T. Vreven, J. A. Montgomery, Jr., 
 J. E. Peralta, F. Ogliaro, M. Bearpark, J. J. Heyd, E. Brothers, 
 K. N. Kudin, V. N. Staroverov, T. Keith, R. Kobayashi, J. Normand, 
 K. Raghavachari, A. Rendell, J. C. Burant, S. S. Iyengar, J. Tomasi, 
 M. Cossi, N. Rega, J. M. Millam, M. Klene, J. E. Knox, J. B. Cross, 
 V. Bakken, C. Adamo, J. Jaramillo, R. Gomperts, R. E. Stratmann, 
 O. Yazyev, A. J. Austin, R. Cammi, C. Pomelli, J. W. Ochterski, 
 R. L. Martin, K. Morokuma, V. G. Zakrzewski, G. A. Voth, 
 P. Salvador, J. J. Dannenberg, S. Dapprich, A. D. Daniels, 
 O. Farkas, J. B. Foresman, J. V. Ortiz, J. Cioslowski, 
 and D. J. Fox, Gaussian, Inc., Wallingford CT, 2013.
 
 ******************************************
 Gaussian 09:  ES64L-G09RevE.01 30-Nov-2015
                 8-Jan-2017 
 ******************************************
 %NPROCS=12
 Will use up to   12 processors via shared memory.
 ----------------------------------------------------------------------
 # opt=(TS,CalcFC,NoEigenTest,MaxCycle=500,cartesian) Freq B3LYP 6-31G(
 d)
 ----------------------------------------------------------------------
 1/5=1,6=500,10=4,11=1,14=-1,18=10,26=3,38=1/1,3;
 2/12=2,17=6,18=5,29=2,40=1/2;
 3/5=1,6=6,7=1,11=2,16=1,25=1,30=1,71=2,74=-5,140=1/1,2,3;
 4//1;
 5/5=2,38=5/2;
 8/6=4,10=90,11=11/1;
 11/6=1,8=1,9=11,15=111,16=1/1,2,10;
 10/6=1,13=1/2;
 6/7=2,8=2,9=2,10=2,28=1/1;
 7/7=1,10=1,18=20,25=1/1,2,3,16;
 1/5=1,6=500,10=4,11=1,14=-1,18=10,26=3/3(2);
 2/29=1/2;
 99/12=1/99;
 2/29=1/2;
 3/5=1,6=6,7=1,11=2,16=1,25=1,30=1,71=1,74=-5/1,2,3;
 4/5=5,16=3,69=1/1;
 5/5=2,38=5/2;
 7/7=1/1,2,3,16;
 1/5=1,6=500,11=1,14=-1,18=10,26=3/3(-5);
 2/29=1/2;
 6/7=2,8=2,9=2,10=2,19=2,28=1/1;
 99/9=1,12=1/99;
 ------------------------
 boat1_Beta_B3LYP_6-31G_d
 ------------------------
 Symbolic Z-matrix:
 Charge =  0 Multiplicity = 1
 H                    -1.69456   0.1766    1.55586 
 C                    -1.14362  -0.18505   0.67865 
 C                     1.04273   0.98525   0.18482 
 C                     1.08592  -1.57814   0.2856 
 C                     1.62746  -0.33332  -0.30587 
 O                    -0.36679  -1.02651   1.25038 
 C                    -0.47091   1.01418  -0.00832 
 H                     1.79778  -2.0943    0.93948 
 H                     1.52563  -0.40968  -1.3955 
 H                    -0.68797   1.02811  -1.08377 
 C                    -2.15522  -0.87445  -0.24166 
 H                    -2.59999  -1.73849   0.26333 
 H                    -1.68288  -1.23212  -1.16148 
 O                     0.62466  -2.51025  -0.68292 
 H                     1.30681   1.16067   1.23531 
 O                    -3.19046   0.04079  -0.59382 
 H                    -3.83053  -0.45857  -1.13292 
 O                     3.04581  -0.33066  -0.05879 
 H                     3.35006   0.54432  -0.37565 
 O                     1.64907   2.06719  -0.54767 
 H                     1.11511   2.85333  -0.31041 
 O                    -0.97198   2.26171   0.49742 
 H                    -1.93776   2.24432   0.34511 
 O                    -1.00069  -3.26002   0.65262 
 H                     0.60557  -3.51526  -1.33785 
 H                    -0.68772  -2.13331   0.91571 
 H                    -1.56078  -3.53067   1.38381 
 O                    -0.58142  -3.59811  -1.32118 
 H                    -1.39644  -3.61643  -0.42703 
 H                    -0.9703   -3.89445  -2.14735 
 

 GradGradGradGradGradGradGradGradGradGradGradGradGradGradGradGradGradGrad
 Berny optimization.
 Initialization pass.
 No Z-matrix variables, so optimization will use Cartesian coordinates.
 Trust Radius=3.00D-01 FncErr=1.00D-07 GrdErr=1.00D-06
 Number of steps in this run=    180 maximum allowed number of steps=    180.
 Search for a saddle point of order  1.
 GradGradGradGradGradGradGradGradGradGradGradGradGradGradGradGradGradGrad

 ---------------------------------------------------------------------------------------------------
                            Z-MATRIX (ANGSTROMS AND DEGREES)
   CD    Cent   Atom    N1       Length/X        N2       Alpha/Y        N3        Beta/Z          J
 ---------------------------------------------------------------------------------------------------
      1      1  H        0  -1.694558          0.176603          1.555856
      2      2  C        0  -1.143616         -0.185046          0.678648
      3      3  C        0   1.042732          0.985253          0.184818
      4      4  C        0   1.085924         -1.578137          0.285600
      5      5  C        0   1.627464         -0.333323         -0.305873
      6      6  O        0  -0.366788         -1.026512          1.250377
      7      7  C        0  -0.470915          1.014180         -0.008323
      8      8  H        0   1.797782         -2.094304          0.939480
      9      9  H        0   1.525627         -0.409684         -1.395500
     10     10  H        0  -0.687974          1.028110         -1.083769
     11     11  C        0  -2.155217         -0.874448         -0.241663
     12     12  H        0  -2.599992         -1.738494          0.263335
     13     13  H        0  -1.682880         -1.232118         -1.161479
     14     14  O        0   0.624657         -2.510248         -0.682919
     15     15  H        0   1.306810          1.160674          1.235313
     16     16  O        0  -3.190461          0.040792         -0.593818
     17     17  H        0  -3.830528         -0.458568         -1.132915
     18     18  O        0   3.045805         -0.330662         -0.058787
     19     19  H        0   3.350060          0.544315         -0.375653
     20     20  O        0   1.649073          2.067188         -0.547671
     21     21  H        0   1.115110          2.853332         -0.310409
     22     22  O        0  -0.971983          2.261705          0.497425
     23     23  H        0  -1.937758          2.244322          0.345111
     24     24  O        0  -1.000692         -3.260016          0.652621
     25     25  H        0   0.605574         -3.515261         -1.337851
     26     26  H        0  -0.687717         -2.133309          0.915705
     27     27  H        0  -1.560781         -3.530673          1.383814
     28     28  O        0  -0.581422         -3.598106         -1.321183
     29     29  H        0  -1.396442         -3.616430         -0.427032
     30     30  H        0  -0.970304         -3.894446         -2.147351
 ---------------------------------------------------------------------------------------------------
                         Z-Matrix orientation:                         
 ---------------------------------------------------------------------
 Center     Atomic      Atomic             Coordinates (Angstroms)
 Number     Number       Type             X           Y           Z
 ---------------------------------------------------------------------
      1          1           0       -1.694558    0.176603    1.555856
      2          6           0       -1.143616   -0.185046    0.678648
      3          6           0        1.042732    0.985253    0.184818
      4          6           0        1.085924   -1.578137    0.285600
      5          6           0        1.627464   -0.333323   -0.305873
      6          8           0       -0.366788   -1.026512    1.250377
      7          6           0       -0.470915    1.014180   -0.008323
      8          1           0        1.797782   -2.094304    0.939480
      9          1           0        1.525627   -0.409684   -1.395500
     10          1           0       -0.687974    1.028110   -1.083769
     11          6           0       -2.155217   -0.874448   -0.241663
     12          1           0       -2.599992   -1.738494    0.263335
     13          1           0       -1.682880   -1.232118   -1.161479
     14          8           0        0.624657   -2.510248   -0.682919
     15          1           0        1.306810    1.160674    1.235313
     16          8           0       -3.190461    0.040792   -0.593818
     17          1           0       -3.830528   -0.458568   -1.132915
     18          8           0        3.045805   -0.330662   -0.058787
     19          1           0        3.350060    0.544315   -0.375653
     20          8           0        1.649073    2.067188   -0.547671
     21          1           0        1.115110    2.853332   -0.310409
     22          8           0       -0.971983    2.261705    0.497425
     23          1           0       -1.937758    2.244322    0.345111
     24          8           0       -1.000692   -3.260016    0.652621
     25          1           0        0.605574   -3.515261   -1.337851
     26          1           0       -0.687717   -2.133309    0.915705
     27          1           0       -1.560781   -3.530673    1.383814
     28          8           0       -0.581422   -3.598106   -1.321183
     29          1           0       -1.396442   -3.616430   -0.427032
     30          1           0       -0.970304   -3.894446   -2.147351
 ---------------------------------------------------------------------
                    Distance matrix (angstroms):
                    1          2          3          4          5
     1  H    0.000000
     2  C    1.097188   0.000000
     3  C    3.166452   2.528554   0.000000
     4  C    3.524733   2.658202   2.565734   0.000000
     5  C    3.842120   2.944512   1.523592   1.480766   0.000000
     6  O    1.817629   1.280000   2.677566   1.829060   2.622874
     7  C    2.155341   1.537075   1.526194   3.038132   2.511473
     8  H    4.211102   3.516407   3.259339   1.095778   2.163554
     9  H    4.407247   3.387833   2.162508   2.093972   1.097036
    10  H    2.950575   2.187572   2.146274   3.437210   2.796404
    11  C    2.132602   1.531530   3.723876   3.358300   3.821729
    12  H    2.481535   2.169497   4.549110   3.689469   4.491090
    13  H    3.060807   2.184773   3.762740   3.143253   3.535289
    14  O    4.196432   3.222921   3.625781   1.421136   2.426271
    15  H    3.174800   2.850513   1.097292   2.907204   2.170277
    16  O    2.622455   2.420691   4.406609   4.656369   4.840999
    17  H    3.492177   3.252087   5.250686   5.238045   5.521717
    18  O    5.033431   4.256320   2.408999   2.348602   1.439705
    19  H    5.414251   4.672969   2.415019   3.173070   1.934543
    20  O    4.379384   3.791507   1.440407   3.781518   2.412755
    21  H    4.306049   3.913032   1.933962   4.471465   3.227584
    22  O    2.447456   2.459449   2.405437   4.361679   3.759865
    23  H    2.408425   2.577545   3.239486   4.874155   4.447341
    24  O    3.620447   3.078400   4.734631   2.705067   4.048635
    25  H    5.224366   4.268052   4.771190   2.572698   3.497709
    26  H    2.599849   2.014886   3.640615   1.962409   3.176833
    27  H    3.713676   3.444489   5.348781   3.467495   4.821100
    28  O    4.874921   3.995543   5.090491   3.072795   4.070484
    29  H    4.290433   3.613979   5.243989   3.290080   4.465141
    30  H    5.550831   4.666471   5.770857   3.938605   4.777137
                    6          7          8          9         10
     6  O    0.000000
     7  C    2.399915   0.000000
     8  H    2.433557   3.963331   0.000000
     9  H    3.310948   2.817415   2.892083   0.000000
    10  H    3.126159   1.097220   4.474594   2.657905   0.000000
    11  C    2.334049   2.541306   4.302249   3.885352   2.545913
    12  H    2.543299   3.490556   4.463652   4.640927   3.622789
    13  H    2.755254   2.800800   4.156007   3.320494   2.470730
    14  O    2.630983   3.751927   2.044850   2.394137   3.795215
    15  H    2.754077   2.174488   3.305065   3.071658   3.061842
    16  O    3.537417   2.947239   5.638457   4.804905   2.734463
    17  H    4.242657   3.836756   6.216777   5.362811   3.476819
    18  O    3.720741   3.765430   2.380028   2.025830   4.103408
    19  H    4.350452   3.867241   3.331885   2.297555   4.128099
    20  O    4.107025   2.427771   4.421736   2.620868   2.613211
    21  H    4.436808   2.447287   5.148531   3.463123   2.679670
    22  O    3.427181   1.436373   5.180910   4.117953   2.025486
    23  H    3.739760   1.946739   5.755972   4.697713   2.254513
    24  O    2.397434   4.357323   3.045099   4.324521   4.636903
    25  H    3.719985   4.841726   2.937127   3.239511   4.730755
    26  H    1.200000   3.287479   2.485918   3.634755   3.740650
    27  H    2.777454   4.876632   3.679747   5.195294   5.256735
    28  O    3.643088   4.796769   3.610073   3.822462   4.633529
    29  H    3.252932   4.740725   3.793058   4.445182   4.743942
    30  H    4.487074   5.377680   4.520103   4.351841   5.044053
                   11         12         13         14         15
    11  C    0.000000
    12  H    1.095182   0.000000
    13  H    1.094117   1.768504   0.000000
    14  O    3.255495   3.448095   2.680926   0.000000
    15  H    4.278880   4.961151   4.517556   4.197692   0.000000
    16  O    1.425976   2.061364   2.053129   4.590302   4.982500
    17  H    1.942667   2.258748   2.282890   4.925501   5.884105
    18  O    5.232569   5.827588   4.938524   3.316941   2.631137
    19  H    5.686732   6.404892   5.394787   4.105191   2.673945
    20  O    4.818660   5.761554   4.729069   4.692616   2.029272
    21  H    4.959446   5.934310   5.024338   5.398824   2.300238
    22  O    3.432455   4.325136   3.932447   5.168560   2.636218
    23  H    3.180930   4.038324   3.797422   5.498068   3.534682
    24  O    2.797071   2.241502   2.805122   2.233288   5.020617
    25  H    3.974605   3.999543   3.237417   1.199729   5.383054
    26  H    2.253395   2.058704   2.473295   2.102382   3.864015
    27  H    3.170341   2.355279   3.431732   3.176286   5.500352
    28  O    3.325734   3.169145   2.614692   1.745119   5.722507
    29  H    2.851064   2.334905   2.511255   2.318180   5.735128
    30  H    3.762453   3.621521   2.927063   2.569915   6.494760
                   16         17         18         19         20
    16  O    0.000000
    17  H    0.974511   0.000000
    18  O    6.270187   6.960896   0.000000
    19  H    6.563501   7.289723   0.979061   0.000000
    20  O    5.246856   6.062011   2.817721   2.289561   0.000000
    21  H    5.150596   6.008705   3.732119   3.214159   0.979506
    22  O    3.323388   4.269564   4.813768   4.731992   2.828427
    23  H    2.703035   3.615626   5.624018   5.600941   3.700513
    24  O    4.152593   4.363968   5.045925   5.870207   6.069684
    25  H    5.254424   5.391138   4.210987   4.993815   5.733848
    26  H    3.642678   4.108389   4.258915   5.014072   5.024563
    27  H    4.395708   4.574222   5.791529   6.619488   6.735715
    28  O    4.536267   4.522038   5.042481   5.788803   6.137507
    29  H    4.076959   4.049091   5.537639   6.312189   6.449282
    30  H    4.777934   4.584235   5.761232   6.442597   6.705311
                   21         22         23         24         25
    21  H    0.000000
    22  O    2.314860   0.000000
    23  H    3.181289   0.977867   0.000000
    24  O    6.540418   5.523976   5.591994   0.000000
    25  H    6.471031   6.263406   6.517184   2.570450   0.000000
    26  H    5.442438   4.424015   4.588227   1.198598   2.942942
    27  H    7.126451   5.889313   5.879760   0.960000   3.478619
    28  O    6.746921   6.147948   6.224962   2.045970   1.190000
    29  H    6.941133   5.965506   5.936130   1.203868   2.201793
    30  H    7.297658   6.700226   6.695730   2.871109   1.811757
                   26         27         28         29         30
    26  H    0.000000
    27  H    1.712891   0.000000
    28  O    2.675930   2.877621   0.000000
    29  H    2.122472   1.820310   1.210000   0.000000
    30  H    3.544542   3.598628   0.960000   1.793986   0.000000
 Stoichiometry    C6H16O8
 Framework group  C1[X(C6H16O8)]
 Deg. of freedom    84
 Full point group                 C1      NOp   1
 Largest Abelian subgroup         C1      NOp   1
 Largest concise Abelian subgroup C1      NOp   1
                         Standard orientation:                         
 ---------------------------------------------------------------------
 Center     Atomic      Atomic             Coordinates (Angstroms)
 Number     Number       Type             X           Y           Z
 ---------------------------------------------------------------------
      1          1           0        0.145176    1.866044    1.476362
      2          6           0       -0.003626    1.156382    0.652919
      3          6           0        1.955141   -0.352878    0.124760
      4          6           0       -0.328382   -1.474607    0.456785
      5          6           0        0.985118   -1.473924   -0.226871
      6          8           0       -0.389467    0.135693    1.322038
      7          6           0        1.318618    1.012908   -0.117591
      8          1           0       -0.443531   -2.292902    1.176412
      9          1           0        0.798782   -1.487252   -1.307885
     10          1           0        1.165130    1.142914   -1.196216
     11          6           0       -1.121029    1.715077   -0.233002
     12          1           0       -2.055905    1.783095    0.333392
     13          1           0       -1.302863    1.075217   -1.101683
     14          8           0       -1.431523   -1.519084   -0.438049
     15          1           0        2.297665   -0.446521    1.163008
     16          8           0       -0.764737    3.015069   -0.698280
     17          1           0       -1.525705    3.344615   -1.210138
     18          8           0        1.612855   -2.736646    0.063352
     19          1           0        2.510034   -2.660598   -0.321156
     20          8           0        3.140179   -0.489340   -0.682603
     21          1           0        3.635238    0.342652   -0.533813
     22          8           0        2.261564    2.029237    0.258039
     23          1           0        1.821181    2.883494    0.077679
     24          8           0       -2.713739   -0.281277    0.907809
     25          1           0       -2.389337   -1.972760   -1.000296
     26          1           0       -1.546769   -0.067363    1.078273
     27          1           0       -3.148288    0.158149    1.642433
     28          8           0       -2.972151   -0.935334   -1.013499
     29          1           0       -3.277761   -0.147644   -0.147331
     30          1           0       -3.461934   -0.765432   -1.821488
 ---------------------------------------------------------------------
 Rotational constants (GHZ):      0.7670926      0.5841597      0.3851093
 Standard basis: 6-31G(d) (6D, 7F)
 There are   242 symmetry adapted cartesian basis functions of A   symmetry.
 There are   242 symmetry adapted basis functions of A   symmetry.
   242 basis functions,   456 primitive gaussians,   242 cartesian basis functions
    58 alpha electrons       58 beta electrons
       nuclear repulsion energy      1138.5040114752 Hartrees.
 NAtoms=   30 NActive=   30 NUniq=   30 SFac= 1.00D+00 NAtFMM=   60 NAOKFM=F Big=F
 Integral buffers will be    131072 words long.
 Raffenetti 2 integral format.
 Two-electron integral symmetry is turned on.
 One-electron integrals computed using PRISM.
 NBasis=   242 RedAO= T EigKep=  1.52D-03  NBF=   242
 NBsUse=   242 1.00D-06 EigRej= -1.00D+00 NBFU=   242
 ExpMin= 1.61D-01 ExpMax= 5.48D+03 ExpMxC= 8.25D+02 IAcc=1 IRadAn=         1 AccDes= 0.00D+00
 Harris functional with IExCor=  402 and IRadAn=       1 diagonalized for initial guess.
 HarFok:  IExCor=  402 AccDes= 0.00D+00 IRadAn=         1 IDoV= 1 UseB2=F ITyADJ=14
 ICtDFT=  3500011 ScaDFX=  1.000000  1.000000  1.000000  1.000000
 FoFCou: FMM=F IPFlag=           0 FMFlag=      100000 FMFlg1=           0
         NFxFlg=           0 DoJE=T BraDBF=F KetDBF=T FulRan=T
         wScrn=  0.000000 ICntrl=     500 IOpCl=  0 I1Cent=   200000004 NGrid=           0
         NMat0=    1 NMatS0=      1 NMatT0=    0 NMatD0=    1 NMtDS0=    0 NMtDT0=    0
 Petite list used in FoFCou.
 Requested convergence on RMS density matrix=1.00D-08 within 128 cycles.
 Requested convergence on MAX density matrix=1.00D-06.
 Requested convergence on             energy=1.00D-06.
 No special actions if energy rises.
 Integral accuracy reduced to 1.0D-05 until final iterations.
 Initial convergence to 1.0D-05 achieved.  Increase integral accuracy.
 SCF Done:  E(RB3LYP) =  -839.680964175     A.U. after   17 cycles
            NFock= 17  Conv=0.52D-08     -V/T= 2.0071
 DoSCS=F DFT=T ScalE2(SS,OS)=  1.000000  1.000000
 Range of M.O.s used for correlation:     1   242
 NBasis=   242 NAE=    58 NBE=    58 NFC=     0 NFV=     0
 NROrb=    242 NOA=    58 NOB=    58 NVA=   184 NVB=   184
 Symmetrizing basis deriv contribution to polar:
 IMax=3 JMax=2 DiffMx= 0.00D+00
 G2DrvN: will do    31 centers at a time, making    1 passes.
 Calling FoFCou, ICntrl=  3107 FMM=F I1Cent=   0 AccDes= 0.00D+00.
 End of G2Drv F.D. properties file   721 does not exist.
 End of G2Drv F.D. properties file   722 does not exist.
 End of G2Drv F.D. properties file   788 does not exist.
          IDoAtm=111111111111111111111111111111
          Differentiating once with respect to nuclear coordinates.
          There are    93 degrees of freedom in the 1st order CPHF.  IDoFFX=6 NUNeed=     0.
     87 vectors produced by pass  0 Test12= 1.15D-14 1.08D-09 XBig12= 1.34D-01 6.58D-02.
 AX will form    87 AO Fock derivatives at one time.
     87 vectors produced by pass  1 Test12= 1.15D-14 1.08D-09 XBig12= 1.86D-02 2.04D-02.
     87 vectors produced by pass  2 Test12= 1.15D-14 1.08D-09 XBig12= 1.37D-04 1.88D-03.
     87 vectors produced by pass  3 Test12= 1.15D-14 1.08D-09 XBig12= 3.41D-07 7.89D-05.
     87 vectors produced by pass  4 Test12= 1.15D-14 1.08D-09 XBig12= 5.10D-10 2.13D-06.
     72 vectors produced by pass  5 Test12= 1.15D-14 1.08D-09 XBig12= 4.54D-13 5.54D-08.
      3 vectors produced by pass  6 Test12= 1.15D-14 1.08D-09 XBig12= 4.06D-16 1.72D-09.
 InvSVY:  IOpt=1 It=  1 EMax= 5.55D-16
 Solved reduced A of dimension   510 with    93 vectors.
 End of Minotr F.D. properties file   721 does not exist.
 End of Minotr F.D. properties file   722 does not exist.
 End of Minotr F.D. properties file   788 does not exist.

 **********************************************************************

            Population analysis using the SCF density.

 **********************************************************************

 Orbital symmetries:
       Occupied  (A) (A) (A) (A) (A) (A) (A) (A) (A) (A) (A) (A)
                 (A) (A) (A) (A) (A) (A) (A) (A) (A) (A) (A) (A)
                 (A) (A) (A) (A) (A) (A) (A) (A) (A) (A) (A) (A)
                 (A) (A) (A) (A) (A) (A) (A) (A) (A) (A) (A) (A)
                 (A) (A) (A) (A) (A) (A) (A) (A) (A) (A)
       Virtual   (A) (A) (A) (A) (A) (A) (A) (A) (A) (A) (A) (A)
                 (A) (A) (A) (A) (A) (A) (A) (A) (A) (A) (A) (A)
                 (A) (A) (A) (A) (A) (A) (A) (A) (A) (A) (A) (A)
                 (A) (A) (A) (A) (A) (A) (A) (A) (A) (A) (A) (A)
                 (A) (A) (A) (A) (A) (A) (A) (A) (A) (A) (A) (A)
                 (A) (A) (A) (A) (A) (A) (A) (A) (A) (A) (A) (A)
                 (A) (A) (A) (A) (A) (A) (A) (A) (A) (A) (A) (A)
                 (A) (A) (A) (A) (A) (A) (A) (A) (A) (A) (A) (A)
                 (A) (A) (A) (A) (A) (A) (A) (A) (A) (A) (A) (A)
                 (A) (A) (A) (A) (A) (A) (A) (A) (A) (A) (A) (A)
                 (A) (A) (A) (A) (A) (A) (A) (A) (A) (A) (A) (A)
                 (A) (A) (A) (A) (A) (A) (A) (A) (A) (A) (A) (A)
                 (A) (A) (A) (A) (A) (A) (A) (A) (A) (A) (A) (A)
                 (A) (A) (A) (A) (A) (A) (A) (A) (A) (A) (A) (A)
                 (A) (A) (A) (A) (A) (A) (A) (A) (A) (A) (A) (A)
                 (A) (A) (A) (A)
 The electronic state is 1-A.
 Alpha  occ. eigenvalues --  -19.17227 -19.15383 -19.14854 -19.14363 -19.13429
 Alpha  occ. eigenvalues --  -19.13376 -19.11363 -19.08227 -10.27616 -10.23666
 Alpha  occ. eigenvalues --  -10.23367 -10.23291 -10.22954 -10.22657  -1.09015
 Alpha  occ. eigenvalues --   -1.03194  -1.02905  -1.02360  -1.01195  -0.99504
 Alpha  occ. eigenvalues --   -0.97479  -0.92080  -0.77626  -0.74782  -0.69367
 Alpha  occ. eigenvalues --   -0.63896  -0.62939  -0.57278  -0.56000  -0.55066
 Alpha  occ. eigenvalues --   -0.54218  -0.52965  -0.51291  -0.49630  -0.47857
 Alpha  occ. eigenvalues --   -0.46894  -0.46065  -0.43696  -0.42831  -0.42465
 Alpha  occ. eigenvalues --   -0.41546  -0.40253  -0.37419  -0.36566  -0.35910
 Alpha  occ. eigenvalues --   -0.34799  -0.34299  -0.33009  -0.32011  -0.30769
 Alpha  occ. eigenvalues --   -0.29107  -0.27740  -0.27217  -0.26879  -0.25931
 Alpha  occ. eigenvalues --   -0.25398  -0.22067  -0.20298
 Alpha virt. eigenvalues --   -0.01045   0.05080   0.06050   0.07920   0.09618
 Alpha virt. eigenvalues --    0.10346   0.10955   0.11579   0.13791   0.14070
 Alpha virt. eigenvalues --    0.15728   0.15775   0.16975   0.17738   0.18468
 Alpha virt. eigenvalues --    0.19541   0.20639   0.20755   0.22753   0.23392
 Alpha virt. eigenvalues --    0.25664   0.27469   0.28646   0.30329   0.32365
 Alpha virt. eigenvalues --    0.32665   0.33729   0.39274   0.50238   0.53211
 Alpha virt. eigenvalues --    0.55565   0.56156   0.57129   0.60118   0.62298
 Alpha virt. eigenvalues --    0.62630   0.64381   0.65774   0.67183   0.68123
 Alpha virt. eigenvalues --    0.69360   0.69999   0.71073   0.73361   0.75482
 Alpha virt. eigenvalues --    0.76502   0.77958   0.79040   0.80175   0.81024
 Alpha virt. eigenvalues --    0.81413   0.83191   0.84002   0.85105   0.86860
 Alpha virt. eigenvalues --    0.87993   0.88142   0.88847   0.90463   0.91074
 Alpha virt. eigenvalues --    0.91672   0.92938   0.93784   0.94285   0.96785
 Alpha virt. eigenvalues --    0.99461   1.00938   1.01145   1.03305   1.04625
 Alpha virt. eigenvalues --    1.05067   1.06464   1.07718   1.08538   1.09874
 Alpha virt. eigenvalues --    1.11045   1.11357   1.14380   1.17044   1.19098
 Alpha virt. eigenvalues --    1.20932   1.21938   1.25387   1.27119   1.30217
 Alpha virt. eigenvalues --    1.33450   1.34108   1.36465   1.37863   1.39383
 Alpha virt. eigenvalues --    1.41160   1.44349   1.46740   1.49601   1.52132
 Alpha virt. eigenvalues --    1.52472   1.54742   1.57543   1.60455   1.61611
 Alpha virt. eigenvalues --    1.63183   1.65950   1.67162   1.68133   1.69723
 Alpha virt. eigenvalues --    1.71575   1.73269   1.75715   1.78119   1.78787
 Alpha virt. eigenvalues --    1.79069   1.80295   1.81500   1.83421   1.84612
 Alpha virt. eigenvalues --    1.85575   1.88583   1.89021   1.89752   1.91940
 Alpha virt. eigenvalues --    1.93370   1.94372   1.97105   1.97893   2.00820
 Alpha virt. eigenvalues --    2.03481   2.06145   2.07317   2.08905   2.10475
 Alpha virt. eigenvalues --    2.12281   2.13285   2.15583   2.18759   2.20610
 Alpha virt. eigenvalues --    2.22189   2.24766   2.26039   2.26591   2.27952
 Alpha virt. eigenvalues --    2.30310   2.34249   2.35275   2.36084   2.42720
 Alpha virt. eigenvalues --    2.44432   2.45933   2.46547   2.49842   2.50431
 Alpha virt. eigenvalues --    2.51521   2.56103   2.57289   2.58694   2.60567
 Alpha virt. eigenvalues --    2.63816   2.64888   2.68682   2.71795   2.73240
 Alpha virt. eigenvalues --    2.75993   2.81387   2.85723   2.88606   2.95841
 Alpha virt. eigenvalues --    2.96664   2.98798   3.04768   3.10657   3.11855
 Alpha virt. eigenvalues --    3.73104   3.76899   3.79363   3.88871   3.91518
 Alpha virt. eigenvalues --    3.94176   3.96159   4.26058   4.33950   4.40948
 Alpha virt. eigenvalues --    4.46516   4.52794   4.70592   4.76339
          Condensed to atoms (all electrons):
               1          2          3          4          5          6
     1  H    0.635307   0.371219  -0.002307   0.004167  -0.000184  -0.055798
     2  C    0.371219   4.940300  -0.035148  -0.017443  -0.005276   0.179213
     3  C   -0.002307  -0.035148   5.011967  -0.030721   0.280781   0.002626
     4  C    0.004167  -0.017443  -0.030721   4.919938   0.303036   0.113109
     5  C   -0.000184  -0.005276   0.280781   0.303036   4.977434  -0.029737
     6  O   -0.055798   0.179213   0.002626   0.113109  -0.029737   8.500380
     7  C   -0.054176   0.270764   0.286840  -0.014768  -0.021556  -0.041985
     8  H   -0.000097   0.001416   0.001211   0.342125  -0.055658  -0.015435
     9  H    0.000049   0.000102  -0.042842  -0.060441   0.353380   0.001682
    10  H    0.006214  -0.057321  -0.045570   0.001195  -0.005199   0.003291
    11  C   -0.051663   0.327654   0.001799   0.000014  -0.000375  -0.042991
    12  H   -0.008494  -0.030453  -0.000093  -0.000709   0.000033  -0.001065
    13  H    0.006340  -0.030662  -0.000089   0.002638  -0.000800   0.002636
    14  O   -0.000202   0.005875   0.002046   0.232738  -0.037955  -0.038064
    15  H    0.000835  -0.002175   0.343536  -0.001312  -0.041049   0.002899
    16  O    0.003775  -0.042116   0.000245   0.000012  -0.000007   0.001452
    17  H   -0.000145   0.005576  -0.000002  -0.000002  -0.000000  -0.000135
    18  O    0.000004  -0.000097  -0.024507  -0.031257   0.206641   0.000461
    19  H   -0.000001  -0.000038  -0.012497   0.005956  -0.027493  -0.000085
    20  O   -0.000072   0.003564   0.209975   0.002258  -0.030870   0.000048
    21  H    0.000003   0.000669  -0.027355  -0.000220   0.005529  -0.000023
    22  O    0.002545  -0.032826  -0.030508   0.000084   0.001909   0.001957
    23  H    0.003588  -0.003520   0.005454   0.000010  -0.000199   0.000000
    24  O   -0.000172   0.003957   0.000092   0.001546  -0.000021  -0.098635
    25  H    0.000009  -0.000238   0.000052   0.006247   0.000436   0.001240
    26  H   -0.001274  -0.012475   0.000333  -0.030466   0.001345   0.102167
    27  H   -0.000042   0.000438  -0.000009   0.000363   0.000018   0.004987
    28  O   -0.000003  -0.000150   0.000029   0.022638  -0.000372  -0.000219
    29  H    0.000066  -0.000605  -0.000004  -0.002163  -0.000032   0.003004
    30  H   -0.000001   0.000028  -0.000005  -0.001609   0.000067  -0.000025
               7          8          9         10         11         12
     1  H   -0.054176  -0.000097   0.000049   0.006214  -0.051663  -0.008494
     2  C    0.270764   0.001416   0.000102  -0.057321   0.327654  -0.030453
     3  C    0.286840   0.001211  -0.042842  -0.045570   0.001799  -0.000093
     4  C   -0.014768   0.342125  -0.060441   0.001195   0.000014  -0.000709
     5  C   -0.021556  -0.055658   0.353380  -0.005199  -0.000375   0.000033
     6  O   -0.041985  -0.015435   0.001682   0.003291  -0.042991  -0.001065
     7  C    5.071944   0.000282  -0.003553   0.357276  -0.035636   0.006436
     8  H    0.000282   0.574972   0.007400   0.000004   0.000050  -0.000013
     9  H   -0.003553   0.007400   0.618896   0.006140   0.000038  -0.000007
    10  H    0.357276   0.000004   0.006140   0.632411  -0.002758   0.000527
    11  C   -0.035636   0.000050   0.000038  -0.002758   5.057621   0.343705
    12  H    0.006436  -0.000013  -0.000007   0.000527   0.343705   0.651646
    13  H   -0.010855   0.000103   0.000533   0.002427   0.358246  -0.055157
    14  O    0.000827  -0.037554   0.007157  -0.000041  -0.000210   0.000581
    15  H   -0.043115   0.000620   0.007074   0.007358   0.000161   0.000007
    16  O    0.006442   0.000000  -0.000001   0.002881   0.191915  -0.034364
    17  H   -0.000294  -0.000000   0.000000  -0.000121  -0.023700  -0.004716
    18  O    0.004149   0.006424  -0.042700  -0.000053   0.000004  -0.000000
    19  H    0.000734  -0.000284  -0.001495  -0.000020   0.000000  -0.000000
    20  O   -0.032945  -0.000067  -0.000972   0.000666  -0.000032   0.000001
    21  H   -0.011070   0.000004  -0.000159  -0.000190  -0.000024   0.000000
    22  O    0.196270   0.000001  -0.000074  -0.046995   0.002224  -0.000138
    23  H   -0.022806  -0.000000   0.000008  -0.002662  -0.001672   0.000011
    24  O   -0.000454   0.000651   0.000015   0.000019  -0.006154   0.011475
    25  H   -0.000015  -0.001465  -0.000210   0.000009   0.000255  -0.000016
    26  H    0.003984   0.001183  -0.000097  -0.000281  -0.006061   0.003280
    27  H    0.000041  -0.000060  -0.000001  -0.000001  -0.001891   0.004303
    28  O   -0.000021  -0.000542  -0.000617  -0.000011  -0.002494  -0.001542
    29  H    0.000032   0.000128   0.000028  -0.000001  -0.000034   0.004355
    30  H    0.000004   0.000040   0.000080  -0.000000   0.000164   0.000086
              13         14         15         16         17         18
     1  H    0.006340  -0.000202   0.000835   0.003775  -0.000145   0.000004
     2  C   -0.030662   0.005875  -0.002175  -0.042116   0.005576  -0.000097
     3  C   -0.000089   0.002046   0.343536   0.000245  -0.000002  -0.024507
     4  C    0.002638   0.232738  -0.001312   0.000012  -0.000002  -0.031257
     5  C   -0.000800  -0.037955  -0.041049  -0.000007  -0.000000   0.206641
     6  O    0.002636  -0.038064   0.002899   0.001452  -0.000135   0.000461
     7  C   -0.010855   0.000827  -0.043115   0.006442  -0.000294   0.004149
     8  H    0.000103  -0.037554   0.000620   0.000000  -0.000000   0.006424
     9  H    0.000533   0.007157   0.007074  -0.000001   0.000000  -0.042700
    10  H    0.002427  -0.000041   0.007358   0.002881  -0.000121  -0.000053
    11  C    0.358246  -0.000210   0.000161   0.191915  -0.023700   0.000004
    12  H   -0.055157   0.000581   0.000007  -0.034364  -0.004716  -0.000000
    13  H    0.589838   0.003587  -0.000002  -0.037403  -0.003450   0.000002
    14  O    0.003587   8.845246  -0.000012   0.000020  -0.000002   0.000638
    15  H   -0.000002  -0.000012   0.632216  -0.000004   0.000000   0.000902
    16  O   -0.037403   0.000020  -0.000004   8.305951   0.237758  -0.000000
    17  H   -0.003450  -0.000002   0.000000   0.237758   0.391133  -0.000000
    18  O    0.000002   0.000638   0.000902  -0.000000  -0.000000   8.310487
    19  H   -0.000000  -0.000118  -0.000232   0.000000  -0.000000   0.235239
    20  O   -0.000016  -0.000011  -0.048404  -0.000000   0.000000  -0.004383
    21  H    0.000001   0.000001  -0.001625   0.000000  -0.000000   0.000055
    22  O    0.000040   0.000000  -0.000063  -0.001283   0.000056  -0.000011
    23  H    0.000217  -0.000000  -0.000161   0.008725  -0.000237   0.000001
    24  O   -0.002123  -0.053036   0.000003   0.000225   0.000019  -0.000001
    25  H   -0.000277   0.045265  -0.000001  -0.000002  -0.000000  -0.000041
    26  H   -0.001163   0.000391  -0.000079  -0.000077  -0.000024   0.000003
    27  H    0.000034   0.005237   0.000000  -0.000015  -0.000007   0.000000
    28  O    0.010645  -0.422412  -0.000000   0.000014   0.000011   0.000000
    29  H    0.000154   0.010820  -0.000000  -0.000016  -0.000043  -0.000000
    30  H   -0.000353   0.032022   0.000000  -0.000001  -0.000004  -0.000000
              19         20         21         22         23         24
     1  H   -0.000001  -0.000072   0.000003   0.002545   0.003588  -0.000172
     2  C   -0.000038   0.003564   0.000669  -0.032826  -0.003520   0.003957
     3  C   -0.012497   0.209975  -0.027355  -0.030508   0.005454   0.000092
     4  C    0.005956   0.002258  -0.000220   0.000084   0.000010   0.001546
     5  C   -0.027493  -0.030870   0.005529   0.001909  -0.000199  -0.000021
     6  O   -0.000085   0.000048  -0.000023   0.001957   0.000000  -0.098635
     7  C    0.000734  -0.032945  -0.011070   0.196270  -0.022806  -0.000454
     8  H   -0.000284  -0.000067   0.000004   0.000001  -0.000000   0.000651
     9  H   -0.001495  -0.000972  -0.000159  -0.000074   0.000008   0.000015
    10  H   -0.000020   0.000666  -0.000190  -0.046995  -0.002662   0.000019
    11  C    0.000000  -0.000032  -0.000024   0.002224  -0.001672  -0.006154
    12  H   -0.000000   0.000001   0.000000  -0.000138   0.000011   0.011475
    13  H   -0.000000  -0.000016   0.000001   0.000040   0.000217  -0.002123
    14  O   -0.000118  -0.000011   0.000001   0.000000  -0.000000  -0.053036
    15  H   -0.000232  -0.048404  -0.001625  -0.000063  -0.000161   0.000003
    16  O    0.000000  -0.000000   0.000000  -0.001283   0.008725   0.000225
    17  H   -0.000000   0.000000  -0.000000   0.000056  -0.000237   0.000019
    18  O    0.235239  -0.004383   0.000055  -0.000011   0.000001  -0.000001
    19  H    0.370782   0.019057  -0.000643  -0.000004   0.000000   0.000000
    20  O    0.019057   8.319356   0.234685  -0.003998   0.000032   0.000000
    21  H   -0.000643   0.234685   0.367243   0.020474  -0.000731  -0.000000
    22  O   -0.000004  -0.003998   0.020474   8.321602   0.232460   0.000000
    23  H    0.000000   0.000032  -0.000731   0.232460   0.373451  -0.000000
    24  O    0.000000   0.000000  -0.000000   0.000000  -0.000000   8.663562
    25  H    0.000000  -0.000000   0.000000  -0.000000   0.000000   0.008256
    26  H    0.000002   0.000001   0.000000  -0.000036   0.000002   0.143231
    27  H    0.000000   0.000000  -0.000000  -0.000000   0.000000   0.195873
    28  O   -0.000000  -0.000000   0.000000  -0.000000  -0.000000  -0.204656
    29  H    0.000000   0.000000   0.000000  -0.000000   0.000000   0.116199
    30  H    0.000000   0.000000  -0.000000  -0.000000   0.000000   0.007731
              25         26         27         28         29         30
     1  H    0.000009  -0.001274  -0.000042  -0.000003   0.000066  -0.000001
     2  C   -0.000238  -0.012475   0.000438  -0.000150  -0.000605   0.000028
     3  C    0.000052   0.000333  -0.000009   0.000029  -0.000004  -0.000005
     4  C    0.006247  -0.030466   0.000363   0.022638  -0.002163  -0.001609
     5  C    0.000436   0.001345   0.000018  -0.000372  -0.000032   0.000067
     6  O    0.001240   0.102167   0.004987  -0.000219   0.003004  -0.000025
     7  C   -0.000015   0.003984   0.000041  -0.000021   0.000032   0.000004
     8  H   -0.001465   0.001183  -0.000060  -0.000542   0.000128   0.000040
     9  H   -0.000210  -0.000097  -0.000001  -0.000617   0.000028   0.000080
    10  H    0.000009  -0.000281  -0.000001  -0.000011  -0.000001  -0.000000
    11  C    0.000255  -0.006061  -0.001891  -0.002494  -0.000034   0.000164
    12  H   -0.000016   0.003280   0.004303  -0.001542   0.004355   0.000086
    13  H   -0.000277  -0.001163   0.000034   0.010645   0.000154  -0.000353
    14  O    0.045265   0.000391   0.005237  -0.422412   0.010820   0.032022
    15  H   -0.000001  -0.000079   0.000000  -0.000000  -0.000000   0.000000
    16  O   -0.000002  -0.000077  -0.000015   0.000014  -0.000016  -0.000001
    17  H   -0.000000  -0.000024  -0.000007   0.000011  -0.000043  -0.000004
    18  O   -0.000041   0.000003   0.000000   0.000000  -0.000000  -0.000000
    19  H    0.000000   0.000002   0.000000  -0.000000   0.000000   0.000000
    20  O   -0.000000   0.000001   0.000000  -0.000000   0.000000   0.000000
    21  H    0.000000   0.000000  -0.000000   0.000000   0.000000  -0.000000
    22  O   -0.000000  -0.000036  -0.000000  -0.000000  -0.000000  -0.000000
    23  H    0.000000   0.000002   0.000000  -0.000000   0.000000   0.000000
    24  O    0.008256   0.143231   0.195873  -0.204656   0.116199   0.007731
    25  H    0.326840  -0.000368  -0.000900   0.147163  -0.001053  -0.010499
    26  H   -0.000368   0.296968  -0.006928   0.002796  -0.005007  -0.000110
    27  H   -0.000900  -0.006928   0.424441   0.007742   0.001345  -0.000282
    28  O    0.147163   0.002796   0.007742   8.964762   0.098406   0.145503
    29  H   -0.001053  -0.005007   0.001345   0.098406   0.314130   0.003904
    30  H   -0.010499  -0.000110  -0.000282   0.145503   0.003904   0.499239
 Mulliken charges:
               1
     1  H    0.140510
     2  C    0.159767
     3  C    0.104669
     4  C    0.233038
     5  C    0.126177
     6  O   -0.596954
     7  C    0.087224
     8  H    0.174561
     9  H    0.150586
    10  H    0.140807
    11  C   -0.108155
    12  H    0.110322
    13  H    0.164910
    14  O   -0.602834
    15  H    0.142622
    16  O   -0.644125
    17  H    0.398329
    18  O   -0.661960
    19  H    0.411141
    20  O   -0.667873
    21  H    0.413373
    22  O   -0.663686
    23  H    0.408029
    24  O   -0.787600
    25  H    0.479313
    26  H    0.508758
    27  H    0.365313
    28  O   -0.766672
    29  H    0.456388
    30  H    0.324021
 Sum of Mulliken charges =  -0.00000
 Mulliken charges with hydrogens summed into heavy atoms:
               1
     2  C    0.300277
     3  C    0.247290
     4  C    0.407599
     5  C    0.276763
     6  O   -0.596954
     7  C    0.228032
    11  C    0.167077
    14  O   -0.602834
    16  O   -0.245797
    18  O   -0.250819
    20  O   -0.254499
    22  O   -0.255657
    24  O    0.542860
    28  O    0.036662
 APT charges:
               1
     1  H    0.437716
     2  C   -0.443150
     3  C   -0.244351
     4  C   -0.453607
     5  C   -0.145491
     6  O   -0.333729
     7  C   -0.145073
     8  H    0.590435
     9  H    0.353965
    10  H    0.332149
    11  C   -0.431885
    12  H    0.408402
    13  H    0.269811
    14  O    0.110980
    15  H    0.432543
    16  O   -1.035942
    17  H    0.832524
    18  O   -0.890273
    19  H    0.720437
    20  O   -0.857579
    21  H    0.696858
    22  O   -0.846695
    23  H    0.653273
    24  O   -1.137182
    25  H    0.544638
    26  H    0.381330
    27  H    0.720108
    28  O   -1.682444
    29  H    0.524267
    30  H    0.637964
 Sum of APT charges =  -0.00000
 APT charges with hydrogens summed into heavy atoms:
               1
     2  C   -0.005433
     3  C    0.188193
     4  C    0.136827
     5  C    0.208474
     6  O   -0.333729
     7  C    0.187076
    11  C    0.246328
    14  O    0.110980
    16  O   -0.203418
    18  O   -0.169836
    20  O   -0.160721
    22  O   -0.193422
    24  O    0.488523
    28  O   -0.499842
 Electronic spatial extent (au):  <R**2>=           2969.5241
 Charge=             -0.0000 electrons
 Dipole moment (field-independent basis, Debye):
    X=             -3.4758    Y=              3.0878    Z=             -1.0015  Tot=              4.7559
 Quadrupole moment (field-independent basis, Debye-Ang):
   XX=            -72.9165   YY=            -84.3416   ZZ=            -79.9014
   XY=             -4.8149   XZ=              2.0631   YZ=             -0.5385
 Traceless Quadrupole moment (field-independent basis, Debye-Ang):
   XX=              6.1366   YY=             -5.2884   ZZ=             -0.8482
   XY=             -4.8149   XZ=              2.0631   YZ=             -0.5385
 Octapole moment (field-independent basis, Debye-Ang**2):
  XXX=            -45.8476  YYY=             23.2026  ZZZ=             -7.6220  XYY=            -19.0739
  XXY=             16.4124  XXZ=            -10.0024  XZZ=            -25.9252  YZZ=              1.9955
  YYZ=            -15.3075  XYZ=             -1.0685
 Hexadecapole moment (field-independent basis, Debye-Ang**3):
 XXXX=          -1576.0465 YYYY=          -1306.6335 ZZZZ=           -306.9453 XXXY=            -46.7508
 XXXZ=             21.8055 YYYX=              6.4086 YYYZ=            -14.9685 ZZZX=             12.4781
 ZZZY=              0.9455 XXYY=           -461.2892 XXZZ=           -295.9704 YYZZ=           -250.4701
 XXYZ=              0.4159 YYXZ=             17.7109 ZZXY=             -2.3153
 N-N= 1.138504011475D+03 E-N=-4.251447639679D+03  KE= 8.337992350470D+02
  Exact polarizability:   0.000   0.000   0.000   0.000   0.000   0.000
 Approx polarizability: 158.604   3.270 148.309  19.989  10.979 136.309
 Calling FoFJK, ICntrl=    100147 FMM=F ISym2X=0 I1Cent= 0 IOpClX= 0 NMat=1 NMatS=1 NMatT=0.
 ***** Axes restored to original set *****
 -------------------------------------------------------------------
 Center     Atomic                   Forces (Hartrees/Bohr)
 Number     Number              X              Y              Z
 -------------------------------------------------------------------
      1        1          -0.014008083    0.018759214   -0.006448368
      2        6          -0.087804885    0.073592068   -0.036661010
      3        6          -0.006957644    0.015224945    0.000435094
      4        6           0.009733689   -0.074538663   -0.070731177
      5        6           0.023866853    0.028939798   -0.012821574
      6        8           0.122291451   -0.109449049    0.035119514
      7        6          -0.001866263    0.011321352   -0.002719671
      8        1          -0.014273191    0.012339283    0.021629525
      9        1          -0.011135645    0.002668235   -0.000090309
     10        1           0.003445230   -0.007584606   -0.002435439
     11        6          -0.018450237    0.000947952   -0.014295363
     12        1           0.001583894    0.001964752    0.001887656
     13        1           0.007027588   -0.003783010    0.001281124
     14        8           0.151637152    0.192533825    0.108207008
     15        1          -0.004504790   -0.009022989    0.004016225
     16        8          -0.004306316    0.007410006    0.000656772
     17        1           0.003711007    0.005770185    0.002554470
     18        8           0.000154172    0.003873583    0.004169912
     19        1          -0.001475951   -0.005614958    0.001935229
     20        8          -0.004547499   -0.003274917   -0.001453249
     21        1           0.004462575   -0.004849898   -0.002035122
     22        8          -0.000963611   -0.001038227    0.003334081
     23        1           0.006409138    0.001142805   -0.000613615
     24        8          -0.042681157   -0.005205888    0.067282183
     25        1          -0.040030535    0.006671903    0.027031744
     26        1          -0.014700686   -0.025357152    0.007575283
     27        1          -0.009380355   -0.004403246    0.015027767
     28        8          -0.102724811   -0.128783135   -0.142763892
     29        1           0.056342618    0.014393365    0.013925582
     30        1          -0.010853707   -0.014647534   -0.023000378
 -------------------------------------------------------------------
 Cartesian Forces:  Max     0.192533825 RMS     0.046152619

 GradGradGradGradGradGradGradGradGradGradGradGradGradGradGradGradGradGrad
 Berny optimization.
 Search for a saddle point.
 Step number   1 out of a maximum of  180
 All quantities printed in internal units (Hartrees-Bohrs-Radians)
 Swapping is turned off.
 Second derivative matrix not updated -- analytic derivatives used.
 ITU=  0
     Eigenvalues ---   -0.23821  -0.08297  -0.05974  -0.01142  -0.00628
     Eigenvalues ---   -0.00564  -0.00028   0.00069   0.00190   0.00271
     Eigenvalues ---    0.00338   0.00496   0.00645   0.00780   0.00902
     Eigenvalues ---    0.00997   0.01219   0.01336   0.01446   0.01979
     Eigenvalues ---    0.01998   0.02168   0.02375   0.02602   0.02804
     Eigenvalues ---    0.03037   0.03694   0.04244   0.04369   0.04700
     Eigenvalues ---    0.05403   0.05509   0.05907   0.06489   0.06784
     Eigenvalues ---    0.06968   0.07434   0.07780   0.08181   0.08815
     Eigenvalues ---    0.09093   0.09471   0.09975   0.10937   0.11600
     Eigenvalues ---    0.12606   0.13613   0.14042   0.15355   0.15767
     Eigenvalues ---    0.17400   0.17696   0.18993   0.20287   0.21598
     Eigenvalues ---    0.22661   0.25850   0.27648   0.31982   0.33101
     Eigenvalues ---    0.38053   0.39104   0.46058   0.52141   0.59361
     Eigenvalues ---    0.60365   0.64523   0.65244   0.66768   0.69545
     Eigenvalues ---    0.70764   0.75837   0.80993   0.83090   0.87874
     Eigenvalues ---    0.91029   0.92591   0.96982   0.99344   1.00391
     Eigenvalues ---    1.02708   1.09425   1.23914   1.38796
 Eigenvectors required to have negative eigenvalues:
                          Z29       X25       X28       Y26       Z25
   1                    0.44132  -0.37386   0.36738   0.32226  -0.28587
                          Y25       Z14       X6        Z24       X24
   1                   -0.26016   0.25129  -0.16483  -0.16164  -0.15544
 RFO step:  Lambda0=7.333781153D-03 Lambda=-2.36742291D-01.
 Linear search not attempted -- option 19 set.
 Maximum step size (   0.300) exceeded in Quadratic search.
    -- Step size scaled by   0.260
 B after Tr=     0.002154   -0.000083   -0.001599
         Rot=    1.000000   -0.000497   -0.000287   -0.000114 Ang=  -0.07 deg.
 Variable       Old X    -DE/DX   Delta X   Delta X   Delta X     New X
                                 (Linear)    (Quad)   (Total)
    X1       -3.20225  -0.01401   0.00000  -0.03962  -0.03587  -3.23812
    Y1        0.33373   0.01876   0.00000   0.02753   0.02381   0.35754
    Z1        2.94014  -0.00645   0.00000  -0.01814  -0.01752   2.92262
    X2       -2.16112  -0.08780   0.00000  -0.03091  -0.02794  -2.18906
    Y2       -0.34969   0.07359   0.00000   0.00839   0.00653  -0.34315
    Z2        1.28246  -0.03666   0.00000  -0.00127  -0.00196   1.28050
    X3        1.97048  -0.00696   0.00000  -0.01337  -0.01144   1.95904
    Y3        1.86186   0.01522   0.00000  -0.00434  -0.00434   1.85752
    Z3        0.34926   0.00044   0.00000   0.00851   0.00763   0.35689
    X4        2.05210   0.00973   0.00000   0.05058   0.05369   2.10579
    Y4       -2.98225  -0.07454   0.00000  -0.08687  -0.08693  -3.06917
    Z4        0.53971  -0.07073   0.00000  -0.08636  -0.09222   0.44749
    X5        3.07546   0.02387   0.00000   0.00438   0.00634   3.08181
    Y5       -0.62989   0.02894   0.00000   0.00213   0.00333  -0.62656
    Z5       -0.57802  -0.01282   0.00000  -0.00708  -0.01107  -0.58909
    X6       -0.69313   0.12229   0.00000  -0.00937  -0.00540  -0.69853
    Y6       -1.93983  -0.10945   0.00000  -0.00728  -0.00989  -1.94972
    Z6        2.36287   0.03512   0.00000   0.02547   0.02234   2.38521
    X7       -0.88990  -0.00187   0.00000  -0.01028  -0.00857  -0.89847
    Y7        1.91652   0.01132   0.00000   0.00215   0.00188   1.91840
    Z7       -0.01573  -0.00272   0.00000  -0.00138  -0.00056  -0.01629
    X8        3.39732  -0.01427   0.00000  -0.00276   0.00132   3.39864
    Y8       -3.95766   0.01234   0.00000  -0.01296  -0.01405  -3.97171
    Z8        1.77536   0.02163   0.00000   0.01961   0.01212   1.78748
    X9        2.88302  -0.01114   0.00000  -0.00505  -0.00424   2.87878
    Y9       -0.77419   0.00267   0.00000   0.01323   0.01643  -0.75776
    Z9       -2.63711  -0.00009   0.00000  -0.00508  -0.00909  -2.64620
   X10       -1.30008   0.00345   0.00000   0.00188   0.00241  -1.29767
   Y10        1.94285  -0.00758   0.00000  -0.00319  -0.00153   1.94131
   Z10       -2.04803  -0.00244   0.00000  -0.00434  -0.00327  -2.05130
   X11       -4.07277  -0.01845   0.00000  -0.01054  -0.00828  -4.08105
   Y11       -1.65247   0.00095   0.00000  -0.00185  -0.00240  -1.65487
   Z11       -0.45668  -0.01430   0.00000  -0.01316  -0.01406  -0.47074
   X12       -4.91327   0.00158   0.00000   0.00180   0.00499  -4.90828
   Y12       -3.28528   0.00196   0.00000  -0.00529  -0.00698  -3.29226
   Z12        0.49763   0.00189   0.00000  -0.00903  -0.01108   0.48655
   X13       -3.18018   0.00703   0.00000   0.00650   0.00793  -3.17226
   Y13       -2.32837  -0.00378   0.00000  -0.00365  -0.00227  -2.33063
   Z13       -2.19488   0.00128   0.00000  -0.00566  -0.00776  -2.20263
   X14        1.18043   0.15164   0.00000   0.15640   0.15888   1.33931
   Y14       -4.74368   0.19253   0.00000   0.02380   0.02533  -4.71835
   Z14       -1.29053   0.10821   0.00000  -0.02253  -0.02958  -1.32011
   X15        2.46951  -0.00450   0.00000  -0.01246  -0.00946   2.46006
   Y15        2.19336  -0.00902   0.00000  -0.01178  -0.01363   2.17973
   Z15        2.33440   0.00402   0.00000   0.00862   0.00778   2.34218
   X16       -6.02910  -0.00431   0.00000  -0.00653  -0.00504  -6.03414
   Y16        0.07709   0.00741   0.00000  -0.00097  -0.00131   0.07578
   Z16       -1.12215   0.00066   0.00000  -0.01674  -0.01480  -1.13695
   X17       -7.23865   0.00371   0.00000  -0.00315  -0.00204  -7.24068
   Y17       -0.86657   0.00577   0.00000  -0.00389  -0.00350  -0.87006
   Z17       -2.14090   0.00255   0.00000  -0.01233  -0.01064  -2.15154
   X18        5.75574   0.00015   0.00000  -0.00471  -0.00247   5.75327
   Y18       -0.62486   0.00387   0.00000   0.00268   0.00401  -0.62085
   Z18       -0.11109   0.00417   0.00000   0.01400   0.00848  -0.10261
   X19        6.33070  -0.00148   0.00000  -0.00333  -0.00181   6.32889
   Y19        1.02861  -0.00561   0.00000  -0.00117   0.00088   1.02949
   Z19       -0.70988   0.00194   0.00000   0.01074   0.00653  -0.70335
   X20        3.11630  -0.00455   0.00000  -0.00472  -0.00404   3.11226
   Y20        3.90642  -0.00327   0.00000  -0.00938  -0.00773   3.89869
   Z20       -1.03495  -0.00145   0.00000   0.00644   0.00693  -1.02802
   X21        2.10725   0.00446   0.00000   0.00088   0.00147   2.10872
   Y21        5.39202  -0.00485   0.00000  -0.00627  -0.00529   5.38672
   Z21       -0.58659  -0.00204   0.00000   0.00252   0.00507  -0.58152
   X22       -1.83678  -0.00096   0.00000  -0.00286  -0.00114  -1.83792
   Y22        4.27400  -0.00104   0.00000   0.00430   0.00286   4.27686
   Z22        0.94000   0.00333   0.00000  -0.00380  -0.00010   0.93990
   X23       -3.66183   0.00641   0.00000  -0.00093   0.00063  -3.66120
   Y23        4.24115   0.00114   0.00000   0.00287   0.00130   4.24246
   Z23        0.65217  -0.00061   0.00000   0.00012   0.00483   0.65700
   X24       -1.89103  -0.04268   0.00000   0.01941   0.02371  -1.86733
   Y24       -6.16054  -0.00521   0.00000  -0.00515  -0.00694  -6.16748
   Z24        1.23327   0.06728   0.00000   0.05404   0.04739   1.28066
   X25        1.14437  -0.04003   0.00000  -0.04969  -0.04741   1.09696
   Y25       -6.64288   0.00667   0.00000   0.02167   0.02424  -6.61864
   Z25       -2.52817   0.02703   0.00000   0.10526   0.09645  -2.43172
   X26       -1.29960  -0.01470   0.00000  -0.00183   0.00226  -1.29734
   Y26       -4.03137  -0.02536   0.00000   0.00920   0.00706  -4.02431
   Z26        1.73043   0.00758   0.00000   0.04042   0.03557   1.76600
   X27       -2.94945  -0.00938   0.00000   0.01113   0.01633  -2.93312
   Y27       -6.67200  -0.00440   0.00000   0.00333  -0.00006  -6.67207
   Z27        2.61503   0.01503   0.00000   0.04213   0.03559   2.65062
   X28       -1.09873  -0.10272   0.00000  -0.10080  -0.09855  -1.19728
   Y28       -6.79944  -0.12878   0.00000   0.05543   0.05757  -6.74186
   Z28       -2.49667  -0.14276   0.00000  -0.02090  -0.02851  -2.52518
   X29       -2.63889   0.05634   0.00000   0.03840   0.04163  -2.59726
   Y29       -6.83406   0.01439   0.00000  -0.00690  -0.00675  -6.84082
   Z29       -0.80697   0.01393   0.00000  -0.02264  -0.02954  -0.83652
   X30       -1.83361  -0.01085   0.00000  -0.04940  -0.04789  -1.88150
   Y30       -7.35944  -0.01465   0.00000  -0.00517  -0.00164  -7.36108
   Z30       -4.05791  -0.02300   0.00000  -0.00713  -0.01497  -4.07287
         Item               Value     Threshold  Converged?
 Maximum Force            0.192534     0.000450     NO 
 RMS     Force            0.046153     0.000300     NO 
 Maximum Displacement     0.158879     0.001800     NO 
 RMS     Displacement     0.031453     0.001200     NO 
 Predicted change in Energy=-6.045756D-02
 GradGradGradGradGradGradGradGradGradGradGradGradGradGradGradGradGradGrad

                          Input orientation:                          
 ---------------------------------------------------------------------
 Center     Atomic      Atomic             Coordinates (Angstroms)
 Number     Number       Type             X           Y           Z
 ---------------------------------------------------------------------
      1          1           0       -1.713539    0.189201    1.546583
      2          6           0       -1.158403   -0.181589    0.677613
      3          6           0        1.036679    0.982959    0.188857
      4          6           0        1.114337   -1.624136    0.236801
      5          6           0        1.630822   -0.331561   -0.311731
      6          8           0       -0.369647   -1.031747    1.262198
      7          6           0       -0.475451    1.015172   -0.008618
      8          1           0        1.798483   -2.101740    0.945896
      9          1           0        1.523385   -0.400988   -1.400308
     10          1           0       -0.686698    1.027298   -1.085500
     11          6           0       -2.159599   -0.875719   -0.249105
     12          1           0       -2.597351   -1.742189    0.257474
     13          1           0       -1.678685   -1.233319   -1.165583
     14          8           0        0.708732   -2.496843   -0.698572
     15          1           0        1.301806    1.153463    1.239428
     16          8           0       -3.193130    0.040101   -0.601650
     17          1           0       -3.831605   -0.460418   -1.138546
     18          8           0        3.044499   -0.328539   -0.054297
     19          1           0        3.349103    0.544783   -0.372197
     20          8           0        1.646935    2.063098   -0.544006
     21          1           0        1.115888    2.850532   -0.307729
     22          8           0       -0.972587    2.263218    0.497373
     23          1           0       -1.937424    2.245011    0.347669
     24          8           0       -0.988147   -3.263689    0.677696
     25          1           0        0.580484   -3.502432   -1.286809
     26          1           0       -0.686520   -2.129572    0.934527
     27          1           0       -1.552140   -3.530706    1.402649
     28          8           0       -0.633572   -3.567641   -1.336268
     29          1           0       -1.374410   -3.620004   -0.442666
     30          1           0       -0.995648   -3.895316   -2.155271
 ---------------------------------------------------------------------
                    Distance matrix (angstroms):
                    1          2          3          4          5
     1  H    0.000000
     2  C    1.095797   0.000000
     3  C    3.168150   2.532477   0.000000
     4  C    3.605636   2.727748   2.608692   0.000000
     5  C    3.861253   2.963287   1.526944   1.496127   0.000000
     6  O    1.837835   1.298709   2.681204   1.898571   2.639960
     7  C    2.152613   1.539342   1.525310   3.090891   2.518324
     8  H    4.235981   3.535835   3.266316   1.094977   2.177905
     9  H    4.417032   3.399688   2.162785   2.084116   1.096067
    10  H    2.946976   2.189173   2.143823   3.467321   2.795731
    11  C    2.134835   1.530691   3.723263   3.393360   3.829794
    12  H    2.484591   2.163922   4.542831   3.713622   4.493474
    13  H    3.062781   2.184994   3.757605   3.149666   3.534836
    14  O    4.257106   3.277267   3.606120   1.342034   2.385024
    15  H    3.180637   2.854930   1.096842   2.958963   2.172473
    16  O    2.612724   2.413664   4.405129   4.693288   4.846926
    17  H    3.481110   3.243792   5.248383   5.263854   5.526150
    18  O    5.046762   4.268685   2.410497   2.342826   1.436929
    19  H    5.425727   4.684798   2.419522   3.173211   1.929799
    20  O    4.378908   3.794851   1.440903   3.806444   2.405951
    21  H    4.304278   3.916255   1.934089   4.507679   3.223489
    22  O    2.439549   2.458474   2.402372   4.419805   3.763677
    23  H    2.390371   2.569849   3.234700   4.929081   4.450383
    24  O    3.633677   3.086799   4.730000   2.702399   4.054052
    25  H    5.188334   4.232101   4.743884   2.476768   3.479714
    26  H    2.608848   2.020721   3.635008   1.996340   3.186860
    27  H    3.726188   3.449245   5.343074   3.479125   4.827512
    28  O    4.857059   3.974483   5.081703   3.050729   4.080364
    29  H    4.310703   3.622759   5.234447   3.261752   4.456728
    30  H    5.558990   4.673701   5.781250   3.915648   4.795553
                    6          7          8          9         10
     6  O    0.000000
     7  C    2.411648   0.000000
     8  H    2.438384   3.974546   0.000000
     9  H    3.327216   2.817385   2.910826   0.000000
    10  H    3.138770   1.097473   4.482585   2.650202   0.000000
    11  C    2.347831   2.543552   4.312490   3.887803   2.547640
    12  H    2.544968   3.489456   4.463917   4.639776   3.622738
    13  H    2.765562   2.800367   4.159711   3.316794   2.469988
    14  O    2.674701   3.769957   2.011948   2.355568   3.810053
    15  H    2.751257   2.176094   3.305933   3.071420   3.061919
    16  O    3.548922   2.947580   5.647882   4.803948   2.736945
    17  H    4.251487   3.836388   6.223883   5.361713   3.479447
    18  O    3.726132   3.767984   2.386877   2.032433   4.101647
    19  H    4.357270   3.870488   3.338544   2.298857   4.126659
    20  O    4.111818   2.426790   4.425907   2.611559   2.609969
    21  H    4.443374   2.447523   5.153882   3.454297   2.679258
    22  O    3.435883   1.435545   5.189688   4.114494   2.028477
    23  H    3.745855   1.943401   5.762735   4.694032   2.258564
    24  O    2.388671   4.363775   3.031066   4.338311   4.648903
    25  H    3.674843   4.812226   2.903520   3.243593   4.707943
    26  H    1.188695   3.289907   2.485185   3.650087   3.747844
    27  H    2.768178   4.880158   3.671136   5.206779   5.264530
    28  O    3.640390   4.773870   3.643079   3.832004   4.602083
    29  H    3.258095   4.741454   3.781597   4.435803   4.741687
    30  H    4.502332   5.384386   4.543271   4.373307   5.046978
                   11         12         13         14         15
    11  C    0.000000
    12  H    1.094997   0.000000
    13  H    1.095029   1.768611   0.000000
    14  O    3.325265   3.523309   2.741232   0.000000
    15  H    4.279560   4.955043   4.512663   4.175202   0.000000
    16  O    1.425201   2.066301   2.057464   4.655105   4.983331
    17  H    1.938861   2.261678   2.287612   4.995524   5.883135
    18  O    5.236411   5.824610   4.935793   3.251528   2.628124
    19  H    5.690236   6.402112   5.391638   4.040986   2.675678
    20  O    4.818019   5.756434   4.723608   4.658023   2.031548
    21  H    4.961572   5.933016   5.022289   5.377076   2.303975
    22  O    3.437900   4.329053   3.935705   5.187996   2.637245
    23  H    3.185036   4.042450   3.802059   5.530094   3.532608
    24  O    2.816676   2.254127   2.827883   2.315505   5.007060
    25  H    3.935036   3.947392   3.204281   1.172041   5.345983
    26  H    2.267839   2.063914   2.489603   2.179135   3.850288
    27  H    3.185319   2.367000   3.448162   3.255079   5.487539
    28  O    3.279806   3.119089   2.563290   1.831678   5.715656
    29  H    2.860959   2.347758   2.512261   2.380433   5.725169
    30  H    3.755824   3.608703   2.921001   2.642463   6.503263
                   16         17         18         19         20
    16  O    0.000000
    17  H    0.972844   0.000000
    18  O    6.272440   6.962312   0.000000
    19  H    6.565681   7.291110   0.978026   0.000000
    20  O    5.246147   6.061023   2.812993   2.287396   0.000000
    21  H    5.152916   6.010851   3.726964   3.210590   0.978718
    22  O    3.328801   4.274156   4.812331   4.731403   2.826024
    23  H    2.709176   3.621616   5.621770   5.599675   3.698081
    24  O    4.172973   4.386606   5.041146   5.866725   6.067196
    25  H    5.221029   5.361190   4.202862   4.988157   5.715260
    26  H    3.653821   4.120104   4.259342   5.014575   5.020911
    27  H    4.411431   4.591329   5.788407   6.616787   6.731581
    28  O    4.484060   4.463333   5.065909   5.805443   6.126468
    29  H    4.090156   4.062639   5.523706   6.297777   6.437114
    30  H    4.767616   4.568906   5.784356   6.463025   6.714321
                   21         22         23         24         25
    21  H    0.000000
    22  O    2.314055   0.000000
    23  H    3.181024   0.976552   0.000000
    24  O    6.540773   5.529870   5.599626   0.000000
    25  H    6.450225   6.232019   6.484171   2.525249   0.000000
    26  H    5.439973   4.423747   4.587607   1.201317   2.902478
    27  H    7.124883   5.892789   5.883905   0.956527   3.432502
    28  O    6.731377   6.121772   6.190525   2.067404   1.216812
    29  H    6.934524   5.971385   5.944746   1.237486   2.132607
    30  H    7.306056   6.705564   6.697407   2.902535   1.841949
                   26         27         28         29         30
    26  H    0.000000
    27  H    1.712195   0.000000
    28  O    2.688374   2.889083   0.000000
    29  H    2.142718   1.856004   1.161941   0.000000
    30  H    3.572151   3.619588   0.953538   1.775463   0.000000
 Stoichiometry    C6H16O8
 Framework group  C1[X(C6H16O8)]
 Deg. of freedom    84
 Full point group                 C1      NOp   1
 Largest Abelian subgroup         C1      NOp   1
 Largest concise Abelian subgroup C1      NOp   1
                         Standard orientation:                         
 ---------------------------------------------------------------------
 Center     Atomic      Atomic             Coordinates (Angstroms)
 Number     Number       Type             X           Y           Z
 ---------------------------------------------------------------------
      1          1           0        0.136067    1.889174    1.469564
      2          6           0       -0.014551    1.172406    0.654500
      3          6           0        1.951757   -0.335052    0.130437
      4          6           0       -0.353151   -1.523512    0.413701
      5          6           0        0.995206   -1.468626   -0.232300
      6          8           0       -0.396274    0.135169    1.336464
      7          6           0        1.310738    1.027096   -0.114958
      8          1           0       -0.437248   -2.298044    1.183119
      9          1           0        0.812759   -1.473748   -1.313063
     10          1           0        1.157258    1.151293   -1.194525
     11          6           0       -1.135339    1.713840   -0.236398
     12          1           0       -2.069580    1.768631    0.332118
     13          1           0       -1.309544    1.066426   -1.102190
     14          8           0       -1.376299   -1.595684   -0.451754
     15          1           0        2.290910   -0.430920    1.169113
     16          8           0       -0.785275    3.015035   -0.700664
     17          1           0       -1.548344    3.338995   -1.209784
     18          8           0        1.629167   -2.723014    0.066645
     19          1           0        2.524471   -2.642512   -0.318691
     20          8           0        3.137575   -0.468176   -0.677223
     21          1           0        3.630233    0.364336   -0.528556
     22          8           0        2.250068    2.045091    0.262049
     23          1           0        1.804639    2.895986    0.085341
     24          8           0       -2.709157   -0.306956    0.935413
     25          1           0       -2.374955   -1.951778   -0.951318
     26          1           0       -1.542115   -0.073565    1.098822
     27          1           0       -3.145020    0.133844    1.663879
     28          8           0       -2.964064   -0.890110   -1.031593
     29          1           0       -3.272528   -0.186592   -0.159802
     30          1           0       -3.470878   -0.759274   -1.828623
 ---------------------------------------------------------------------
 Rotational constants (GHZ):      0.7599582      0.5848199      0.3846904
 Standard basis: 6-31G(d) (6D, 7F)
 There are   242 symmetry adapted cartesian basis functions of A   symmetry.
 There are   242 symmetry adapted basis functions of A   symmetry.
   242 basis functions,   456 primitive gaussians,   242 cartesian basis functions
    58 alpha electrons       58 beta electrons
       nuclear repulsion energy      1136.0306822189 Hartrees.
 NAtoms=   30 NActive=   30 NUniq=   30 SFac= 1.00D+00 NAtFMM=   60 NAOKFM=F Big=F
 Integral buffers will be    131072 words long.
 Raffenetti 2 integral format.
 Two-electron integral symmetry is turned on.
 One-electron integrals computed using PRISM.
 NBasis=   242 RedAO= T EigKep=  1.57D-03  NBF=   242
 NBsUse=   242 1.00D-06 EigRej= -1.00D+00 NBFU=   242
 Initial guess from the checkpoint file:  "/scratch/10447925.yak.local/Gau-32731.chk"
 B after Tr=    -0.000000   -0.000000    0.000000
         Rot=    0.999994   -0.001351    0.000561   -0.003057 Ang=  -0.39 deg.
 ExpMin= 1.61D-01 ExpMax= 5.48D+03 ExpMxC= 8.25D+02 IAcc=1 IRadAn=         1 AccDes= 0.00D+00
 Harris functional with IExCor=  402 and IRadAn=       1 diagonalized for initial guess.
 HarFok:  IExCor=  402 AccDes= 0.00D+00 IRadAn=         1 IDoV= 1 UseB2=F ITyADJ=14
 ICtDFT=  3500011 ScaDFX=  1.000000  1.000000  1.000000  1.000000
 FoFCou: FMM=F IPFlag=           0 FMFlag=      100000 FMFlg1=           0
         NFxFlg=           0 DoJE=T BraDBF=F KetDBF=T FulRan=T
         wScrn=  0.000000 ICntrl=     500 IOpCl=  0 I1Cent=   200000004 NGrid=           0
         NMat0=    1 NMatS0=      1 NMatT0=    0 NMatD0=    1 NMtDS0=    0 NMtDT0=    0
 Petite list used in FoFCou.
 Requested convergence on RMS density matrix=1.00D-08 within 128 cycles.
 Requested convergence on MAX density matrix=1.00D-06.
 Requested convergence on             energy=1.00D-06.
 No special actions if energy rises.
 Integral accuracy reduced to 1.0D-05 until final iterations.
 Initial convergence to 1.0D-05 achieved.  Increase integral accuracy.
 SCF Done:  E(RB3LYP) =  -839.740145935     A.U. after   13 cycles
            NFock= 13  Conv=0.93D-08     -V/T= 2.0072
 Calling FoFJK, ICntrl=      2127 FMM=F ISym2X=0 I1Cent= 0 IOpClX= 0 NMat=1 NMatS=1 NMatT=0.
 ***** Axes restored to original set *****
 -------------------------------------------------------------------
 Center     Atomic                   Forces (Hartrees/Bohr)
 Number     Number              X              Y              Z
 -------------------------------------------------------------------
      1        1          -0.013819721    0.017591002   -0.005753465
      2        6          -0.069573907    0.056873497   -0.026724562
      3        6          -0.006293267    0.011356792    0.000615479
      4        6           0.017560963   -0.056670298   -0.054879116
      5        6           0.019914738    0.022597829   -0.011278794
      6        8           0.098111407   -0.087615964    0.025809620
      7        6          -0.002218014    0.008917405   -0.002004676
      8        1          -0.013027473    0.010289055    0.019721423
      9        1          -0.009597936    0.003934293   -0.001283809
     10        1           0.003133181   -0.006941640   -0.002461732
     11        6          -0.015622662    0.001293863   -0.011551399
     12        1           0.000892473    0.001633735    0.001381575
     13        1           0.006015499   -0.003173912    0.001345478
     14        8           0.126641310    0.143560002    0.070851353
     15        1          -0.004685922   -0.008738526    0.003910686
     16        8          -0.004050267    0.006934336    0.000414548
     17        1           0.002303423    0.005270568    0.001586964
     18        8           0.000382400    0.003571606    0.003034819
     19        1          -0.000819675   -0.004622086    0.001968176
     20        8          -0.003834076   -0.003465416   -0.001398479
     21        1           0.003965009   -0.004376420   -0.001799530
     22        8          -0.000091247   -0.000366109    0.002887975
     23        1           0.005256268    0.001325197   -0.000622364
     24        8          -0.032582635   -0.006310452    0.056447731
     25        1          -0.042552594    0.010878312    0.031724004
     26        1          -0.012142179   -0.020514555    0.009848223
     27        1          -0.009090016   -0.004638319    0.016700611
     28        8          -0.081364788   -0.097267960   -0.114643926
     29        1           0.049996973    0.011805985    0.009370338
     30        1          -0.012807265   -0.013131819   -0.023217152
 -------------------------------------------------------------------
 Cartesian Forces:  Max     0.143560002 RMS     0.036441459

 GradGradGradGradGradGradGradGradGradGradGradGradGradGradGradGradGradGrad
 Berny optimization.
 Search for a saddle point.
 Step number   2 out of a maximum of  180
 All quantities printed in internal units (Hartrees-Bohrs-Radians)
 Swapping is turned off.
 Update second derivatives using D2CorN and points    1    2
 ITU=  0  0
     Eigenvalues ---   -0.23994  -0.07437  -0.05192  -0.01080  -0.00570
     Eigenvalues ---   -0.00534  -0.00007   0.00082   0.00190   0.00271
     Eigenvalues ---    0.00379   0.00497   0.00646   0.00784   0.00902
     Eigenvalues ---    0.01001   0.01228   0.01336   0.01448   0.01977
     Eigenvalues ---    0.02033   0.02178   0.02374   0.02597   0.02806
     Eigenvalues ---    0.03059   0.03697   0.04241   0.04385   0.04702
     Eigenvalues ---    0.05414   0.05509   0.05909   0.06489   0.06820
     Eigenvalues ---    0.07069   0.07426   0.07783   0.08217   0.08833
     Eigenvalues ---    0.09082   0.09562   0.10052   0.10940   0.11671
     Eigenvalues ---    0.12653   0.13752   0.14063   0.15332   0.15806
     Eigenvalues ---    0.17455   0.17681   0.19049   0.20426   0.21592
     Eigenvalues ---    0.22753   0.25751   0.27796   0.31909   0.33082
     Eigenvalues ---    0.38228   0.39106   0.46074   0.52171   0.59395
     Eigenvalues ---    0.60392   0.65129   0.65737   0.66860   0.69542
     Eigenvalues ---    0.70862   0.75830   0.80986   0.83090   0.87869
     Eigenvalues ---    0.91039   0.92616   0.96993   0.99344   1.00349
     Eigenvalues ---    1.02712   1.09520   1.24162   1.38743
 Eigenvectors required to have negative eigenvalues:
                          Z29       X28       X25       Y26       Z25
   1                    0.44004   0.37191  -0.36954   0.31807  -0.29054
                          Y25       Z14       Z24       X6        X24
   1                   -0.25971   0.25621  -0.16343  -0.16107  -0.15622
 RFO step:  Lambda0=2.975347240D-03 Lambda=-1.73747549D-01.
 Linear search not attempted -- option 19 set.
 Maximum step size (   0.300) exceeded in Quadratic search.
    -- Step size scaled by   0.264
 B after Tr=     0.000477   -0.000993   -0.002913
         Rot=    1.000000   -0.000280   -0.000326   -0.000216 Ang=  -0.06 deg.
 Variable       Old X    -DE/DX   Delta X   Delta X   Delta X     New X
                                 (Linear)    (Quad)   (Total)
    X1       -3.23812  -0.01382   0.00000  -0.02242  -0.02020  -3.25832
    Y1        0.35754   0.01759   0.00000   0.01921   0.01517   0.37271
    Z1        2.92262  -0.00575   0.00000  -0.00584  -0.00642   2.91620
    X2       -2.18906  -0.06957   0.00000  -0.01986  -0.01840  -2.20747
    Y2       -0.34315   0.05687   0.00000   0.00921   0.00655  -0.33661
    Z2        1.28050  -0.02672   0.00000   0.00290   0.00124   1.28174
    X3        1.95904  -0.00629   0.00000  -0.00382  -0.00390   1.95514
    Y3        1.85752   0.01136   0.00000   0.00347   0.00311   1.86064
    Z3        0.35689   0.00062   0.00000   0.01550   0.01236   0.36924
    X4        2.10579   0.01756   0.00000   0.01038   0.01243   2.11822
    Y4       -3.06917  -0.05667   0.00000  -0.03356  -0.03384  -3.10301
    Z4        0.44749  -0.05488   0.00000  -0.08715  -0.09318   0.35431
    X5        3.08181   0.01991   0.00000   0.01219   0.01254   3.09435
    Y5       -0.62656   0.02260   0.00000   0.01795   0.01862  -0.60794
    Z5       -0.58909  -0.01128   0.00000  -0.00143  -0.00670  -0.59579
    X6       -0.69853   0.09811   0.00000   0.01454   0.01742  -0.68111
    Y6       -1.94972  -0.08762   0.00000  -0.01233  -0.01496  -1.96468
    Z6        2.38521   0.02581   0.00000  -0.00353  -0.00710   2.37811
    X7       -0.89847  -0.00222   0.00000  -0.00267  -0.00303  -0.90150
    Y7        1.91840   0.00892   0.00000   0.00603   0.00465   1.92305
    Z7       -0.01629  -0.00200   0.00000   0.00560   0.00435  -0.01193
    X8        3.39864  -0.01303   0.00000  -0.03286  -0.02951   3.36913
    Y8       -3.97171   0.01029   0.00000  -0.02206  -0.02258  -3.99430
    Z8        1.78748   0.01972   0.00000  -0.02603  -0.03338   1.75410
    X9        2.87878  -0.00960   0.00000   0.00696   0.00602   2.88480
    Y9       -0.75776   0.00393   0.00000   0.02880   0.03054  -0.72722
    Z9       -2.64620  -0.00128   0.00000  -0.00088  -0.00609  -2.65228
   X10       -1.29767   0.00313   0.00000   0.00808   0.00638  -1.29129
   Y10        1.94131  -0.00694   0.00000  -0.00096  -0.00136   1.93995
   Z10       -2.05130  -0.00246   0.00000   0.00204   0.00106  -2.05024
   X11       -4.08105  -0.01562   0.00000  -0.00993  -0.00905  -4.09010
   Y11       -1.65487   0.00129   0.00000   0.00757   0.00508  -1.64979
   Z11       -0.47074  -0.01155   0.00000  -0.00937  -0.01054  -0.48128
   X12       -4.90828   0.00089   0.00000  -0.00323  -0.00102  -4.90930
   Y12       -3.29226   0.00163   0.00000   0.00506   0.00168  -3.29058
[...]
    Y6       -2.60823   0.00009   0.00000   0.01304   0.01430  -2.59393
    Z6        1.37910   0.00023   0.00000   0.01382   0.01462   1.39372
    X7       -0.86721  -0.00043   0.00000   0.00378   0.00320  -0.86401
    Y7        1.41657   0.00029   0.00000   0.00532   0.00672   1.42329
    Z7       -0.85823   0.00060   0.00000   0.00916   0.01038  -0.84785
    X8        2.85079   0.00032   0.00000  -0.00494  -0.00407   2.84673
    Y8       -4.48823  -0.00060   0.00000  -0.00912  -0.00725  -4.49548
    Z8        0.77861   0.00019   0.00000  -0.02890  -0.02930   0.74931
    X9        5.21144  -0.00002   0.00000  -0.01692  -0.01727   5.19417
    Y9       -0.41481   0.00026   0.00000  -0.00519  -0.00278  -0.41759
    Z9       -1.00412   0.00033   0.00000  -0.06407  -0.06486  -1.06898
   X10       -1.07286   0.00014   0.00000   0.02186   0.02088  -1.05198
   Y10        0.44434  -0.00001   0.00000   0.01379   0.01530   0.45965
   Z10       -2.68026  -0.00022   0.00000   0.00008   0.00128  -2.67898
   X11       -4.77395   0.00014   0.00000  -0.00125  -0.00096  -4.77491
   Y11       -0.89803  -0.00101   0.00000  -0.01597  -0.01534  -0.91337
   Z11        0.79807   0.00023   0.00000  -0.04815  -0.04593   0.75214
   X12       -5.42055   0.00075   0.00000  -0.01105  -0.01011  -5.43066
   Y12       -2.25599   0.00087   0.00000  -0.02530  -0.02489  -2.28089
   Z12        2.23471  -0.00095   0.00000  -0.07043  -0.06812   2.16659
   X13       -5.01716   0.00042   0.00000   0.03205   0.03190  -4.98526
   Y13       -1.77782   0.00043   0.00000  -0.00093  -0.00019  -1.77800
   Z13       -1.07401   0.00114   0.00000  -0.05499  -0.05278  -1.12679
   X14        1.64884  -0.00037   0.00000  -0.04230  -0.04268   1.60616
   Y14       -3.36932   0.00006   0.00000   0.01074   0.01270  -3.35662
   Z14       -2.73528  -0.00190   0.00000  -0.01604  -0.01597  -2.75125
   X15        2.05851  -0.00033   0.00000  -0.00570  -0.00591   2.05259
   Y15        3.17488  -0.00038   0.00000  -0.03042  -0.02872   3.14616
   Z15        1.25054  -0.00074   0.00000   0.05922   0.05969   1.31023
   X16       -6.16022  -0.00030   0.00000  -0.01845  -0.01848  -6.17870
   Y16        1.42044  -0.00016   0.00000  -0.02567  -0.02529   1.39515
   Z16        0.97783  -0.00009   0.00000  -0.05391  -0.05108   0.92675
   X17       -7.93087  -0.00009   0.00000  -0.01501  -0.01508  -7.94595
   Y17        1.06521  -0.00012   0.00000  -0.03182  -0.03171   1.03350
   Z17        0.67810  -0.00049   0.00000  -0.06001  -0.05666   0.62144
   X18        4.16543  -0.00100   0.00000   0.06720   0.06806   4.23349
   Y18       -0.58069  -0.00094   0.00000  -0.03211  -0.03017  -0.61086
   Z18        2.81104  -0.00074   0.00000  -0.03266  -0.03316   2.77788
   X19        5.13077   0.00104   0.00000   0.09163   0.09237   5.22313
   Y19        0.91942   0.00091   0.00000  -0.04271  -0.04064   0.87877
   Z19        3.21734  -0.00047   0.00000  -0.04158  -0.04227   3.17507
   X20        3.01145  -0.00098   0.00000   0.00234   0.00096   3.01241
   Y20        3.14769   0.00071   0.00000   0.05284   0.05501   3.20270
   Z20       -2.56101   0.00037   0.00000   0.04991   0.05009  -2.51092
   X21        1.83592   0.00072   0.00000   0.00046  -0.00128   1.83465
   Y21        4.49235  -0.00102   0.00000   0.05944   0.06145   4.55380
   Z21       -3.00520   0.00049   0.00000   0.07717   0.07781  -2.92739
   X22       -2.02246   0.00010   0.00000  -0.00022  -0.00122  -2.02368
   Y22        3.84959  -0.00056   0.00000   0.00130   0.00251   3.85210
   Z22       -0.93149   0.00050   0.00000   0.01204   0.01381  -0.91768
   X23       -3.83355  -0.00009   0.00000  -0.00547  -0.00637  -3.83993
   Y23        3.61254  -0.00006   0.00000  -0.00531  -0.00441   3.60813
   Z23       -0.68681  -0.00030   0.00000  -0.01767  -0.01536  -0.70217
   X24       -2.56399   0.00139   0.00000   0.01480   0.01602  -2.54797
   Y24       -6.67257  -0.00122   0.00000   0.00780   0.00879  -6.66378
   Z24        0.65131   0.00156   0.00000   0.05670   0.05777   0.70908
   X25        0.95325  -0.00014   0.00000  -0.04215  -0.04223   0.91102
   Y25       -5.65255  -0.00031   0.00000   0.00046   0.00232  -5.65023
   Z25       -3.01435   0.00022   0.00000   0.00529   0.00539  -3.00896
   X26       -1.69172  -0.00024   0.00000   0.01402   0.01502  -1.67670
   Y26       -4.56982   0.00006   0.00000   0.01466   0.01576  -4.55406
   Z26        1.07630   0.00008   0.00000   0.04607   0.04705   1.12335
   X27       -2.05186  -0.00155   0.00000   0.02781   0.02963  -2.02223
   Y27       -7.76698   0.00184   0.00000   0.01285   0.01382  -7.75316
   Z27        2.04063  -0.00223   0.00000   0.04028   0.04110   2.08173
   X28        0.10687  -0.00192   0.00000  -0.02449  -0.02421   0.08265
   Y28       -7.67445   0.00020   0.00000   0.00488   0.00661  -7.66784
   Z28       -2.93626  -0.00083   0.00000   0.02658   0.02677  -2.90949
   X29       -1.42099   0.00046   0.00000  -0.00337  -0.00260  -1.42358
   Y29       -7.33333   0.00005   0.00000   0.00734   0.00866  -7.32467
   Z29       -1.12883  -0.00003   0.00000   0.04782   0.04849  -1.08033
   X30       -0.82727   0.00076   0.00000  -0.03812  -0.03827  -0.86555
   Y30       -7.91736   0.00012   0.00000  -0.01401  -0.01231  -7.92968
   Z30       -4.49841   0.00144   0.00000   0.04048   0.04094  -4.45748
         Item               Value     Threshold  Converged?
 Maximum Force            0.002424     0.000450     NO 
 RMS     Force            0.000804     0.000300     NO 
 Maximum Displacement     0.092365     0.001800     NO 
 RMS     Displacement     0.031597     0.001200     NO 
 Predicted change in Energy=-2.306674D-04
 GradGradGradGradGradGradGradGradGradGradGradGradGradGradGradGradGradGrad

                          Input orientation:                          
 ---------------------------------------------------------------------
 Center     Atomic      Atomic             Coordinates (Angstroms)
 Number     Number       Type             X           Y           Z
 ---------------------------------------------------------------------
      1          1           0       -0.971495    0.370696    1.611725
      2          6           0       -1.049238   -0.151374    0.647715
      3          6           0        1.028364    1.024593   -0.206901
      4          6           0        1.139636   -1.544256   -0.221226
      5          6           0        1.865126   -0.244671    0.093532
      6          8           0       -0.305040   -1.372650    0.737525
      7          6           0       -0.457217    0.753173   -0.448662
      8          1           0        1.506422   -2.378905    0.396517
      9          1           0        2.748634   -0.220981   -0.565681
     10          1           0       -0.556686    0.243234   -1.417654
     11          6           0       -2.526775   -0.483333    0.398016
     12          1           0       -2.873779   -1.206993    1.146511
     13          1           0       -2.638087   -0.940880   -0.596272
     14          8           0        0.849942   -1.776247   -1.455896
     15          1           0        1.086185    1.664876    0.693344
     16          8           0       -3.269627    0.738281    0.490414
     17          1           0       -4.204814    0.546904    0.328851
     18          8           0        2.240267   -0.323255    1.469989
     19          1           0        2.763963    0.465027    1.680176
     20          8           0        1.594100    1.694795   -1.328720
     21          1           0        0.970853    2.409768   -1.549106
     22          8           0       -1.070887    2.038445   -0.485615
     23          1           0       -2.032002    1.909340   -0.371575
     24          8           0       -1.348325   -3.526322    0.375231
     25          1           0        0.482090   -2.989972   -1.592273
     26          1           0       -0.887273   -2.409906    0.594453
     27          1           0       -1.070120   -4.102794    1.101606
     28          8           0        0.043738   -4.057647   -1.539635
     29          1           0       -0.753328   -3.876050   -0.571688
     30          1           0       -0.458028   -4.196205   -2.358795
 ---------------------------------------------------------------------
                    Distance matrix (angstroms):
                    1          2          3          4          5
     1  H    0.000000
     2  C    1.099052   0.000000
     3  C    2.781082   2.535684   0.000000
     4  C    3.388750   2.736119   2.571298   0.000000
     5  C    3.275668   2.968052   1.549665   1.521292   0.000000
     6  O    2.060981   1.432973   2.901152   1.742338   2.529166
     7  C    2.157768   1.539719   1.529401   2.807106   2.585139
     8  H    3.895781   3.399469   3.489477   1.101262   2.185274
     9  H    4.350924   3.987606   2.153952   2.111536   1.102593
    10  H    3.060302   2.159646   2.142155   2.739355   2.896016
    11  C    2.149733   1.534817   3.908808   3.866728   4.408907
    12  H    2.514799   2.166121   4.694509   4.253464   4.948944
    13  H    3.061537   2.166856   4.178223   3.843945   4.608629
    14  O    4.163808   3.266845   3.071893   1.289245   2.403550
    15  H    2.598533   2.803725   1.106231   3.337338   2.147764
    16  O    2.583383   2.397157   4.363594   5.015776   5.243033
    17  H    3.482983   3.247604   5.282175   5.765300   6.125858
    18  O    3.288932   3.395073   2.469284   2.358482   1.428824
    19  H    3.737276   3.998303   2.624210   3.207957   1.956788
    20  O    4.120889   3.781781   1.423976   3.453191   2.420286
    21  H    4.233365   3.932714   1.929646   4.174453   3.247158
    22  O    2.681436   2.465809   2.347857   4.218064   3.764067
    23  H    2.724991   2.500264   3.189943   4.691398   4.477018
    24  O    4.105809   3.399114   5.167045   3.236402   4.601615
    25  H    4.865449   3.926849   4.281869   2.098149   3.505910
    26  H    2.962040   2.264959   4.013429   2.350115   3.537635
    27  H    4.503561   3.977458   5.692620   3.630292   4.951464
    28  O    5.529194   4.608477   5.345543   3.042421   4.530284
    29  H    4.780140   3.930358   5.227217   3.023806   4.526117
    30  H    6.073323   5.074375   5.839241   3.762255   5.198613
                    6          7          8          9         10
     6  O    0.000000
     7  C    2.439123   0.000000
     8  H    2.100055   3.792112   0.000000
     9  H    3.514202   3.352633   2.669373   0.000000
    10  H    2.705403   1.099489   3.797794   3.444778   0.000000
    11  C    2.417077   2.555168   4.456442   5.369123   2.775933
    12  H    2.606364   3.496655   4.595871   5.959476   3.747935
    13  H    2.721865   2.765465   4.497833   5.434699   2.531604
    14  O    2.511568   3.020124   2.055626   2.610818   2.461376
    15  H    3.341261   2.125434   4.076379   2.811643   3.029258
    16  O    3.647722   2.965087   5.704061   6.185062   3.353483
    17  H    4.365770   3.832957   6.417410   7.052679   4.056024
    18  O    2.848916   3.480853   2.432399   2.100678   4.059845
    19  H    3.699247   3.871819   3.364095   2.348343   4.546697
    20  O    4.157562   2.422613   4.424834   2.363340   2.596308
    21  H    4.600356   2.448401   5.196506   3.323924   2.654153
    22  O    3.703804   1.424739   5.189765   4.438486   2.087075
    23  H    3.870912   1.955151   5.612437   5.237407   2.459014
    24  O    2.420332   4.448252   3.076785   5.347493   4.248609
    25  H    2.943342   4.025080   2.319040   3.722691   3.400465
    26  H    1.198067   3.358289   2.402065   4.399674   3.346194
    27  H    2.858599   5.134140   3.179232   5.694840   5.049579
    28  O    3.537840   4.958343   2.950645   4.794274   4.344303
    29  H    2.860421   4.640314   2.878426   5.061947   4.209849
    30  H    4.193217   5.305181   3.841014   5.412980   4.539173
                   11         12         13         14         15
    11  C    0.000000
    12  H    1.097424   0.000000
    13  H    1.100158   1.778668   0.000000
    14  O    4.063353   4.578502   3.688244   0.000000
    15  H    4.213728   4.912668   4.724751   4.064034   0.000000
    16  O    1.432728   2.090753   2.097453   5.204021   4.457899
    17  H    1.970276   2.348696   2.350316   5.842339   5.420091
    18  O    4.888706   5.199914   5.333782   3.550351   2.426469
    19  H    5.525870   5.904625   6.028344   4.303688   2.286573
    20  O    4.970661   5.874443   5.039312   3.552193   2.085094
    21  H    4.939101   5.926931   5.015893   4.188798   2.365745
    22  O    3.042989   4.055505   3.368195   4.379830   2.486455
    23  H    2.561631   3.567170   2.922598   4.802594   3.304074
    24  O    3.263287   2.881175   3.048248   3.353829   5.742523
    25  H    4.392921   4.684208   3.863457   1.275555   5.220784
    26  H    2.537369   2.387043   2.577055   2.761046   4.528594
    27  H    3.964515   3.411872   3.916505   3.954779   6.171090
    28  O    4.810171   4.884006   4.218573   2.421108   6.230583
    29  H    3.949173   3.817379   3.488286   2.785942   5.973774
    30  H    5.066077   5.201770   4.296078   2.895204   6.786193
                   16         17         18         19         20
    16  O    0.000000
    17  H    0.968144   0.000000
    18  O    5.696083   6.602912   0.000000
    19  H    6.155844   7.099060   0.969446   0.000000
    20  O    5.280152   6.139430   3.510389   3.454616   0.000000
    21  H    4.993514   5.812445   4.265650   4.174390   0.973753
    22  O    2.734506   3.565046   4.512844   4.676791   2.816216
    23  H    1.909482   2.658560   5.160245   5.412671   3.756431
    24  O    4.678836   4.975224   4.933166   5.877471   6.230680
    25  H    5.684438   6.177967   4.424931   5.277583   4.822143
    26  H    3.949370   4.451893   3.860334   4.772375   5.167628
    27  H    5.352326   5.660667   5.037786   5.991655   6.827634
    28  O    6.172554   6.537838   5.275249   6.182345   5.961434
    29  H    5.362077   5.682099   5.074683   6.023884   6.092440
    30  H    6.353915   6.615053   6.077838   6.958563   6.322670
                   21         22         23         24         25
    21  H    0.000000
    22  O    2.331865   0.000000
    23  H    3.264069   0.976430   0.000000
    24  O    6.657239   5.637789   5.529155   0.000000
    25  H    5.421987   5.377862   5.640391   2.740285   0.000000
    26  H    5.592561   4.581276   4.571597   1.227604   2.644504
    27  H    7.321565   6.343035   6.264283   0.968162   3.302228
    28  O    6.533536   6.286150   6.424796   2.426285   1.155359
    29  H    6.590877   5.923639   5.928388   1.171745   1.831116
    30  H    6.807068   6.538750   6.610909   2.952333   1.710665
                   26         27         28         29         30
    26  H    0.000000
    27  H    1.776656   0.000000
    28  O    2.852396   2.866857   0.000000
    29  H    1.878138   1.718046   1.266971   0.000000
    30  H    3.478044   3.515360   0.970562   1.839417   0.000000
 Stoichiometry    C6H16O8
 Framework group  C1[X(C6H16O8)]
 Deg. of freedom    84
 Full point group                 C1      NOp   1
 Largest Abelian subgroup         C1      NOp   1
 Largest concise Abelian subgroup C1      NOp   1
                         Standard orientation:                         
 ---------------------------------------------------------------------
 Center     Atomic      Atomic             Coordinates (Angstroms)
 Number     Number       Type             X           Y           Z
 ---------------------------------------------------------------------
      1          1           0        1.052344    1.094553    1.529744
      2          6           0        0.466140    1.017539    0.603272
      3          6           0        1.685974   -1.109130   -0.044011
      4          6           0       -0.869826   -1.324459    0.137889
      5          6           0        0.481591   -1.946780    0.455252
      6          8           0       -0.708539    0.244370    0.878498
      7          6           0        1.326449    0.316784   -0.464223
      8          1           0       -1.643852   -1.635775    0.856737
      9          1           0        0.506479   -2.911099   -0.078771
     10          1           0        0.750942    0.261072   -1.399404
     11          6           0        0.046163    2.431966    0.180567
     12          1           0       -0.644120    2.849531    0.924536
     13          1           0       -0.479337    2.386589   -0.784905
     14          8           0       -1.194797   -1.217397   -1.105126
     15          1           0        2.384915   -1.016446    0.808419
     16          8           0        1.232966    3.228950    0.085586
     17          1           0        0.985591    4.124459   -0.186759
     18          8           0        0.510354   -2.131328    1.871816
     19          1           0        1.335450   -2.588920    2.094642
     20          8           0        2.309775   -1.796800   -1.123682
     21          1           0        2.977401   -1.181685   -1.475963
     22          8           0        2.574767    0.970643   -0.674110
     23          1           0        2.405905    1.932329   -0.681947
     24          8           0       -2.929997    1.140309    0.531479
     25          1           0       -2.431480   -0.920948   -1.203994
     26          1           0       -1.780365    0.759143    0.731657
     27          1           0       -3.444089    0.942014    1.327548
     28          8           0       -3.513922   -0.522791   -1.135851
     29          1           0       -3.310067    0.406817   -0.299499
     30          1           0       -3.729524   -0.144788   -2.003389
 ---------------------------------------------------------------------
 Rotational constants (GHZ):      0.6705421      0.5596718      0.3855619
 Standard basis: 6-31G(d) (6D, 7F)
 There are   242 symmetry adapted cartesian basis functions of A   symmetry.
 There are   242 symmetry adapted basis functions of A   symmetry.
   242 basis functions,   456 primitive gaussians,   242 cartesian basis functions
    58 alpha electrons       58 beta electrons
       nuclear repulsion energy      1114.1771228248 Hartrees.
 NAtoms=   30 NActive=   30 NUniq=   30 SFac= 1.00D+00 NAtFMM=   60 NAOKFM=F Big=F
 Integral buffers will be    131072 words long.
 Raffenetti 2 integral format.
 Two-electron integral symmetry is turned on.
 One-electron integrals computed using PRISM.
 NBasis=   242 RedAO= T EigKep=  1.35D-03  NBF=   242
 NBsUse=   242 1.00D-06 EigRej= -1.00D+00 NBFU=   242
 Initial guess from the checkpoint file:  "/scratch/10447925.yak.local/Gau-32731.chk"
 B after Tr=    -0.000000   -0.000000   -0.000000
         Rot=    0.999949   -0.004882    0.002208   -0.008584 Ang=  -1.16 deg.
 ExpMin= 1.61D-01 ExpMax= 5.48D+03 ExpMxC= 8.25D+02 IAcc=1 IRadAn=         1 AccDes= 0.00D+00
 Harris functional with IExCor=  402 and IRadAn=       1 diagonalized for initial guess.
 HarFok:  IExCor=  402 AccDes= 0.00D+00 IRadAn=         1 IDoV= 1 UseB2=F ITyADJ=14
 ICtDFT=  3500011 ScaDFX=  1.000000  1.000000  1.000000  1.000000
 FoFCou: FMM=F IPFlag=           0 FMFlag=      100000 FMFlg1=           0
         NFxFlg=           0 DoJE=T BraDBF=F KetDBF=T FulRan=T
         wScrn=  0.000000 ICntrl=     500 IOpCl=  0 I1Cent=   200000004 NGrid=           0
         NMat0=    1 NMatS0=      1 NMatT0=    0 NMatD0=    1 NMtDS0=    0 NMtDT0=    0
 Petite list used in FoFCou.
 Requested convergence on RMS density matrix=1.00D-08 within 128 cycles.
 Requested convergence on MAX density matrix=1.00D-06.
 Requested convergence on             energy=1.00D-06.
 No special actions if energy rises.
 Integral accuracy reduced to 1.0D-05 until final iterations.
 Initial convergence to 1.0D-05 achieved.  Increase integral accuracy.
 SCF Done:  E(RB3LYP) =  -839.955328314     A.U. after   11 cycles
            NFock= 11  Conv=0.50D-08     -V/T= 2.0086
