 Entering Gaussian System, Link 0=g09
 Initial command:
 /global/software/gaussian/g09.e01/l1.exe "/scratch/10450853.yak.local/Gau-17159.inp" -scrdir="/scratch/10450853.yak.local/"
 Entering Link 1 = /global/software/gaussian/g09.e01/l1.exe PID=     17160.
  
 Copyright (c) 1988,1990,1992,1993,1995,1998,2003,2009,2015,
            Gaussian, Inc.  All Rights Reserved.
  
 This is part of the Gaussian(R) 09 program.  It is based on
 the Gaussian(R) 03 system (copyright 2003, Gaussian, Inc.),
 the Gaussian(R) 98 system (copyright 1998, Gaussian, Inc.),
 the Gaussian(R) 94 system (copyright 1995, Gaussian, Inc.),
 the Gaussian 92(TM) system (copyright 1992, Gaussian, Inc.),
 the Gaussian 90(TM) system (copyright 1990, Gaussian, Inc.),
 the Gaussian 88(TM) system (copyright 1988, Gaussian, Inc.),
 the Gaussian 86(TM) system (copyright 1986, Carnegie Mellon
 University), and the Gaussian 82(TM) system (copyright 1983,
 Carnegie Mellon University). Gaussian is a federally registered
 trademark of Gaussian, Inc.
  
 This software contains proprietary and confidential information,
 including trade secrets, belonging to Gaussian, Inc.
  
 This software is provided under written license and may be
 used, copied, transmitted, or stored only in accord with that
 written license.
  
 The following legend is applicable only to US Government
 contracts under FAR:
  
                    RESTRICTED RIGHTS LEGEND
  
 Use, reproduction and disclosure by the US Government is
 subject to restrictions as set forth in subparagraphs (a)
 and (c) of the Commercial Computer Software - Restricted
 Rights clause in FAR 52.227-19.
  
 Gaussian, Inc.
 340 Quinnipiac St., Bldg. 40, Wallingford CT 06492
  
  
 ---------------------------------------------------------------
 Warning -- This program may not be used in any manner that
 competes with the business of Gaussian, Inc. or will provide
 assistance to any competitor of Gaussian, Inc.  The licensee
 of this program is prohibited from giving any competitor of
 Gaussian, Inc. access to this program.  By using this program,
 the user acknowledges that Gaussian, Inc. is engaged in the
 business of creating and licensing software in the field of
 computational chemistry and represents and warrants to the
 licensee that it is not a competitor of Gaussian, Inc. and that
 it will not use this program in any manner prohibited above.
 ---------------------------------------------------------------
  

 Cite this work as:
 Gaussian 09, Revision E.01,
 M. J. Frisch, G. W. Trucks, H. B. Schlegel, G. E. Scuseria, 
 M. A. Robb, J. R. Cheeseman, G. Scalmani, V. Barone, B. Mennucci, 
 G. A. Petersson, H. Nakatsuji, M. Caricato, X. Li, H. P. Hratchian, 
 A. F. Izmaylov, J. Bloino, G. Zheng, J. L. Sonnenberg, M. Hada, 
 M. Ehara, K. Toyota, R. Fukuda, J. Hasegawa, M. Ishida, T. Nakajima, 
 Y. Honda, O. Kitao, H. Nakai, T. Vreven, J. A. Montgomery, Jr., 
 J. E. Peralta, F. Ogliaro, M. Bearpark, J. J. Heyd, E. Brothers, 
 K. N. Kudin, V. N. Staroverov, T. Keith, R. Kobayashi, J. Normand, 
 K. Raghavachari, A. Rendell, J. C. Burant, S. S. Iyengar, J. Tomasi, 
 M. Cossi, N. Rega, J. M. Millam, M. Klene, J. E. Knox, J. B. Cross, 
 V. Bakken, C. Adamo, J. Jaramillo, R. Gomperts, R. E. Stratmann, 
 O. Yazyev, A. J. Austin, R. Cammi, C. Pomelli, J. W. Ochterski, 
 R. L. Martin, K. Morokuma, V. G. Zakrzewski, G. A. Voth, 
 P. Salvador, J. J. Dannenberg, S. Dapprich, A. D. Daniels, 
 O. Farkas, J. B. Foresman, J. V. Ortiz, J. Cioslowski, 
 and D. J. Fox, Gaussian, Inc., Wallingford CT, 2013.
 
 ******************************************
 Gaussian 09:  ES64L-G09RevE.01 30-Nov-2015
                11-Jan-2017 
 ******************************************
 %NPROCS=12
 Will use up to   12 processors via shared memory.
 ----------------------------------------------------------------------
 # opt=(TS,CalcFC,NoEigenTest,MaxCycle=500,cartesian) Freq B3LYP 6-31G(
 d)
 ----------------------------------------------------------------------
 1/5=1,6=500,10=4,11=1,14=-1,18=10,26=3,38=1/1,3;
 2/12=2,17=6,18=5,29=2,40=1/2;
 3/5=1,6=6,7=1,11=2,16=1,25=1,30=1,71=2,74=-5,140=1/1,2,3;
 4//1;
 5/5=2,38=5/2;
 8/6=4,10=90,11=11/1;
 11/6=1,8=1,9=11,15=111,16=1/1,2,10;
 10/6=1,13=1/2;
 6/7=2,8=2,9=2,10=2,28=1/1;
 7/7=1,10=1,18=20,25=1/1,2,3,16;
 1/5=1,6=500,10=4,11=1,14=-1,18=10,26=3/3(2);
 2/29=1/2;
 99/12=1/99;
 2/29=1/2;
 3/5=1,6=6,7=1,11=2,16=1,25=1,30=1,71=1,74=-5/1,2,3;
 4/5=5,16=3,69=1/1;
 5/5=2,38=5/2;
 7/7=1/1,2,3,16;
 1/5=1,6=500,11=1,14=-1,18=10,26=3/3(-5);
 2/29=1/2;
 6/7=2,8=2,9=2,10=2,19=2,28=1/1;
 99/9=1,12=1/99;
 -------------------------
 boat1_Alpha_B3LYP_6-31G_d
 -------------------------
 Symbolic Z-matrix:
 Charge =  0 Multiplicity = 1
 1                    0    -0.37595  -0.88713   1.0733 
 6                    0    -0.71013  -0.82016   0.03103 
 6                    0    -1.16104   1.72425   0.1072 
 6                    0     1.12592   1.06263  -0.82085 
 6                    0     0.36421   1.7764    0.29296 
 8                    0     0.384    -0.53581  -0.84129 
 6                    0    -1.75602   0.305    -0.07547 
 1                    0     0.65178   2.8378    0.19763 
 1                    0    -2.17338   0.26081  -1.09983 
 6                    0    -1.26679  -2.17345  -0.43155 
 1                    0    -0.50125  -2.94614  -0.27247 
 1                    0    -1.47577  -2.09767  -1.51042 
 1                    0    -1.62866   2.13749   1.01598 
 8                    0    -2.46088  -2.47607   0.30812 
 1                    0    -2.80944  -3.32761   0.00881 
 8                    0     0.78535   1.2444    1.53919 
 1                    0     0.19827   1.58991   2.23056 
 8                    0    -1.43087   2.57257  -1.00799 
 1                    0    -2.38672   2.55008  -1.17029 
 8                    0    -2.77746   0.161     0.90342 
 1                    0    -3.074    -0.76767   0.85817 
 1                    0     0.75296   1.36419  -1.80931 
 8                    0     2.39629   0.90757  -0.72482 
 8                    0     2.1347   -2.14918  -0.35339 
 1                    0     2.61579  -2.36767  -1.16204 
 1                    0     2.83737  -1.45358   0.34395 
 1                    0     1.30659  -1.38313  -0.64786 
 8                    0     3.37633  -0.53989   0.95716 
 1                    0     4.32142  -0.50948   0.73076 
 1                    0     2.9044    0.27499   0.34992 
 

 GradGradGradGradGradGradGradGradGradGradGradGradGradGradGradGradGradGrad
 Berny optimization.
 Initialization pass.
 No Z-matrix variables, so optimization will use Cartesian coordinates.
 Trust Radius=3.00D-01 FncErr=1.00D-07 GrdErr=1.00D-06
 Number of steps in this run=    180 maximum allowed number of steps=    180.
 Search for a saddle point of order  1.
 GradGradGradGradGradGradGradGradGradGradGradGradGradGradGradGradGradGrad

 ---------------------------------------------------------------------------------------------------
                            Z-MATRIX (ANGSTROMS AND DEGREES)
   CD    Cent   Atom    N1       Length/X        N2       Alpha/Y        N3        Beta/Z          J
 ---------------------------------------------------------------------------------------------------
      1      1  H        0  -0.375947         -0.887129          1.073301
      2      2  C        0  -0.710133         -0.820158          0.031026
      3      3  C        0  -1.161039          1.724251          0.107203
      4      4  C        0   1.125923          1.062631         -0.820851
      5      5  C        0   0.364206          1.776398          0.292958
      6      6  O        0   0.384002         -0.535807         -0.841293
      7      7  C        0  -1.756018          0.304998         -0.075469
      8      8  H        0   0.651775          2.837804          0.197630
      9      9  H        0  -2.173382          0.260811         -1.099832
     10     10  C        0  -1.266790         -2.173451         -0.431549
     11     11  H        0  -0.501249         -2.946139         -0.272470
     12     12  H        0  -1.475774         -2.097667         -1.510418
     13     13  H        0  -1.628664          2.137487          1.015982
     14     14  O        0  -2.460876         -2.476070          0.308124
     15     15  H        0  -2.809444         -3.327609          0.008813
     16     16  O        0   0.785346          1.244398          1.539191
     17     17  H        0   0.198270          1.589913          2.230563
     18     18  O        0  -1.430865          2.572574         -1.007993
     19     19  H        0  -2.386724          2.550084         -1.170287
     20     20  O        0  -2.777464          0.161002          0.903421
     21     21  H        0  -3.074001         -0.767668          0.858172
     22     22  H        0   0.752958          1.364188         -1.809312
     23     23  O        0   2.396289          0.907571         -0.724816
     24     24  O        0   2.134700         -2.149180         -0.353392
     25     25  H        0   2.615788         -2.367670         -1.162042
     26     26  H        0   2.837374         -1.453580          0.343950
     27     27  H        0   1.306587         -1.383127         -0.647861
     28     28  O        0   3.376332         -0.539891          0.957160
     29     29  H        0   4.321421         -0.509477          0.730758
     30     30  H        0   2.904399          0.274991          0.349924
 ---------------------------------------------------------------------------------------------------
                         Z-Matrix orientation:                         
 ---------------------------------------------------------------------
 Center     Atomic      Atomic             Coordinates (Angstroms)
 Number     Number       Type             X           Y           Z
 ---------------------------------------------------------------------
      1          1           0       -0.375947   -0.887129    1.073301
      2          6           0       -0.710133   -0.820158    0.031026
      3          6           0       -1.161039    1.724251    0.107203
      4          6           0        1.125923    1.062631   -0.820851
      5          6           0        0.364206    1.776398    0.292958
      6          8           0        0.384002   -0.535807   -0.841293
      7          6           0       -1.756018    0.304998   -0.075469
      8          1           0        0.651775    2.837804    0.197630
      9          1           0       -2.173382    0.260811   -1.099832
     10          6           0       -1.266790   -2.173451   -0.431549
     11          1           0       -0.501249   -2.946139   -0.272470
     12          1           0       -1.475774   -2.097667   -1.510418
     13          1           0       -1.628664    2.137487    1.015982
     14          8           0       -2.460876   -2.476070    0.308124
     15          1           0       -2.809444   -3.327609    0.008813
     16          8           0        0.785346    1.244398    1.539191
     17          1           0        0.198270    1.589913    2.230563
     18          8           0       -1.430865    2.572574   -1.007993
     19          1           0       -2.386724    2.550084   -1.170287
     20          8           0       -2.777464    0.161002    0.903421
     21          1           0       -3.074001   -0.767668    0.858172
     22          1           0        0.752958    1.364188   -1.809312
     23          8           0        2.396289    0.907571   -0.724816
     24          8           0        2.134700   -2.149180   -0.353392
     25          1           0        2.615788   -2.367670   -1.162042
     26          1           0        2.837374   -1.453580    0.343950
     27          1           0        1.306587   -1.383127   -0.647861
     28          8           0        3.376332   -0.539891    0.957160
     29          1           0        4.321421   -0.509477    0.730758
     30          1           0        2.904399    0.274991    0.349924
 ---------------------------------------------------------------------
                    Distance matrix (angstroms):
                    1          2          3          4          5
     1  H    0.000000
     2  C    1.096587   0.000000
     3  C    2.892926   2.585176   0.000000
     4  C    3.105638   2.764361   2.555234   0.000000
     5  C    2.872479   2.822218   1.537399   1.526515   0.000000
     6  O    2.089646   1.427910   2.897354   1.762347   2.575502
     7  C    2.155327   1.539868   1.549725   3.071675   2.606934
     8  H    3.962088   3.906819   2.129430   2.100800   1.103796
     9  H    3.044839   2.142062   2.150216   3.406781   3.267449
    10  C    2.170898   1.534681   3.936181   4.043372   4.334324
    11  H    2.462991   2.157669   4.732020   4.361037   4.834364
    12  H    3.057879   2.143428   4.162068   4.151122   4.652534
    13  H    3.274277   3.249846   1.102414   3.480951   2.150507
    14  O    2.730780   2.425681   4.401436   5.163537   5.105370
    15  H    3.607074   3.270307   5.314904   5.953962   6.016949
    16  O    2.471652   2.961994   2.463587   2.391408   1.418971
    17  H    2.793692   3.386975   2.524762   3.232599   1.953618
    18  O    4.173030   3.620724   1.426927   2.975250   2.355557
    19  H    4.570705   3.951284   1.953531   3.830576   3.210497
    20  O    2.625780   2.449001   2.385485   4.361477   3.585005
    21  H    2.709252   2.504955   3.230021   4.879393   4.314279
    22  H    3.827834   3.209182   2.732409   1.098679   2.177288
    23  O    3.760248   3.634034   3.743502   1.283392   2.433123
    24  O    3.151440   3.163408   5.106614   3.398806   4.354604
    25  H    4.017367   3.857454   5.711324   3.755406   4.935580
    26  H    3.343389   3.617174   5.112921   3.258396   4.068405
    27  H    2.457506   2.201132   4.039195   2.458515   3.428676
    28  O    3.770101   4.199461   5.141644   3.285383   3.857365
    29  H    4.724957   5.089468   5.952792   3.884613   4.590909
    30  H    3.554500   3.790236   4.322853   2.270257   2.951279
                    6          7          8          9         10
     6  O    0.000000
     7  C    2.423453   0.000000
     8  H    3.540101   3.505304   0.000000
     9  H    2.691032   1.107007   4.038046   0.000000
    10  C    2.361119   2.551244   5.402725   2.682190   0.000000
    11  H    2.630006   3.490436   5.916456   3.710133   1.099275
    12  H    2.519107   2.812546   5.639394   2.493523   1.101533
    13  H    3.827113   2.136703   2.522012   2.880156   4.561851
    14  O    3.630305   2.894531   6.159388   3.091199   1.436849
    15  H    4.326076   3.783205   7.073048   3.809255   1.976305
    16  O    2.999485   3.154066   2.087240   4.084845   4.447108
    17  H    3.740251   3.284514   2.428109   4.299160   4.836957
    18  O    3.603271   2.473303   2.421005   2.429818   4.783718
    19  H    4.160274   2.576204   3.344616   2.300272   4.910374
    20  O    3.677559   1.422080   4.407163   2.094731   3.084469
    21  H    3.860016   1.938911   5.226581   2.388025   2.627854
    22  H    2.164063   3.228476   2.491907   3.206909   4.300291
    23  O    2.479154   4.245751   2.760441   4.630424   4.795503
    24  O    2.430219   4.608462   5.231893   4.992474   3.402474
    25  H    2.905077   5.237985   5.727392   5.463418   3.955471
    26  H    2.875090   4.936371   4.818115   5.489200   4.238369
    27  H    1.267490   3.543578   4.354296   3.875177   2.700680
    28  O    3.491202   5.302940   4.405556   5.972576   5.114256
    29  H    4.239729   6.184548   4.995480   6.791676   5.945407
    30  H    2.903238   4.679887   3.415482   5.280706   4.899427
                   11         12         13         14         15
    11  H    0.000000
    12  H    1.789447   0.000000
    13  H    5.364180   4.933822   0.000000
    14  O    2.097187   2.102548   4.741155   0.000000
    15  H    2.356354   2.366325   5.681189   0.967577   0.000000
    16  O    4.743210   5.057883   2.626557   5.088749   6.013969
    17  H    5.227836   5.513221   2.261135   5.224849   6.177745
    18  O    5.644588   4.697403   2.079639   5.318072   6.143821
    19  H    5.879588   4.748380   2.350460   5.239601   6.009679
    20  O    4.027183   3.552830   2.288865   2.721903   3.601632
    21  H    3.555719   3.151737   3.248666   1.896606   2.710111
    22  H    4.744875   4.128078   3.775235   5.436897   6.165164
    23  O    4.842667   4.964020   4.554483   6.008997   6.750898
    24  O    2.754981   3.791686   5.866311   4.654437   5.095532
    25  H    3.292702   4.115234   6.561677   5.286365   5.632542
    26  H    3.708653   4.738858   5.769999   5.396130   5.959099
    27  H    2.419131   2.999351   4.876351   4.037599   4.599341
    28  O    4.726273   5.662026   5.676425   6.184095   6.850880
    29  H    5.495629   6.415036   6.518534   7.074296   7.701448
    30  H    4.728794   5.317546   4.945825   6.029615   6.763363
                   16         17         18         19         20
    16  O    0.000000
    17  H    0.970584   0.000000
    18  O    3.628194   3.756055   0.000000
    19  H    4.371283   4.378345   0.969800   0.000000
    20  O    3.777773   3.557820   3.358945   3.187578   0.000000
    21  H    4.405310   4.260212   4.164095   3.948984   0.975915
    22  H    3.350802   4.084020   2.621334   3.416476   4.611991
    23  O    2.798985   3.745817   4.183244   5.076761   5.475056
    24  O    4.113271   4.940385   5.952875   6.572189   5.571883
    25  H    4.867670   5.746009   6.387890   7.014948   6.304561
    26  H    3.594232   4.448261   6.021257   6.753772   5.869096
    27  H    3.458146   4.284000   4.823993   5.420666   4.633604
    28  O    3.199321   4.032084   6.054619   6.876539   6.193815
    29  H    4.029078   4.863870   6.753598   7.614072   7.132568
    30  H    2.616198   3.548092   5.090908   5.956767   5.709897
                   21         22         23         24         25
    21  H    0.000000
    22  H    5.128927   0.000000
    23  O    5.936021   2.021180   0.000000
    24  O    5.523317   4.046315   3.090325   0.000000
    25  H    6.246196   4.220884   3.311578   0.965970   0.000000
    26  H    5.973211   4.113532   2.629040   1.209916   1.775577
    27  H    4.672952   3.033680   2.537847   1.165899   1.716891
    28  O    6.455112   4.261570   2.425835   2.418472   2.900038
    29  H    7.401024   4.764085   2.798724   2.940367   3.153531
    30  H    6.089887   3.236873   1.346625   2.638881   3.058267
                   26         27         28         29         30
    26  H    0.000000
    27  H    1.825366   0.000000
    28  O    1.225288   2.751542   0.000000
    29  H    1.800929   3.428276   0.972305   0.000000
    30  H    1.729880   2.509568   1.120486   1.663844   0.000000
 Stoichiometry    C6H16O8
 Framework group  C1[X(C6H16O8)]
 Deg. of freedom    84
 Full point group                 C1      NOp   1
 Largest Abelian subgroup         C1      NOp   1
 Largest concise Abelian subgroup C1      NOp   1
                         Standard orientation:                         
 ---------------------------------------------------------------------
 Center     Atomic      Atomic             Coordinates (Angstroms)
 Number     Number       Type             X           Y           Z
 ---------------------------------------------------------------------
      1          1           0        0.375947    0.887129    1.073301
      2          6           0        0.710133    0.820158    0.031026
      3          6           0        1.161038   -1.724251    0.107203
      4          6           0       -1.125923   -1.062631   -0.820851
      5          6           0       -0.364207   -1.776398    0.292958
      6          8           0       -0.384002    0.535807   -0.841293
      7          6           0        1.756018   -0.304999   -0.075469
      8          1           0       -0.651776   -2.837804    0.197630
      9          1           0        2.173382   -0.260812   -1.099832
     10          6           0        1.266791    2.173451   -0.431549
     11          1           0        0.501250    2.946139   -0.272470
     12          1           0        1.475775    2.097667   -1.510418
     13          1           0        1.628663   -2.137487    1.015982
     14          8           0        2.460877    2.476069    0.308124
     15          1           0        2.809445    3.327608    0.008813
     16          8           0       -0.785346   -1.244398    1.539191
     17          1           0       -0.198271   -1.589913    2.230563
     18          8           0        1.430864   -2.572574   -1.007993
     19          1           0        2.386723   -2.550085   -1.170287
     20          8           0        2.777464   -0.161003    0.903421
     21          1           0        3.074001    0.767667    0.858172
     22          1           0       -0.752958   -1.364188   -1.809312
     23          8           0       -2.396289   -0.907570   -0.724816
     24          8           0       -2.134699    2.149181   -0.353392
     25          1           0       -2.615787    2.367671   -1.162042
     26          1           0       -2.837374    1.453581    0.343950
     27          1           0       -1.306587    1.383127   -0.647861
     28          8           0       -3.376332    0.539892    0.957160
     29          1           0       -4.321421    0.509478    0.730758
     30          1           0       -2.904399   -0.274990    0.349924
 ---------------------------------------------------------------------
 Rotational constants (GHZ):      0.7506724      0.5484968      0.3817547
 Standard basis: 6-31G(d) (6D, 7F)
 There are   242 symmetry adapted cartesian basis functions of A   symmetry.
 There are   242 symmetry adapted basis functions of A   symmetry.
   242 basis functions,   456 primitive gaussians,   242 cartesian basis functions
    58 alpha electrons       58 beta electrons
       nuclear repulsion energy      1119.3232704618 Hartrees.
 NAtoms=   30 NActive=   30 NUniq=   30 SFac= 1.00D+00 NAtFMM=   60 NAOKFM=F Big=F
 Integral buffers will be    131072 words long.
 Raffenetti 2 integral format.
 Two-electron integral symmetry is turned on.
 One-electron integrals computed using PRISM.
 NBasis=   242 RedAO= T EigKep=  1.40D-03  NBF=   242
 NBsUse=   242 1.00D-06 EigRej= -1.00D+00 NBFU=   242
 ExpMin= 1.61D-01 ExpMax= 5.48D+03 ExpMxC= 8.25D+02 IAcc=1 IRadAn=         1 AccDes= 0.00D+00
 Harris functional with IExCor=  402 and IRadAn=       1 diagonalized for initial guess.
 HarFok:  IExCor=  402 AccDes= 0.00D+00 IRadAn=         1 IDoV= 1 UseB2=F ITyADJ=14
 ICtDFT=  3500011 ScaDFX=  1.000000  1.000000  1.000000  1.000000
 FoFCou: FMM=F IPFlag=           0 FMFlag=      100000 FMFlg1=           0
         NFxFlg=           0 DoJE=T BraDBF=F KetDBF=T FulRan=T
         wScrn=  0.000000 ICntrl=     500 IOpCl=  0 I1Cent=   200000004 NGrid=           0
         NMat0=    1 NMatS0=      1 NMatT0=    0 NMatD0=    1 NMtDS0=    0 NMtDT0=    0
 Petite list used in FoFCou.
 Requested convergence on RMS density matrix=1.00D-08 within 128 cycles.
 Requested convergence on MAX density matrix=1.00D-06.
 Requested convergence on             energy=1.00D-06.
 No special actions if energy rises.
 Integral accuracy reduced to 1.0D-05 until final iterations.
 Initial convergence to 1.0D-05 achieved.  Increase integral accuracy.
 SCF Done:  E(RB3LYP) =  -839.948403860     A.U. after   14 cycles
            NFock= 14  Conv=0.66D-08     -V/T= 2.0086
 DoSCS=F DFT=T ScalE2(SS,OS)=  1.000000  1.000000
 Range of M.O.s used for correlation:     1   242
 NBasis=   242 NAE=    58 NBE=    58 NFC=     0 NFV=     0
 NROrb=    242 NOA=    58 NOB=    58 NVA=   184 NVB=   184
 Symmetrizing basis deriv contribution to polar:
 IMax=3 JMax=2 DiffMx= 0.00D+00
 G2DrvN: will do    31 centers at a time, making    1 passes.
 Calling FoFCou, ICntrl=  3107 FMM=F I1Cent=   0 AccDes= 0.00D+00.
 End of G2Drv F.D. properties file   721 does not exist.
 End of G2Drv F.D. properties file   722 does not exist.
 End of G2Drv F.D. properties file   788 does not exist.
          IDoAtm=111111111111111111111111111111
          Differentiating once with respect to nuclear coordinates.
          There are    93 degrees of freedom in the 1st order CPHF.  IDoFFX=6 NUNeed=     0.
     87 vectors produced by pass  0 Test12= 1.15D-14 1.08D-09 XBig12= 1.53D-01 6.32D-02.
 AX will form    87 AO Fock derivatives at one time.
     87 vectors produced by pass  1 Test12= 1.15D-14 1.08D-09 XBig12= 3.48D-02 2.03D-02.
     87 vectors produced by pass  2 Test12= 1.15D-14 1.08D-09 XBig12= 3.12D-04 1.84D-03.
     87 vectors produced by pass  3 Test12= 1.15D-14 1.08D-09 XBig12= 7.45D-07 8.88D-05.
     87 vectors produced by pass  4 Test12= 1.15D-14 1.08D-09 XBig12= 9.59D-10 3.06D-06.
     68 vectors produced by pass  5 Test12= 1.15D-14 1.08D-09 XBig12= 8.40D-13 1.16D-07.
      2 vectors produced by pass  6 Test12= 1.15D-14 1.08D-09 XBig12= 6.52D-16 2.01D-09.
 InvSVY:  IOpt=1 It=  1 EMax= 6.66D-16
 Solved reduced A of dimension   505 with    93 vectors.
 End of Minotr F.D. properties file   721 does not exist.
 End of Minotr F.D. properties file   722 does not exist.
 End of Minotr F.D. properties file   788 does not exist.

 **********************************************************************

            Population analysis using the SCF density.

 **********************************************************************

 Orbital symmetries:
       Occupied  (A) (A) (A) (A) (A) (A) (A) (A) (A) (A) (A) (A)
                 (A) (A) (A) (A) (A) (A) (A) (A) (A) (A) (A) (A)
                 (A) (A) (A) (A) (A) (A) (A) (A) (A) (A) (A) (A)
                 (A) (A) (A) (A) (A) (A) (A) (A) (A) (A) (A) (A)
                 (A) (A) (A) (A) (A) (A) (A) (A) (A) (A)
       Virtual   (A) (A) (A) (A) (A) (A) (A) (A) (A) (A) (A) (A)
                 (A) (A) (A) (A) (A) (A) (A) (A) (A) (A) (A) (A)
                 (A) (A) (A) (A) (A) (A) (A) (A) (A) (A) (A) (A)
                 (A) (A) (A) (A) (A) (A) (A) (A) (A) (A) (A) (A)
                 (A) (A) (A) (A) (A) (A) (A) (A) (A) (A) (A) (A)
                 (A) (A) (A) (A) (A) (A) (A) (A) (A) (A) (A) (A)
                 (A) (A) (A) (A) (A) (A) (A) (A) (A) (A) (A) (A)
                 (A) (A) (A) (A) (A) (A) (A) (A) (A) (A) (A) (A)
                 (A) (A) (A) (A) (A) (A) (A) (A) (A) (A) (A) (A)
                 (A) (A) (A) (A) (A) (A) (A) (A) (A) (A) (A) (A)
                 (A) (A) (A) (A) (A) (A) (A) (A) (A) (A) (A) (A)
                 (A) (A) (A) (A) (A) (A) (A) (A) (A) (A) (A) (A)
                 (A) (A) (A) (A) (A) (A) (A) (A) (A) (A) (A) (A)
                 (A) (A) (A) (A) (A) (A) (A) (A) (A) (A) (A) (A)
                 (A) (A) (A) (A) (A) (A) (A) (A) (A) (A) (A) (A)
                 (A) (A) (A) (A)
 The electronic state is 1-A.
 Alpha  occ. eigenvalues --  -19.16874 -19.15757 -19.15464 -19.14738 -19.14702
 Alpha  occ. eigenvalues --  -19.14219 -19.12901 -19.09597 -10.26776 -10.23893
 Alpha  occ. eigenvalues --  -10.23483 -10.23058 -10.23026 -10.23020  -1.04339
 Alpha  occ. eigenvalues --   -1.03610  -1.02869  -1.01704  -1.00450  -0.99999
 Alpha  occ. eigenvalues --   -0.99464  -0.96561  -0.76298  -0.74599  -0.68577
 Alpha  occ. eigenvalues --   -0.63082  -0.59937  -0.56751  -0.55014  -0.53702
 Alpha  occ. eigenvalues --   -0.53268  -0.52170  -0.50516  -0.49546  -0.48244
 Alpha  occ. eigenvalues --   -0.46376  -0.46007  -0.44497  -0.42669  -0.41784
 Alpha  occ. eigenvalues --   -0.41257  -0.40156  -0.39214  -0.37899  -0.37098
 Alpha  occ. eigenvalues --   -0.35891  -0.35458  -0.34378  -0.33076  -0.31382
 Alpha  occ. eigenvalues --   -0.30586  -0.28751  -0.28077  -0.27296  -0.26697
 Alpha  occ. eigenvalues --   -0.25243  -0.24673  -0.22874
 Alpha virt. eigenvalues --    0.03848   0.05849   0.06653   0.07837   0.08499
 Alpha virt. eigenvalues --    0.09927   0.11461   0.12771   0.14545   0.15664
 Alpha virt. eigenvalues --    0.16143   0.16890   0.18120   0.19582   0.19965
 Alpha virt. eigenvalues --    0.21771   0.22016   0.23348   0.24512   0.25532
 Alpha virt. eigenvalues --    0.26815   0.27561   0.28020   0.30919   0.31722
 Alpha virt. eigenvalues --    0.32930   0.34150   0.38223   0.52329   0.54478
 Alpha virt. eigenvalues --    0.56047   0.56271   0.57456   0.58391   0.60675
 Alpha virt. eigenvalues --    0.62016   0.63345   0.64212   0.65463   0.66423
 Alpha virt. eigenvalues --    0.67613   0.69630   0.70495   0.72689   0.74125
 Alpha virt. eigenvalues --    0.75810   0.77100   0.78616   0.79320   0.80393
 Alpha virt. eigenvalues --    0.81151   0.81934   0.82800   0.85045   0.85583
 Alpha virt. eigenvalues --    0.86155   0.86628   0.88322   0.90179   0.90425
 Alpha virt. eigenvalues --    0.91921   0.93190   0.94713   0.95318   0.97918
 Alpha virt. eigenvalues --    0.98146   0.98887   0.99912   1.00546   1.01819
 Alpha virt. eigenvalues --    1.03052   1.04228   1.06368   1.09197   1.09669
 Alpha virt. eigenvalues --    1.11809   1.12700   1.14559   1.15189   1.16265
 Alpha virt. eigenvalues --    1.17827   1.23038   1.26245   1.27366   1.28581
 Alpha virt. eigenvalues --    1.30036   1.32693   1.36247   1.38048   1.39548
 Alpha virt. eigenvalues --    1.41462   1.45862   1.48816   1.49744   1.51276
 Alpha virt. eigenvalues --    1.53914   1.55713   1.59040   1.60519   1.61872
 Alpha virt. eigenvalues --    1.63123   1.65909   1.66485   1.67909   1.70155
 Alpha virt. eigenvalues --    1.70873   1.71542   1.72399   1.72820   1.74295
 Alpha virt. eigenvalues --    1.76162   1.77746   1.79496   1.80159   1.81105
 Alpha virt. eigenvalues --    1.81709   1.82547   1.84623   1.86630   1.87313
 Alpha virt. eigenvalues --    1.90355   1.91233   1.92026   1.94757   1.95411
 Alpha virt. eigenvalues --    1.98099   1.99454   2.00677   2.04637   2.05071
 Alpha virt. eigenvalues --    2.05725   2.08618   2.12280   2.15413   2.16575
 Alpha virt. eigenvalues --    2.21495   2.22864   2.25789   2.27580   2.32692
 Alpha virt. eigenvalues --    2.33931   2.34915   2.37111   2.39514   2.41951
 Alpha virt. eigenvalues --    2.44105   2.45668   2.48722   2.48785   2.50512
 Alpha virt. eigenvalues --    2.51348   2.52967   2.56248   2.56705   2.58712
 Alpha virt. eigenvalues --    2.63142   2.66667   2.67535   2.72126   2.74617
 Alpha virt. eigenvalues --    2.77065   2.79741   2.84788   2.87808   2.91098
 Alpha virt. eigenvalues --    2.93481   2.97153   3.00751   3.04854   3.06105
 Alpha virt. eigenvalues --    3.72392   3.76352   3.80341   3.87269   3.91137
 Alpha virt. eigenvalues --    3.95455   4.05943   4.14483   4.29606   4.36764
 Alpha virt. eigenvalues --    4.46243   4.55540   4.63640   4.82198
          Condensed to atoms (all electrons):
               1          2          3          4          5          6
     1  H    0.610209   0.356360  -0.007670  -0.001445  -0.001567  -0.033837
     2  C    0.356360   4.972251  -0.032276  -0.010166  -0.001362   0.142583
     3  C   -0.007670  -0.032276   5.044004  -0.019888   0.278916  -0.000092
     4  C   -0.001445  -0.010166  -0.019888   4.673357   0.272980   0.066710
     5  C   -0.001567  -0.001362   0.278916   0.272980   5.108455  -0.026835
     6  O   -0.033837   0.142583  -0.000092   0.066710  -0.026835   8.631267
     7  C   -0.056596   0.299330   0.312587  -0.016942  -0.024008  -0.026012
     8  H    0.000096   0.000379  -0.054130  -0.041379   0.351352   0.002406
     9  H    0.007724  -0.052004  -0.067135   0.001719   0.000486   0.005246
    10  C   -0.052319   0.335375   0.004011   0.000878   0.000024  -0.042441
    11  H   -0.007150  -0.034065  -0.000117  -0.000079   0.000006   0.000908
    12  H    0.006958  -0.034230  -0.000212   0.000033   0.000021   0.007084
    13  H    0.000449   0.004145   0.348567   0.004867  -0.042674   0.000027
    14  O    0.004356  -0.038018   0.000062  -0.000006   0.000003   0.001219
    15  H   -0.000234   0.005175   0.000007   0.000001  -0.000000  -0.000090
    16  O    0.013170  -0.002298  -0.033297  -0.039783   0.210759  -0.000823
    17  H    0.000126   0.000172  -0.005489   0.007029  -0.028541  -0.000121
    18  O   -0.000009   0.003313   0.192777   0.000190  -0.044050  -0.000124
    19  H    0.000011   0.000071  -0.021818   0.000070   0.005652  -0.000023
    20  O    0.005476  -0.029220  -0.038682   0.000208   0.001072   0.001381
    21  H    0.000351  -0.008111   0.005221  -0.000012  -0.000219   0.000029
    22  H   -0.000025   0.002707  -0.002220   0.374924  -0.086005  -0.032547
    23  O    0.000276   0.000961   0.002866   0.371881  -0.046027  -0.045821
    24  O    0.000930   0.006745   0.000009   0.002583  -0.000207  -0.095903
    25  H   -0.000059  -0.000355  -0.000001  -0.000022   0.000018   0.004535
    26  H   -0.000127   0.000091  -0.000007  -0.000449  -0.000051   0.004667
    27  H   -0.000206  -0.012992  -0.000102  -0.001628   0.001494   0.108840
    28  O    0.000114  -0.000099  -0.000006   0.010598   0.000168  -0.000753
    29  H   -0.000001   0.000003  -0.000000  -0.000307   0.000013   0.000008
    30  H   -0.000105   0.000293   0.000375  -0.021193  -0.008409   0.002837
               7          8          9         10         11         12
     1  H   -0.056596   0.000096   0.007724  -0.052319  -0.007150   0.006958
     2  C    0.299330   0.000379  -0.052004   0.335375  -0.034065  -0.034230
     3  C    0.312587  -0.054130  -0.067135   0.004011  -0.000117  -0.000212
     4  C   -0.016942  -0.041379   0.001719   0.000878  -0.000079   0.000033
     5  C   -0.024008   0.351352   0.000486   0.000024   0.000006   0.000021
     6  O   -0.026012   0.002406   0.005246  -0.042441   0.000908   0.007084
     7  C    4.983774   0.005710   0.344431  -0.024107   0.005802  -0.014342
     8  H    0.005710   0.620719  -0.000317   0.000021  -0.000000  -0.000001
     9  H    0.344431  -0.000317   0.683601  -0.013385   0.000052   0.007231
    10  C   -0.024107   0.000021  -0.013385   4.974715   0.362108   0.344663
    11  H    0.005802  -0.000000   0.000052   0.362108   0.594560  -0.049107
    12  H   -0.014342  -0.000001   0.007231   0.344663  -0.049107   0.635504
    13  H   -0.066804  -0.006465   0.006447  -0.000233   0.000005  -0.000002
    14  O    0.004638  -0.000000   0.000454   0.201338  -0.031606  -0.034861
    15  H    0.000010   0.000000  -0.000095  -0.017641  -0.003535  -0.004069
    16  O    0.000781  -0.032750  -0.000002   0.000407   0.000001  -0.000008
    17  H   -0.001053  -0.002891   0.000046  -0.000042   0.000000   0.000001
    18  O   -0.037227   0.006344   0.002967  -0.000062   0.000001  -0.000012
    19  H   -0.002730  -0.000357   0.003755  -0.000008   0.000000   0.000002
    20  O    0.218489  -0.000091  -0.039059  -0.001099  -0.000214   0.000138
    21  H   -0.025272   0.000006  -0.002132  -0.004023   0.000491   0.000486
    22  H    0.000824   0.002762   0.000328  -0.000114   0.000003  -0.000025
    23  O    0.000168  -0.001133   0.000008  -0.000049   0.000000   0.000003
    24  O   -0.000072   0.000001   0.000003  -0.002542   0.007001   0.000072
    25  H   -0.000002  -0.000000  -0.000000   0.000214  -0.000158  -0.000013
    26  H    0.000019   0.000002  -0.000000  -0.000035   0.000098  -0.000005
    27  H    0.001330  -0.000057  -0.000081  -0.001454   0.001429   0.000137
    28  O   -0.000003  -0.000023   0.000000   0.000002   0.000010   0.000000
    29  H    0.000000   0.000001   0.000000  -0.000000  -0.000000  -0.000000
    30  H    0.000005   0.000231  -0.000000  -0.000003  -0.000006  -0.000001
              13         14         15         16         17         18
     1  H    0.000449   0.004356  -0.000234   0.013170   0.000126  -0.000009
     2  C    0.004145  -0.038018   0.005175  -0.002298   0.000172   0.003313
     3  C    0.348567   0.000062   0.000007  -0.033297  -0.005489   0.192777
     4  C    0.004867  -0.000006   0.000001  -0.039783   0.007029   0.000190
     5  C   -0.042674   0.000003  -0.000000   0.210759  -0.028541  -0.044050
     6  O    0.000027   0.001219  -0.000090  -0.000823  -0.000121  -0.000124
     7  C   -0.066804   0.004638   0.000010   0.000781  -0.001053  -0.037227
     8  H   -0.006465  -0.000000   0.000000  -0.032750  -0.002891   0.006344
     9  H    0.006447   0.000454  -0.000095  -0.000002   0.000046   0.002967
    10  C   -0.000233   0.201338  -0.017641   0.000407  -0.000042  -0.000062
    11  H    0.000005  -0.031606  -0.003535   0.000001   0.000000   0.000001
    12  H   -0.000002  -0.034861  -0.004069  -0.000008   0.000001  -0.000012
    13  H    0.639784   0.000001  -0.000000  -0.001015   0.009628  -0.032770
    14  O    0.000001   8.271428   0.235102  -0.000000   0.000000   0.000000
    15  H   -0.000000   0.235102   0.377967   0.000000  -0.000000  -0.000000
    16  O   -0.001015  -0.000000   0.000000   8.263547   0.234323   0.001433
    17  H    0.009628   0.000000  -0.000000   0.234323   0.387927   0.000027
    18  O   -0.032770   0.000000  -0.000000   0.001433   0.000027   8.301942
    19  H   -0.003534   0.000001  -0.000000  -0.000106  -0.000022   0.230729
    20  O    0.007245  -0.016359   0.000745  -0.000146   0.000313   0.000787
    21  H    0.000095   0.044835  -0.001443   0.000002   0.000009  -0.000112
    22  H    0.000106   0.000001  -0.000000   0.003203  -0.000225   0.010573
    23  O   -0.000072   0.000000  -0.000000   0.000465  -0.000123   0.000029
    24  O    0.000000   0.000011   0.000001  -0.000027  -0.000000  -0.000000
    25  H    0.000000  -0.000000  -0.000000  -0.000000   0.000000   0.000000
    26  H   -0.000000  -0.000000  -0.000000   0.000240  -0.000005   0.000000
    27  H    0.000007   0.000016  -0.000009  -0.000024   0.000019   0.000005
    28  O    0.000000   0.000000   0.000000  -0.000498   0.000063   0.000000
    29  H    0.000000  -0.000000  -0.000000   0.000032  -0.000002  -0.000000
    30  H   -0.000009  -0.000000   0.000000   0.008239  -0.000340  -0.000003
              19         20         21         22         23         24
     1  H    0.000011   0.005476   0.000351  -0.000025   0.000276   0.000930
     2  C    0.000071  -0.029220  -0.008111   0.002707   0.000961   0.006745
     3  C   -0.021818  -0.038682   0.005221  -0.002220   0.002866   0.000009
     4  C    0.000070   0.000208  -0.000012   0.374924   0.371881   0.002583
     5  C    0.005652   0.001072  -0.000219  -0.086005  -0.046027  -0.000207
     6  O   -0.000023   0.001381   0.000029  -0.032547  -0.045821  -0.095903
     7  C   -0.002730   0.218489  -0.025272   0.000824   0.000168  -0.000072
     8  H   -0.000357  -0.000091   0.000006   0.002762  -0.001133   0.000001
     9  H    0.003755  -0.039059  -0.002132   0.000328   0.000008   0.000003
    10  C   -0.000008  -0.001099  -0.004023  -0.000114  -0.000049  -0.002542
    11  H    0.000000  -0.000214   0.000491   0.000003   0.000000   0.007001
    12  H    0.000002   0.000138   0.000486  -0.000025   0.000003   0.000072
    13  H   -0.003534   0.007245   0.000095   0.000106  -0.000072   0.000000
    14  O    0.000001  -0.016359   0.044835   0.000001   0.000000   0.000011
    15  H   -0.000000   0.000745  -0.001443  -0.000000  -0.000000   0.000001
    16  O   -0.000106  -0.000146   0.000002   0.003203   0.000465  -0.000027
    17  H   -0.000022   0.000313   0.000009  -0.000225  -0.000123  -0.000000
    18  O    0.230729   0.000787  -0.000112   0.010573   0.000029  -0.000000
    19  H    0.388628   0.000690  -0.000076  -0.000156   0.000002  -0.000000
    20  O    0.000690   8.332506   0.228935  -0.000005   0.000000   0.000000
    21  H   -0.000076   0.228935   0.336380  -0.000000  -0.000000  -0.000000
    22  H   -0.000156  -0.000005  -0.000000   0.623097  -0.044596  -0.000051
    23  O    0.000002   0.000000  -0.000000  -0.044596   8.342376  -0.002833
    24  O   -0.000000   0.000000  -0.000000  -0.000051  -0.002833   8.520593
    25  H   -0.000000  -0.000000   0.000000   0.000011   0.000859   0.228269
    26  H    0.000000  -0.000000   0.000000   0.000074   0.005880   0.128999
    27  H    0.000000  -0.000025   0.000005   0.000140   0.008026   0.129507
    28  O   -0.000000   0.000000  -0.000000  -0.000263  -0.086799  -0.100946
    29  H    0.000000  -0.000000   0.000000   0.000011   0.004852   0.004719
    30  H    0.000000  -0.000000  -0.000000   0.003132   0.127725   0.007286
              25         26         27         28         29         30
     1  H   -0.000059  -0.000127  -0.000206   0.000114  -0.000001  -0.000105
     2  C   -0.000355   0.000091  -0.012992  -0.000099   0.000003   0.000293
     3  C   -0.000001  -0.000007  -0.000102  -0.000006  -0.000000   0.000375
     4  C   -0.000022  -0.000449  -0.001628   0.010598  -0.000307  -0.021193
     5  C    0.000018  -0.000051   0.001494   0.000168   0.000013  -0.008409
     6  O    0.004535   0.004667   0.108840  -0.000753   0.000008   0.002837
     7  C   -0.000002   0.000019   0.001330  -0.000003   0.000000   0.000005
     8  H   -0.000000   0.000002  -0.000057  -0.000023   0.000001   0.000231
     9  H   -0.000000  -0.000000  -0.000081   0.000000   0.000000  -0.000000
    10  C    0.000214  -0.000035  -0.001454   0.000002  -0.000000  -0.000003
    11  H   -0.000158   0.000098   0.001429   0.000010  -0.000000  -0.000006
    12  H   -0.000013  -0.000005   0.000137   0.000000  -0.000000  -0.000001
    13  H    0.000000  -0.000000   0.000007   0.000000   0.000000  -0.000009
    14  O   -0.000000  -0.000000   0.000016   0.000000  -0.000000  -0.000000
    15  H   -0.000000  -0.000000  -0.000009   0.000000  -0.000000   0.000000
    16  O   -0.000000   0.000240  -0.000024  -0.000498   0.000032   0.008239
    17  H    0.000000  -0.000005   0.000019   0.000063  -0.000002  -0.000340
    18  O    0.000000   0.000000   0.000005   0.000000  -0.000000  -0.000003
    19  H   -0.000000   0.000000   0.000000  -0.000000   0.000000   0.000000
    20  O   -0.000000  -0.000000  -0.000025   0.000000  -0.000000  -0.000000
    21  H    0.000000   0.000000   0.000005  -0.000000   0.000000  -0.000000
    22  H    0.000011   0.000074   0.000140  -0.000263   0.000011   0.003132
    23  O    0.000859   0.005880   0.008026  -0.086799   0.004852   0.127725
    24  O    0.228269   0.128999   0.129507  -0.100946   0.004719   0.007286
    25  H    0.370050  -0.006056  -0.003236   0.005164  -0.000274  -0.000565
    26  H   -0.006056   0.292697  -0.008761   0.138753  -0.005119  -0.013196
    27  H   -0.003236  -0.008761   0.295029   0.005212  -0.000164  -0.001836
    28  O    0.005164   0.138753   0.005212   8.490394   0.229358   0.121635
    29  H   -0.000274  -0.005119  -0.000164   0.229358   0.373130  -0.007046
    30  H   -0.000565  -0.013196  -0.001836   0.121635  -0.007046   0.312879
 Mulliken charges:
               1
     1  H    0.154742
     2  C    0.125243
     3  C    0.093741
     4  C    0.365271
     5  C    0.078537
     6  O   -0.674325
     7  C    0.117273
     8  H    0.149565
     9  H    0.109713
    10  C   -0.064200
    11  H    0.153561
    12  H    0.134556
    13  H    0.132205
    14  O   -0.642614
    15  H    0.408110
    16  O   -0.625822
    17  H    0.399169
    18  O   -0.636748
    19  H    0.399220
    20  O   -0.673086
    21  H    0.424555
    22  H    0.144335
    23  O   -0.638924
    24  O   -0.834146
    25  H    0.401622
    26  H    0.462294
    27  H    0.479379
    28  O   -0.812083
    29  H    0.400784
    30  H    0.468073
 Sum of Mulliken charges =  -0.00000
 Mulliken charges with hydrogens summed into heavy atoms:
               1
     2  C    0.279986
     3  C    0.225946
     4  C    0.509606
     5  C    0.228102
     6  O   -0.674325
     7  C    0.226986
    10  C    0.223917
    14  O   -0.234504
    16  O   -0.226653
    18  O   -0.237528
    20  O   -0.248530
    23  O   -0.638924
    24  O    0.509148
    28  O    0.056774
 APT charges:
               1
     1  H    0.291836
     2  C   -0.191609
     3  C   -0.281185
     4  C   -0.382750
     5  C   -0.426683
     6  O   -0.465092
     7  C   -0.240537
     8  H    0.536351
     9  H    0.352744
    10  C   -0.484044
    11  H    0.402870
    12  H    0.366151
    13  H    0.444466
    14  O   -1.162653
    15  H    0.991888
    16  O   -0.807360
    17  H    0.690182
    18  O   -0.894697
    19  H    0.768509
    20  O   -0.726700
    21  H    0.605362
    22  H    0.416882
    23  O   -0.300168
    24  O   -1.157675
    25  H    0.808163
    26  H    0.382335
    27  H    0.392397
    28  O   -1.269809
    29  H    0.977918
    30  H    0.362908
 Sum of APT charges =  -0.00000
 APT charges with hydrogens summed into heavy atoms:
               1
     2  C    0.100227
     3  C    0.163280
     4  C    0.034132
     5  C    0.109668
     6  O   -0.465092
     7  C    0.112207
    10  C    0.284976
    14  O   -0.170765
    16  O   -0.117178
    18  O   -0.126188
    20  O   -0.121338
    23  O   -0.300168
    24  O    0.425221
    28  O    0.071017
 Electronic spatial extent (au):  <R**2>=           3052.1015
 Charge=              0.0000 electrons
 Dipole moment (field-independent basis, Debye):
    X=              0.7147    Y=              3.0162    Z=             -1.4215  Tot=              3.4101
 Quadrupole moment (field-independent basis, Debye-Ang):
   XX=            -70.7735   YY=            -74.0240   ZZ=            -84.3227
   XY=             -1.6456   XZ=             -1.4978   YZ=             -8.5751
 Traceless Quadrupole moment (field-independent basis, Debye-Ang):
   XX=              5.5999   YY=              2.3494   ZZ=             -7.9493
   XY=             -1.6456   XZ=             -1.4978   YZ=             -8.5751
 Octapole moment (field-independent basis, Debye-Ang**2):
  XXX=            -66.2476  YYY=             45.5217  ZZZ=              6.6625  XYY=             25.8074
  XXY=             41.5689  XXZ=            -22.7304  XZZ=              1.5526  YZZ=              0.3968
  YYZ=             -2.4188  XYZ=             10.7829
 Hexadecapole moment (field-independent basis, Debye-Ang**3):
 XXXX=          -1408.1981 YYYY=          -1227.2679 ZZZZ=           -358.3419 XXXY=            -66.6207
 XXXZ=            -53.9328 YYYX=             83.8690 YYYZ=            -59.7742 ZZZX=             14.0339
 ZZZY=            -25.9392 XXYY=           -400.8682 XXZZ=           -385.9684 YYZZ=           -267.7221
 XXYZ=            -16.1459 YYXZ=              3.1368 ZZXY=            -22.5177
 N-N= 1.119323270462D+03 E-N=-4.212377025680D+03  KE= 8.327646906263D+02
  Exact polarizability:   0.000   0.000   0.000   0.000   0.000   0.000
 Approx polarizability: 147.763   3.733 134.603   0.490   2.084 126.561
 Calling FoFJK, ICntrl=    100147 FMM=F ISym2X=0 I1Cent= 0 IOpClX= 0 NMat=1 NMatS=1 NMatT=0.
 ***** Axes restored to original set *****
 -------------------------------------------------------------------
 Center     Atomic                   Forces (Hartrees/Bohr)
 Number     Number              X              Y              Z
 -------------------------------------------------------------------
      1        1          -0.000239337   -0.000210601   -0.000059165
      2        6          -0.000275332    0.000418404    0.000053545
      3        6           0.000527112   -0.000205409   -0.000537225
      4        6           0.001172378   -0.000193693   -0.000174936
      5        6           0.000088683    0.000447917   -0.000750650
      6        8          -0.000069302    0.000346743   -0.000593302
      7        6          -0.000723027    0.000028041   -0.000529176
      8        1           0.000262850   -0.000442884    0.000564144
      9        1           0.000408788    0.000175705    0.001095706
     10        6          -0.001075155   -0.000116542   -0.000258888
     11        1          -0.001023376    0.000279933   -0.000550708
     12        1          -0.000391893   -0.001049290    0.001066394
     13        1           0.000070586   -0.000494692    0.000472754
     14        8           0.002702973    0.001194893    0.000430629
     15        1           0.000104535   -0.000339584   -0.000801814
     16        8          -0.001688165   -0.001212678   -0.000323729
     17        1           0.001026043    0.000738265   -0.000409263
     18        8          -0.000309308   -0.000003655   -0.000147521
     19        1          -0.000085181    0.000054685    0.000467126
     20        8           0.000341460    0.000169436   -0.000696826
     21        1           0.000209968    0.000154575   -0.000269440
     22        1           0.000391729   -0.000256200    0.001066158
     23        8          -0.001706635   -0.000344235   -0.000061064
     24        8          -0.002223450    0.000371253    0.005029114
     25        1           0.002383648   -0.000040369   -0.003891789
     26        1           0.000840872   -0.000076277   -0.000354296
     27        1           0.000061815    0.000404818    0.000714009
     28        8           0.000281287    0.000853269   -0.000686366
     29        1          -0.001111002   -0.000394814    0.000349030
     30        1           0.000046436   -0.000257013   -0.000212451
 -------------------------------------------------------------------
 Cartesian Forces:  Max     0.005029114 RMS     0.000994344

 GradGradGradGradGradGradGradGradGradGradGradGradGradGradGradGradGradGrad
 Berny optimization.
 Search for a saddle point.
 Step number   1 out of a maximum of  180
 All quantities printed in internal units (Hartrees-Bohrs-Radians)
 Swapping is turned off.
 Second derivative matrix not updated -- analytic derivatives used.
 ITU=  0
     Eigenvalues ---   -0.10309  -0.00019   0.00030   0.00097   0.00138
     Eigenvalues ---    0.00184   0.00247   0.00278   0.00402   0.00508
     Eigenvalues ---    0.00744   0.00794   0.01037   0.01227   0.01329
     Eigenvalues ---    0.01391   0.01593   0.01730   0.02120   0.02255
     Eigenvalues ---    0.02630   0.02773   0.02953   0.03218   0.03524
     Eigenvalues ---    0.04082   0.04332   0.04935   0.05195   0.05538
     Eigenvalues ---    0.05815   0.06138   0.06320   0.06544   0.07168
     Eigenvalues ---    0.07628   0.07847   0.08209   0.09048   0.09471
     Eigenvalues ---    0.10197   0.11011   0.11207   0.12225   0.12884
     Eigenvalues ---    0.13107   0.14433   0.14615   0.15466   0.16275
     Eigenvalues ---    0.18187   0.19386   0.20187   0.21718   0.23480
     Eigenvalues ---    0.24145   0.25071   0.26660   0.30651   0.32442
     Eigenvalues ---    0.33269   0.37846   0.43813   0.50178   0.55301
     Eigenvalues ---    0.57875   0.61652   0.64283   0.66434   0.67782
     Eigenvalues ---    0.74461   0.78830   0.80352   0.81264   0.83035
     Eigenvalues ---    0.86012   0.91098   0.98097   1.00220   1.04011
     Eigenvalues ---    1.05432   1.07057   1.08378   1.19485
 Eigenvectors required to have negative eigenvalues:
                          X27       Y26       Z30       Y27       Z26
   1                    0.38673   0.35300  -0.31695  -0.30932   0.30513
                          X26       Y6        X30       Y4        Y30
   1                    0.27681   0.24694  -0.24101  -0.24039   0.20217
 RFO step:  Lambda0=1.002799185D-07 Lambda=-1.58222831D-03.
 Linear search not attempted -- option 19 set.
 Maximum step size (   0.300) exceeded in Quadratic search.
    -- Step size scaled by   0.266
 B after Tr=    -0.001631   -0.002213   -0.000813
         Rot=    1.000000    0.000311    0.000070   -0.000229 Ang=   0.04 deg.
 Variable       Old X    -DE/DX   Delta X   Delta X   Delta X     New X
                                 (Linear)    (Quad)   (Total)
    X1       -0.71044  -0.00024   0.00000  -0.03083  -0.03198  -0.74241
    Y1       -1.67643  -0.00021   0.00000  -0.00337  -0.00465  -1.68109
    Z1        2.02824  -0.00006   0.00000   0.00508   0.00521   2.03345
    X2       -1.34196  -0.00028   0.00000  -0.01376  -0.01469  -1.35665
    Y2       -1.54987   0.00042   0.00000  -0.00491  -0.00770  -1.55758
    Z2        0.05863   0.00005   0.00000  -0.00032  -0.00035   0.05828
    X3       -2.19405   0.00053   0.00000   0.00632   0.00317  -2.19088
    Y3        3.25836  -0.00021   0.00000  -0.00523  -0.00831   3.25005
    Z3        0.20258  -0.00054   0.00000   0.01963   0.01649   0.21908
    X4        2.12769   0.00117   0.00000  -0.00955  -0.01187   2.11581
    Y4        2.00808  -0.00019   0.00000  -0.01921  -0.02143   1.98665
    Z4       -1.55118  -0.00017   0.00000  -0.01522  -0.01697  -1.56815
    X5        0.68825   0.00009   0.00000   0.00956   0.00632   0.69457
    Y5        3.35691   0.00045   0.00000  -0.01800  -0.01955   3.33735
    Z5        0.55361  -0.00075   0.00000  -0.00413  -0.00692   0.54669
    X6        0.72566  -0.00007   0.00000   0.00238   0.00144   0.72710
    Y6       -1.01253   0.00035   0.00000  -0.01912  -0.02198  -1.03451
    Z6       -1.58981  -0.00059   0.00000   0.01425   0.01418  -1.57563
    X7       -3.31839  -0.00072   0.00000   0.00062  -0.00126  -3.31965
    Y7        0.57636   0.00003   0.00000   0.00458   0.00074   0.57710
    Z7       -0.14262  -0.00053   0.00000  -0.02967  -0.03130  -0.17392
    X8        1.23168   0.00026   0.00000   0.01967   0.01554   1.24721
    Y8        5.36267  -0.00044   0.00000  -0.02054  -0.02194   5.34073
    Z8        0.37347   0.00056   0.00000   0.00470   0.00074   0.37421
    X9       -4.10710   0.00041   0.00000   0.05158   0.05001  -4.05709
    Y9        0.49286   0.00018   0.00000   0.02401   0.01862   0.51148
    Z9       -2.07838   0.00110   0.00000  -0.05039  -0.05209  -2.13047
   X10       -2.39389  -0.00108   0.00000  -0.01490  -0.01453  -2.40842
   Y10       -4.10723  -0.00012   0.00000  -0.00380  -0.00762  -4.11485
   Z10       -0.81551  -0.00026   0.00000   0.00057   0.00198  -0.81353
   X11       -0.94722  -0.00102   0.00000  -0.00710  -0.00610  -0.95333
   Y11       -5.56740   0.00028   0.00000  -0.00026  -0.00324  -5.57064
   Z11       -0.51489  -0.00055   0.00000  -0.02275  -0.02023  -0.53512
   X12       -2.78881  -0.00039   0.00000  -0.04211  -0.04153  -2.83034
   Y12       -3.96402  -0.00105   0.00000  -0.00333  -0.00861  -3.97262
   Z12       -2.85428   0.00107   0.00000   0.00671   0.00797  -2.84631
   X13       -3.07773   0.00007   0.00000   0.02601   0.02228  -3.05545
   Y13        4.03927  -0.00049   0.00000  -0.04607  -0.04846   3.99081
   Z13        1.91993   0.00047   0.00000   0.04824   0.04452   1.96445
   X14       -4.65038   0.00270   0.00000   0.00838   0.00882  -4.64156
   Y14       -4.67909   0.00119   0.00000  -0.01814  -0.02210  -4.70119
   Z14        0.58227   0.00043   0.00000   0.03008   0.03154   0.61381
   X15       -5.30908   0.00010   0.00000  -0.03164  -0.03040  -5.33948
   Y15       -6.28827  -0.00034   0.00000   0.01647   0.01181  -6.27646
   Z15        0.01665  -0.00080   0.00000  -0.02341  -0.02106  -0.00441
   X16        1.48409  -0.00169   0.00000   0.01603   0.01294   1.49703
   Y16        2.35157  -0.00121   0.00000  -0.03917  -0.03890   2.31267
   Z16        2.90865  -0.00032   0.00000  -0.01558  -0.01762   2.89103
   X17        0.37468   0.00103   0.00000   0.10204   0.09842   0.47309
   Y17        3.00450   0.00074   0.00000   0.05615   0.05678   3.06128
   Z17        4.21515  -0.00041   0.00000   0.00907   0.00642   4.22158
   X18       -2.70394  -0.00031   0.00000  -0.01857  -0.02219  -2.72613
   Y18        4.86146  -0.00000   0.00000   0.04163   0.03702   4.89848
   Z18       -1.90483  -0.00015   0.00000   0.06124   0.05700  -1.84783
   X19       -4.51025  -0.00009   0.00000  -0.02239  -0.02595  -4.53621
   Y19        4.81896   0.00005   0.00000   0.04531   0.03969   4.85866
   Z19       -2.21152   0.00047   0.00000   0.08259   0.07812  -2.13340
   X20       -5.24865   0.00034   0.00000  -0.05020  -0.05220  -5.30084
   Y20        0.30425   0.00017   0.00000   0.00271  -0.00092   0.30333
   Z20        1.70722  -0.00070   0.00000  -0.08414  -0.08589   1.62133
   X21       -5.80902   0.00021   0.00000  -0.03338  -0.03456  -5.84358
   Y21       -1.45068   0.00015   0.00000  -0.00285  -0.00678  -1.45746
   Z21        1.62171  -0.00027   0.00000  -0.08468  -0.08540   1.53631
   X22        1.42288   0.00039   0.00000  -0.02898  -0.03130   1.39159
   Y22        2.57794  -0.00026   0.00000  -0.02390  -0.02761   2.55033
   Z22       -3.41910   0.00107   0.00000  -0.00878  -0.01099  -3.43009
   X23        4.52833  -0.00171   0.00000  -0.00736  -0.00958   4.51875
   Y23        1.71506  -0.00034   0.00000  -0.01325  -0.01427   1.70079
   Z23       -1.36970  -0.00006   0.00000  -0.03967  -0.04091  -1.41062
   X24        4.03400  -0.00222   0.00000   0.01389   0.01420   4.04820
   Y24       -4.06136   0.00037   0.00000   0.00225   0.00151  -4.05985
   Z24       -0.66781   0.00503   0.00000   0.05574   0.05802  -0.60980
   X25        4.94312   0.00238   0.00000   0.00411   0.00483   4.94795
   Y25       -4.47425  -0.00004   0.00000   0.00711   0.00583  -4.46842
   Z25       -2.19594  -0.00389   0.00000   0.04549   0.04815  -2.14779
   X26        5.36186   0.00084   0.00000   0.01983   0.01935   5.38121
   Y26       -2.74687  -0.00008   0.00000   0.02027   0.02094  -2.72593
   Z26        0.64997  -0.00035   0.00000   0.02583   0.02747   0.67744
   X27        2.46909   0.00006   0.00000   0.00632   0.00605   2.47515
   Y27       -2.61373   0.00040   0.00000  -0.00906  -0.01087  -2.62460
   Z27       -1.22428   0.00071   0.00000   0.05084   0.05201  -1.17227
   X28        6.38034   0.00028   0.00000   0.02778   0.02634   6.40669
   Y28       -1.02025   0.00085   0.00000   0.04316   0.04500  -0.97524
   Z28        1.80877  -0.00069   0.00000  -0.00979  -0.00910   1.79967
   X29        8.16630  -0.00111   0.00000   0.02455   0.02316   8.18946
   Y29       -0.96277  -0.00039   0.00000   0.03442   0.03680  -0.92597
   Z29        1.38093   0.00035   0.00000  -0.02156  -0.02066   1.36027
   X30        5.48852   0.00005   0.00000   0.01724   0.01528   5.50380
   Y30        0.51966  -0.00026   0.00000   0.01949   0.02019   0.53984
   Z30        0.66126  -0.00021   0.00000  -0.02993  -0.03031   0.63095
         Item               Value     Threshold  Converged?
 Maximum Force            0.005029     0.000450     NO 
 RMS     Force            0.000994     0.000300     NO 
 Maximum Displacement     0.098416     0.001800     NO 
 RMS     Displacement     0.031521     0.001200     NO 
 Predicted change in Energy=-4.884276D-04
 GradGradGradGradGradGradGradGradGradGradGradGradGradGradGradGradGradGrad

                          Input orientation:                          
 ---------------------------------------------------------------------
 Center     Atomic      Atomic             Coordinates (Angstroms)
 Number     Number       Type             X           Y           Z
 ---------------------------------------------------------------------
      1          1           0       -0.392868   -0.889592    1.076058
      2          6           0       -0.717907   -0.824234    0.030839
      3          6           0       -1.159363    1.719854    0.115930
      4          6           0        1.119639    1.051291   -0.829831
      5          6           0        0.367551    1.766051    0.289297
      6          8           0        0.384767   -0.547438   -0.833787
      7          6           0       -1.756683    0.305389   -0.092034
      8          1           0        0.659998    2.826192    0.198023
      9          1           0       -2.146918    0.270664   -1.127398
     10          6           0       -1.274481   -2.177485   -0.430501
     11          1           0       -0.504479   -2.947855   -0.283176
     12          1           0       -1.497751   -2.102222   -1.506201
     13          1           0       -1.616873    2.111845    1.039542
     14          8           0       -2.456210   -2.487764    0.324814
     15          1           0       -2.825530   -3.321358   -0.002334
     16          8           0        0.792193    1.223812    1.529865
     17          1           0        0.250349    1.619958    2.233961
     18          8           0       -1.442608    2.592165   -0.977832
     19          1           0       -2.400457    2.571090   -1.128945
     20          8           0       -2.805086    0.160517    0.857972
     21          1           0       -3.092291   -0.771254    0.812978
     22          1           0        0.736397    1.349576   -1.815127
     23          8           0        2.391221    0.900021   -0.746467
     24          8           0        2.142213   -2.148379   -0.322692
     25          1           0        2.618343   -2.364585   -1.136564
     26          1           0        2.847613   -1.442498    0.358484
     27          1           0        1.309791   -1.388878   -0.620340
     28          8           0        3.390272   -0.516077    0.952343
     29          1           0        4.333675   -0.490003    0.719826
     30          1           0        2.912484    0.285673    0.333886
 ---------------------------------------------------------------------
                    Distance matrix (angstroms):
                    1          2          3          4          5
     1  H    0.000000
     2  C    1.096542   0.000000
     3  C    2.884193   2.583507   0.000000
     4  C    3.112414   2.763137   2.556422   0.000000
     5  C    2.872225   2.820390   1.537419   1.526095   0.000000
     6  O    2.090286   1.428315   2.902915   1.759542   2.571741
     7  C    2.156944   1.539545   1.549437   3.061690   2.606016
     8  H    3.960622   3.905404   2.130914   2.101911   1.103519
     9  H    3.045998   2.140651   2.149717   3.371694   3.250503
    10  C    2.169246   1.534242   3.937143   4.039341   4.331958
    11  H    2.469092   2.157295   4.730292   4.350835   4.827947
    12  H    3.059296   2.145670   4.165823   4.153655   4.654750
    13  H    3.241627   3.232055   1.102738   3.479631   2.149507
    14  O    2.715860   2.423933   4.407890   5.161862   5.105863
    15  H    3.604754   3.267844   5.310736   5.947199   6.013531
    16  O    2.465114   2.953298   2.460455   2.388546   1.418926
    17  H    2.837659   3.430064   2.546237   3.235100   1.953663
    18  O    4.176488   3.635160   1.427399   2.993544   2.358974
    19  H    4.568235   3.962864   1.953108   3.845820   3.212689
    20  O    2.639903   2.451571   2.385490   4.364130   3.600939
    21  H    2.714792   2.500449   3.229196   4.874510   4.322345
    22  H    3.827279   3.201256   2.731299   1.098479   2.176718
    23  O    3.778289   3.639222   3.744663   1.283259   2.432705
    24  O    3.157163   3.171534   5.104510   3.397166   4.341281
    25  H    4.017299   3.855655   5.702846   3.742781   4.915415
    26  H    3.364719   3.633529   5.110299   3.258369   4.055894
    27  H    2.454812   2.203274   4.037701   2.456516   3.415968
    28  O    3.803547   4.221524   5.137913   3.284595   3.845072
    29  H    4.756762   5.109295   5.951607   3.886779   4.583151
    30  H    3.585725   3.808342   4.322536   2.270396   2.944518
                    6          7          8          9         10
     6  O    0.000000
     7  C    2.421429   0.000000
     8  H    3.538611   3.504130   0.000000
     9  H    2.676738   1.107009   4.020727   0.000000
    10  C    2.360677   2.551811   5.401300   2.690770   0.000000
    11  H    2.618383   3.491152   5.909922   3.710684   1.099126
    12  H    2.532462   2.804193   5.643538   2.489075   1.101200
    13  H    3.819386   2.136187   2.530333   2.892495   4.547155
    14  O    3.630202   2.909433   6.161571   3.132652   1.436404
    15  H    4.323419   3.782032   7.069754   3.824775   1.974215
    16  O    2.981639   3.157661   2.087798   4.075280   4.436552
    17  H    3.758558   3.341635   2.401637   4.343527   4.883139
    18  O    3.635540   2.472373   2.420403   2.430595   4.803894
    19  H    4.191635   2.573525   3.345490   2.314356   4.929970
    20  O    3.679458   1.422198   4.421330   2.094519   3.077201
    21  H    3.853811   1.939601   5.234449   2.396744   2.613075
    22  H    2.164563   3.205437   2.497800   3.154446   4.289636
    23  O    2.475606   4.241106   2.756688   4.597381   4.796692
    24  O    2.431635   4.612545   5.216748   4.989585   3.418519
    25  H    2.895265   5.230741   5.706173   5.445395   3.960759
    26  H    2.878933   4.945464   4.799283   5.485263   4.260794
    27  H    1.268562   3.543009   4.342668   3.867819   2.708580
    28  O    3.496328   5.315701   4.381114   5.966972   5.141251
    29  H    4.243924   6.195500   4.976478   6.781514   5.968439
    30  H    2.906353   4.688594   3.397998   5.266225   4.917531
                   11         12         13         14         15
    11  H    0.000000
    12  H    1.788148   0.000000
    13  H    5.346734   4.924770   0.000000
    14  O    2.095373   2.102357   4.729876   0.000000
    15  H    2.367626   2.347532   5.662689   0.968660   0.000000
    16  O    4.729828   5.052131   2.613927   5.077407   6.007838
    17  H    5.269787   5.558712   2.270486   5.276711   6.235275
    18  O    5.661665   4.724349   2.081075   5.341344   6.150920
    19  H    5.896508   4.774624   2.351010   5.263889   6.014223
    20  O    4.031995   3.523978   2.291834   2.723851   3.586641
    21  H    3.554703   3.113298   3.246606   1.894548   2.690525
    22  H    4.728061   4.123319   3.777310   5.431139   6.147452
    23  O    4.837961   4.971394   4.552270   6.010185   6.751909
    24  O    2.765087   3.827814   5.842595   4.656172   5.114390
    25  H    3.289452   4.140977   6.535359   5.282223   5.642486
    26  H    3.730194   4.774356   5.747071   5.405946   5.987057
    27  H    2.415712   3.029175   4.855475   4.035298   4.606223
    28  O    4.754907   5.696759   5.655535   6.201830   6.886015
    29  H    5.518585   6.446702   6.502373   7.088696   7.732548
    30  H    4.744692   5.342109   4.934362   6.042757   6.785906
                   16         17         18         19         20
    16  O    0.000000
    17  H    0.972768   0.000000
    18  O    3.627019   3.758578   0.000000
    19  H    4.367773   4.386407   0.969925   0.000000
    20  O    3.810833   3.654997   3.337579   3.149988   0.000000
    21  H    4.425316   4.348601   4.152233   3.926953   0.976067
    22  H    3.347820   4.087110   2.644457   3.435520   4.593628
    23  O    2.800610   3.739598   4.197038   5.089100   5.488415
    24  O    4.077522   4.931124   5.979373   6.599945   5.585762
    25  H    4.829209   5.731005   6.409827   7.039126   6.306179
    26  H    3.564560   4.431910   6.039059   6.772265   5.896791
    27  H    3.423074   4.280485   4.853061   5.450318   4.638776
    28  O    3.179742   4.008030   6.061639   6.884396   6.232909
    29  H    4.016892   4.839224   6.763671   7.624748   7.169670
    30  H    2.608851   3.532360   5.099738   5.965764   5.742903
                   21         22         23         24         25
    21  H    0.000000
    22  H    5.105263   0.000000
    23  O    5.940870   2.020539   0.000000
    24  O    5.530484   4.054549   3.087772   0.000000
    25  H    6.241054   4.218668   3.295666   0.967385   0.000000
    26  H    5.994964   4.120376   2.629944   1.208246   1.771434
    27  H    4.670566   3.042273   2.534652   1.165488   1.711958
    28  O    6.489080   4.264107   2.426807   2.418217   2.894199
    29  H    7.431874   4.769743   2.802732   2.939312   3.146841
    30  H    6.115876   3.238132   1.347701   2.636099   3.045096
                   26         27         28         29         30
    26  H    0.000000
    27  H    1.823697   0.000000
    28  O    1.226948   2.750185   0.000000
    29  H    1.801720   3.427520   0.971984   0.000000
    30  H    1.729563   2.506650   1.119631   1.664454   0.000000
 Stoichiometry    C6H16O8
 Framework group  C1[X(C6H16O8)]
 Deg. of freedom    84
 Full point group                 C1      NOp   1
 Largest Abelian subgroup         C1      NOp   1
 Largest concise Abelian subgroup C1      NOp   1
                         Standard orientation:                         
 ---------------------------------------------------------------------
 Center     Atomic      Atomic             Coordinates (Angstroms)
 Number     Number       Type             X           Y           Z
 ---------------------------------------------------------------------
      1          1           0        0.390803    0.889471    1.075428
      2          6           0        0.717987    0.821036    0.031075
      3          6           0        1.154472   -1.723667    0.123121
      4          6           0       -1.121211   -1.053065   -0.829169
      5          6           0       -0.372899   -1.766591    0.293274
      6          8           0       -0.383326    0.544269   -0.835293
      7          6           0        1.754901   -0.310819   -0.086876
      8          1           0       -0.667140   -2.826394    0.203862
      9          1           0        2.147447   -0.279269   -1.121468
     10          6           0        1.278105    2.172149   -0.432241
     11          1           0        0.509235    2.944307   -0.288406
     12          1           0        1.503567    2.093928   -1.507271
     13          1           0        1.609238   -2.114334    1.048647
     14          8           0        2.458772    2.481993    0.324911
     15          1           0        2.830369    3.314118   -0.003397
     16          8           0       -0.799212   -1.220629    1.531634
     17          1           0       -0.259644   -1.616128    2.237839
     18          8           0        1.438450   -2.599086   -0.967965
     19          1           0        2.396662   -2.580164   -1.117043
     20          8           0        2.801510   -0.165672    0.865064
     21          1           0        3.090563    0.765450    0.818500
     22          1           0       -0.736392   -1.354393   -1.812923
     23          8           0       -2.392684   -0.899215   -0.748926
     24          8           0       -2.138864    2.149705   -0.331794
     25          1           0       -2.612819    2.364882   -1.147208
     26          1           0       -2.847067    1.446757    0.349507
     27          1           0       -1.307228    1.387944   -0.625842
     28          8           0       -3.392755    0.522760    0.944365
     29          1           0       -4.335698    0.497907    0.709859
     30          1           0       -2.915134   -0.281342    0.328839
 ---------------------------------------------------------------------
 Rotational constants (GHZ):      0.7529321      0.5470493      0.3801060
 Standard basis: 6-31G(d) (6D, 7F)
 There are   242 symmetry adapted cartesian basis functions of A   symmetry.
 There are   242 symmetry adapted basis functions of A   symmetry.
   242 basis functions,   456 primitive gaussians,   242 cartesian basis functions
    58 alpha electrons       58 beta electrons
       nuclear repulsion energy      1119.0391477026 Hartrees.
 NAtoms=   30 NActive=   30 NUniq=   30 SFac= 1.00D+00 NAtFMM=   60 NAOKFM=F Big=F
 Integral buffers will be    131072 words long.
 Raffenetti 2 integral format.
 Two-electron integral symmetry is turned on.
 One-electron integrals computed using PRISM.
 NBasis=   242 RedAO= T EigKep=  1.39D-03  NBF=   242
 NBsUse=   242 1.00D-06 EigRej= -1.00D+00 NBFU=   242
 Initial guess from the checkpoint file:  "/scratch/10450853.yak.local/Gau-17160.chk"
 B after Tr=     0.000000   -0.000000    0.000000
         Rot=    0.999999    0.000590    0.000948    0.000503 Ang=   0.14 deg.
 ExpMin= 1.61D-01 ExpMax= 5.48D+03 ExpMxC= 8.25D+02 IAcc=1 IRadAn=         1 AccDes= 0.00D+00
 Harris functional with IExCor=  402 and IRadAn=       1 diagonalized for initial guess.
 HarFok:  IExCor=  402 AccDes= 0.00D+00 IRadAn=         1 IDoV= 1 UseB2=F ITyADJ=14
 ICtDFT=  3500011 ScaDFX=  1.000000  1.000000  1.000000  1.000000
 FoFCou: FMM=F IPFlag=           0 FMFlag=      100000 FMFlg1=           0
         NFxFlg=           0 DoJE=T BraDBF=F KetDBF=T FulRan=T
         wScrn=  0.000000 ICntrl=     500 IOpCl=  0 I1Cent=   200000004 NGrid=           0
         NMat0=    1 NMatS0=      1 NMatT0=    0 NMatD0=    1 NMtDS0=    0 NMtDT0=    0
 Petite list used in FoFCou.
 Requested convergence on RMS density matrix=1.00D-08 within 128 cycles.
 Requested convergence on MAX density matrix=1.00D-06.
 Requested convergence on             energy=1.00D-06.
 No special actions if energy rises.
 Integral accuracy reduced to 1.0D-05 until final iterations.
 Initial convergence to 1.0D-05 achieved.  Increase integral accuracy.
 SCF Done:  E(RB3LYP) =  -839.948885097     A.U. after   11 cycles
            NFock= 11  Conv=0.63D-08     -V/T= 2.0086
 Calling FoFJK, ICntrl=      2127 FMM=F ISym2X=0 I1Cent= 0 IOpClX= 0 NMat=1 NMatS=1 NMatT=0.
 ***** Axes restored to original set *****
 -------------------------------------------------------------------
 Center     Atomic                   Forces (Hartrees/Bohr)
 Number     Number              X              Y              Z
 -------------------------------------------------------------------
      1        1          -0.000210749   -0.000149648   -0.000059006
      2        6          -0.000244326    0.000319186    0.000005222
      3        6           0.000183564   -0.000072131   -0.000361801
      4        6           0.000887085   -0.000175280   -0.000187849
      5        6           0.000064088    0.000319422   -0.000669479
      6        8          -0.000056807    0.000236297   -0.000390064
      7        6          -0.000702742    0.000084063   -0.000468640
      8        1           0.000218682   -0.000381914    0.000427731
      9        1           0.000427991    0.000158669    0.001020317
     10        6          -0.000791344   -0.000079361   -0.000176335
     11        1          -0.000803659    0.000236689   -0.000459486
     12        1          -0.000351015   -0.000788577    0.000865419
     13        1           0.000158375   -0.000482714    0.000180807
     14        8           0.001749404    0.000170383   -0.000009151
     15        1           0.000302278    0.000431375   -0.000287747
     16        8          -0.002606122    0.000060686    0.001424104
     17        1           0.002178015   -0.000362196   -0.001879034
     18        8          -0.000218015   -0.000155199    0.000134842
     19        1          -0.000026757    0.000058546    0.000460681
     20        8           0.000451369    0.000155145   -0.000861293
     21        1           0.000167022    0.000124163   -0.000245839
     22        1           0.000275391   -0.000236173    0.000800367
     23        8          -0.001322321   -0.000292636   -0.000052971
     24        8          -0.001588718    0.000341817    0.003735088
     25        1           0.001768275    0.000021342   -0.002812382
     26        1           0.000620143   -0.000029913   -0.000234617
     27        1           0.000059338    0.000289380    0.000585523
     28        8           0.000188470    0.000678658   -0.000583101
     29        1          -0.000825964   -0.000271682    0.000266348
     30        1           0.000049049   -0.000208397   -0.000167654
 -------------------------------------------------------------------
 Cartesian Forces:  Max     0.003735088 RMS     0.000834214

 GradGradGradGradGradGradGradGradGradGradGradGradGradGradGradGradGradGrad
 Berny optimization.
 Search for a saddle point.
 Step number   2 out of a maximum of  180
 All quantities printed in internal units (Hartrees-Bohrs-Radians)
 Swapping is turned off.
 Update second derivatives using D2CorN and points    1    2
 ITU=  0  0
     Eigenvalues ---   -0.10311  -0.00015   0.00032   0.00099   0.00138
     Eigenvalues ---    0.00184   0.00247   0.00286   0.00402   0.00514
     Eigenvalues ---    0.00744   0.00794   0.01038   0.01227   0.01330
     Eigenvalues ---    0.01392   0.01593   0.01730   0.02121   0.02255
     Eigenvalues ---    0.02630   0.02774   0.02952   0.03218   0.03526
     Eigenvalues ---    0.04081   0.04332   0.04935   0.05198   0.05539
     Eigenvalues ---    0.05815   0.06139   0.06319   0.06542   0.07169
     Eigenvalues ---    0.07626   0.07848   0.08208   0.09047   0.09476
     Eigenvalues ---    0.10200   0.11012   0.11214   0.12227   0.12885
     Eigenvalues ---    0.13102   0.14433   0.14617   0.15466   0.16279
     Eigenvalues ---    0.18185   0.19384   0.20177   0.21715   0.23493
     Eigenvalues ---    0.24140   0.25072   0.26646   0.30641   0.32433
     Eigenvalues ---    0.33268   0.37850   0.43801   0.50160   0.55301
     Eigenvalues ---    0.57876   0.61650   0.64282   0.66441   0.67780
     Eigenvalues ---    0.74464   0.78833   0.80354   0.81263   0.83038
     Eigenvalues ---    0.86014   0.91097   0.98102   1.00206   1.03992
     Eigenvalues ---    1.05456   1.07064   1.08356   1.19484
 Eigenvectors required to have negative eigenvalues:
                          X27       Y26       Z30       Y27       Z26
   1                    0.38670   0.35296  -0.31679  -0.30916   0.30513
                          X26       Y6        X30       Y4        Y30
   1                    0.27669   0.24710  -0.24109  -0.24043   0.20205
 RFO step:  Lambda0=5.347315952D-08 Lambda=-1.17161008D-03.
 Linear search not attempted -- option 19 set.
 Maximum step size (   0.300) exceeded in Quadratic search.
    -- Step size scaled by   0.267
 B after Tr=    -0.001454   -0.001233   -0.001093
         Rot=    1.000000    0.000285    0.000081   -0.000177 Ang=   0.04 deg.
 Variable       Old X    -DE/DX   Delta X   Delta X   Delta X     New X
                                 (Linear)    (Quad)   (Total)
    X1       -0.74241  -0.00021   0.00000  -0.03144  -0.03263  -0.77504
    Y1       -1.68109  -0.00015   0.00000  -0.00471  -0.00506  -1.68614
    Z1        2.03345  -0.00006   0.00000   0.00564   0.00539   2.03884
    X2       -1.35665  -0.00024   0.00000  -0.01375  -0.01466  -1.37131
    Y2       -1.55758   0.00032   0.00000  -0.00570  -0.00739  -1.56496
    Z2        0.05828   0.00001   0.00000  -0.00006  -0.00048   0.05780
    X3       -2.19088   0.00018   0.00000   0.00750   0.00486  -2.18602
    Y3        3.25005  -0.00007   0.00000  -0.00582  -0.00769   3.24237
    Z3        0.21908  -0.00036   0.00000   0.02188   0.01859   0.23766
    X4        2.11581   0.00089   0.00000  -0.00943  -0.01132   2.10449
    Y4        1.98665  -0.00018   0.00000  -0.01828  -0.01967   1.96698
    Z4       -1.56815  -0.00019   0.00000  -0.01669  -0.01857  -1.58672
    X5        0.69457   0.00006   0.00000   0.01099   0.00827   0.70284
    Y5        3.33735   0.00032   0.00000  -0.01678  -0.01745   3.31990
    Z5        0.54669  -0.00067   0.00000  -0.00490  -0.00777   0.53892
    X6        0.72710  -0.00006   0.00000   0.00260   0.00177   0.72887
    Y6       -1.03451   0.00024   0.00000  -0.02077  -0.02264  -1.05714
    Z6       -1.57563  -0.00039   0.00000   0.01541   0.01504  -1.56059
    X7       -3.31965  -0.00070   0.00000   0.00182   0.00020  -3.31945
    Y7        0.57710   0.00008   0.00000   0.00468   0.00215   0.57925
    Z7       -0.17392  -0.00047   0.00000  -0.03006  -0.03202  -0.20594
    X8        1.24721   0.00022   0.00000   0.01835   0.01495   1.26217
    Y8        5.34073  -0.00038   0.00000  -0.01882  -0.01939   5.32134
    Z8        0.37421   0.00043   0.00000   0.00058  -0.00334   0.37087
    X9       -4.05709   0.00043   0.00000   0.05489   0.05359  -4.00349
    Y9        0.51148   0.00016   0.00000   0.02523   0.02133   0.53281
    Z9       -2.13047   0.00102   0.00000  -0.05124  -0.05329  -2.18376
   X10       -2.40842  -0.00079   0.00000  -0.01631  -0.01618  -2.42460
   Y10       -4.11485  -0.00008   0.00000  -0.00405  -0.00660  -4.12145
   Z10       -0.81353  -0.00018   0.00000   0.00003   0.00089  -0.81264
   X11       -0.95333  -0.00080   0.00000  -0.01105  -0.01044  -0.96377
   Y11       -5.57064   0.00024   0.00000  -0.00188  -0.00376  -5.57440
   Z11       -0.53512  -0.00046   0.00000  -0.01768  -0.01575  -0.55087
[...]
    Y5        2.98402   0.00296   0.00000   0.00091   0.00188   2.98590
    Z5       -0.36496   0.00152   0.00000  -0.03420  -0.03546  -0.40042
    X6        0.87194   0.00106   0.00000   0.00448   0.00694   0.87889
    Y6       -1.89242  -0.00056   0.00000  -0.01450  -0.01352  -1.90594
    Z6       -0.38618  -0.00151   0.00000  -0.00935  -0.00964  -0.39582
    X7       -3.18577  -0.00072   0.00000   0.00640   0.00808  -3.17769
    Y7        0.33683   0.00051   0.00000  -0.00653  -0.00698   0.32985
    Z7       -0.05312  -0.00000   0.00000   0.01707   0.01690  -0.03621
    X8        0.37600   0.00041   0.00000  -0.03241  -0.03252   0.34348
    Y8        4.59758  -0.00339   0.00000  -0.03191  -0.03138   4.56620
    Z8       -1.61443   0.00231   0.00000  -0.04147  -0.04297  -1.65740
    X9       -3.64280   0.00019   0.00000  -0.01701  -0.01581  -3.65862
    Y9        0.91921  -0.00004   0.00000   0.00389   0.00288   0.92209
    Z9       -2.00000   0.00019   0.00000   0.02617   0.02595  -1.97404
   X10       -2.76919  -0.00064   0.00000   0.00266   0.00564  -2.76355
   Y10       -3.98376  -0.00021   0.00000   0.01252   0.01180  -3.97196
   Z10       -2.10503  -0.00003   0.00000  -0.03063  -0.02999  -2.13502
   X11       -1.88808  -0.00034   0.00000  -0.00830  -0.00461  -1.89269
   Y11       -5.85822   0.00053   0.00000   0.00766   0.00730  -5.85092
   Z11       -1.92728   0.00015   0.00000  -0.03988  -0.03899  -1.96626
   X12       -2.25529   0.00007   0.00000   0.01365   0.01608  -2.23921
   Y12       -3.20644  -0.00035   0.00000   0.01898   0.01809  -3.18835
   Z12       -3.96472   0.00063   0.00000  -0.02047  -0.02006  -3.98478
   X13       -0.88526   0.00041   0.00000   0.05455   0.05620  -0.82906
   Y13        1.60654  -0.00045   0.00000  -0.03255  -0.03152   1.57501
   Z13        3.01501   0.00011   0.00000  -0.01025  -0.01099   3.00402
   X14       -5.46339   0.00109   0.00000   0.00433   0.00740  -5.45600
   Y14       -4.13052   0.00048   0.00000   0.02924   0.02759  -4.10293
   Z14       -1.83476   0.00191   0.00000  -0.03724  -0.03619  -1.87095
   X15       -6.15663  -0.00026   0.00000   0.00296   0.00612  -6.15052
   Y15       -4.96345  -0.00062   0.00000   0.04984   0.04763  -4.91582
   Z15       -3.30650  -0.00066   0.00000  -0.05041  -0.04910  -3.35561
   X16        2.89621  -0.00205   0.00000   0.00278   0.00340   2.89961
   Y16        3.61479   0.01106   0.00000   0.05788   0.05992   3.67471
   Z16        1.26409  -0.00080   0.00000  -0.07616  -0.07785   1.18624
   X17        2.72458   0.00009   0.00000  -0.02109  -0.02105   2.70353
   Y17        5.40222  -0.01150   0.00000   0.00903   0.01110   5.41331
   Z17        1.71872  -0.00132   0.00000  -0.07359  -0.07560   1.64312
   X18       -2.92690   0.00483   0.00000   0.02628   0.02662  -2.90028
   Y18        4.63123  -0.00152   0.00000  -0.03568  -0.03570   4.59553
   Z18        1.56238  -0.00234   0.00000   0.04670   0.04564   1.60803
   X19       -4.55023  -0.00390   0.00000   0.02242   0.02306  -4.52717
   Y19        4.08924  -0.00051   0.00000  -0.01904  -0.01951   4.06972
   Z19        2.21410   0.00141   0.00000   0.11057   0.10985   2.32395
   X20       -5.46395   0.00115   0.00000   0.02736   0.02931  -5.43464
   Y20        0.18526   0.00046   0.00000  -0.01286  -0.01385   0.17141
   Z20        1.38130  -0.00018   0.00000   0.04465   0.04484   1.42613
   X21       -6.47915  -0.00019   0.00000   0.01126   0.01356  -6.46559
   Y21       -1.10844  -0.00042   0.00000  -0.00015  -0.00168  -1.11012
   Z21        0.55815  -0.00034   0.00000   0.04183   0.04242   0.60058
   X22        0.33348   0.00146   0.00000   0.01659   0.01770   0.35117
   Y22        0.52039   0.00123   0.00000  -0.02215  -0.02203   0.49836
   Z22       -3.67384   0.00074   0.00000  -0.01550  -0.01620  -3.69003
   X23        4.02952   0.00027   0.00000  -0.00589  -0.00471   4.02481
   Y23        0.67127   0.00022   0.00000  -0.02557  -0.02390   0.64737
   Z23       -2.74895   0.00045   0.00000  -0.00386  -0.00510  -2.75406
   X24        3.94649   0.00559   0.00000  -0.01427  -0.01122   3.93527
   Y24       -2.18993  -0.01058   0.00000   0.02831   0.03112  -2.15881
   Z24        3.05103  -0.00082   0.00000   0.04821   0.04754   3.09856
   X25        4.47829  -0.00522   0.00000  -0.04398  -0.04028   4.43802
   Y25       -3.97324   0.01237   0.00000   0.06524   0.06825  -3.90499
   Z25        3.13202  -0.00065   0.00000   0.05393   0.05354   3.18556
   X26        5.63028   0.00022   0.00000  -0.02398  -0.02150   5.60878
   Y26       -1.03600  -0.00008   0.00000   0.03066   0.03389  -1.00211
   Z26        2.05923  -0.00057   0.00000   0.03085   0.02972   2.08895
   X27        2.40544  -0.00026   0.00000  -0.01733  -0.01453   2.39091
   Y27       -2.06859  -0.00203   0.00000   0.00347   0.00541  -2.06318
   Z27        1.58513  -0.00026   0.00000   0.02546   0.02499   1.61013
   X28        7.11597  -0.00933   0.00000  -0.02629  -0.02445   7.09152
   Y28        0.17591   0.00968   0.00000   0.01724   0.02075   0.19665
   Z28        0.69573   0.00945   0.00000   0.03653   0.03495   0.73068
   X29        8.23078   0.00906   0.00000  -0.03261  -0.03044   8.20034
   Y29       -0.95815  -0.00989   0.00000  -0.07095  -0.06721  -1.02536
   Z29       -0.16413  -0.00655   0.00000   0.02746   0.02596  -0.13817
   X30        5.80359  -0.00049   0.00000  -0.01353  -0.01211   5.79148
   Y30        0.77497  -0.00015   0.00000  -0.00176   0.00096   0.77593
   Z30       -0.75538  -0.00122   0.00000  -0.00291  -0.00443  -0.75981
         Item               Value     Threshold  Converged?
 Maximum Force            0.012368     0.000450     NO 
 RMS     Force            0.003654     0.000300     NO 
 Maximum Displacement     0.109848     0.001800     NO 
 RMS     Displacement     0.031576     0.001200     NO 
 Predicted change in Energy=-2.357957D-03
 GradGradGradGradGradGradGradGradGradGradGradGradGradGradGradGradGradGrad

                          Input orientation:                          
 ---------------------------------------------------------------------
 Center     Atomic      Atomic             Coordinates (Angstroms)
 Number     Number       Type             X           Y           Z
 ---------------------------------------------------------------------
      1          1           0       -1.119772   -1.638094    0.949208
      2          6           0       -0.932757   -1.176625   -0.032151
      3          6           0       -0.801452    1.237429    0.632341
      4          6           0        0.906002    0.440401   -1.146243
      5          6           0        0.441295    1.580068   -0.211895
      6          8           0        0.465086   -1.008580   -0.209460
      7          6           0       -1.681560    0.174547   -0.019164
      8          1           0        0.181763    2.416332   -0.877060
      9          1           0       -1.936057    0.487948   -1.044619
     10          6           0       -1.462407   -2.101870   -1.129806
     11          1           0       -1.001567   -3.096174   -1.040501
     12          1           0       -1.184940   -1.687200   -2.108655
     13          1           0       -0.438718    0.833461    1.589658
     14          8           0       -2.887190   -2.171175   -0.990063
     15          1           0       -3.254713   -2.601340   -1.775712
     16          8           0        1.534407    1.944574    0.627729
     17          1           0        1.430647    2.864602    0.869504
     18          8           0       -1.534762    2.431851    0.850931
     19          1           0       -2.395677    2.153604    1.229779
     20          8           0       -2.875887    0.090705    0.754678
     21          1           0       -3.421443   -0.587449    0.317811
     22          1           0        0.185834    0.263723   -1.952682
     23          8           0        2.129840    0.342572   -1.457384
     24          8           0        2.082453   -1.142391    1.639689
     25          1           0        2.348498   -2.066431    1.685726
     26          1           0        2.968040   -0.530296    1.105423
     27          1           0        1.265214   -1.091788    0.852043
     28          8           0        3.752671    0.104064    0.386658
     29          1           0        4.339434   -0.542595   -0.073119
     30          1           0        3.064720    0.410604   -0.402073
 ---------------------------------------------------------------------
                    Distance matrix (angstroms):
                    1          2          3          4          5
     1  H    0.000000
     2  C    1.100452   0.000000
     3  C    2.910390   2.507279   0.000000
     4  C    3.579780   2.690169   2.591142   0.000000
     5  C    3.760540   3.085398   1.540959   1.545251   0.000000
     6  O    2.061693   1.419029   2.712435   1.780875   2.588758
     7  C    2.130497   1.544843   1.526029   2.834866   2.553262
     8  H    4.633316   3.855562   2.152862   2.121623   1.099608
     9  H    3.026834   2.191462   2.158991   2.844273   2.745534
    10  C    2.157495   1.530181   3.833137   3.474590   4.245387
    11  H    2.469597   2.169372   4.649576   4.019622   4.963434
    12  H    3.058951   2.153173   4.026609   3.134480   4.113074
    13  H    2.642460   2.629598   1.100556   3.073748   2.139495
    14  O    2.677445   2.393017   4.312896   4.607931   5.075054
    15  H    3.593188   3.234393   5.152995   5.192300   5.795703
    16  O    4.470294   4.032892   2.440556   2.409233   1.425737
    17  H    5.175449   4.767617   2.772401   3.196129   1.948915
    18  O    4.092229   3.763422   1.418510   3.729867   2.399986
    19  H    4.010440   3.850068   1.933355   4.413800   3.233539
    20  O    2.471949   2.449690   2.373441   4.247173   3.762467
    21  H    2.607720   2.581309   3.208342   4.682596   4.460881
    22  H    3.707085   2.648450   2.933459   1.095537   2.197354
    23  O    4.502744   3.703883   3.709473   1.266553   2.435944
    24  O    3.313115   3.447856   3.872364   3.413310   3.678797
    25  H    3.571390   3.809132   4.684794   4.047845   4.531594
    26  H    4.238140   4.114369   4.190195   3.203788   3.545900
    27  H    2.448684   2.370670   3.121639   2.543577   2.991592
    28  O    5.205025   4.875326   4.699459   3.250605   3.674516
    29  H    5.661114   5.310336   5.485879   3.729119   4.440771
    30  H    4.851093   4.316939   4.086678   2.283580   2.878571
                    6          7          8          9         10
     6  O    0.000000
     7  C    2.458473   0.000000
     8  H    3.500854   3.038676   0.000000
     9  H    2.950013   1.102065   2.869128   0.000000
    10  C    2.399490   2.542367   4.814698   2.634153   0.000000
    11  H    2.683235   3.493299   5.640452   3.703947   1.099540
    12  H    2.605774   2.842307   4.497074   2.535275   1.098674
    13  H    2.728883   2.137084   2.995860   3.049724   4.130326
    14  O    3.633005   2.810445   5.520548   2.824635   1.433296
    15  H    4.339002   3.642228   6.147680   3.437595   1.969524
    16  O    3.250454   3.727453   2.077641   4.118570   5.333248
    17  H    4.134974   4.208557   2.193432   4.543902   6.085462
    18  O    4.118299   2.423641   2.435704   2.744614   4.948048
    19  H    4.500531   2.446730   3.339310   2.856317   4.954563
    20  O    3.646930   1.425580   4.173767   2.068466   3.218166
    21  H    3.944677   1.929088   4.840816   2.284527   2.868255
    22  H    2.176134   2.689536   2.406388   2.318895   2.998308
    23  O    2.480792   4.077190   2.903835   4.089379   4.357389
    24  O    2.460311   4.319017   4.755119   5.100190   4.599645
    25  H    2.873676   4.916299   5.599801   5.686567   4.738298
    26  H    2.867481   4.835316   4.514000   5.450658   5.205282
    27  H    1.331884   3.323565   4.058395   4.042404   3.519646
    28  O    3.521583   5.449819   4.437900   5.878567   5.861983
    29  H    3.904651   6.063792   5.166023   6.433321   6.099942
    30  H    2.968042   4.767548   3.544008   5.042481   5.228480
                   11         12         13         14         15
    11  H    0.000000
    12  H    1.777578   0.000000
    13  H    4.761992   4.537411   0.000000
    14  O    2.100891   2.093593   4.655943   0.000000
    15  H    2.421170   2.287021   5.572558   0.968173   0.000000
    16  O    5.884156   5.298342   2.460306   6.253571   7.026915
    17  H    6.715254   6.035696   2.852838   6.889176   7.669830
    18  O    5.866931   5.084104   2.074098   5.138693   5.932158
    19  H    5.887095   5.230947   2.387882   4.886000   5.690379
    20  O    4.109981   3.770799   2.681170   2.856633   3.713959
    21  H    3.740924   3.478381   3.540229   2.122298   2.909707
    22  H    3.678437   2.389446   3.641818   4.037182   4.480767
    23  O    4.669526   3.941052   4.015337   5.630976   6.145027
    24  O    4.529003   5.002275   3.203560   5.715885   6.502218
    25  H    4.440227   5.198685   4.023328   5.880752   6.607848
    26  H    5.191002   5.377357   3.701394   6.431739   7.163297
    27  H    3.568975   3.888895   2.674705   4.669142   5.441837
    28  O    5.906021   5.815085   4.421196   7.152610   7.816552
    29  H    5.998574   5.997686   5.243004   7.464392   8.050362
    30  H    5.407381   5.037143   4.052145   6.514334   7.133998
                   16         17         18         19         20
    16  O    0.000000
    17  H    0.956908   0.000000
    18  O    3.115615   2.996877   0.000000
    19  H    3.981422   3.908462   0.980878   0.000000
    20  O    4.785775   5.123858   2.699786   2.170685   0.000000
    21  H    5.573835   5.980284   3.599994   3.065494   0.973846
    22  H    3.361908   4.034707   3.939730   4.512638   4.090705
    23  O    2.696043   3.501987   4.808608   5.566057   5.478500
    24  O    3.294506   4.132073   5.146027   5.575415   5.185452
    25  H    4.227323   5.081708   6.000928   6.365829   5.728375
    26  H    2.899738   3.734243   5.395768   5.999021   5.887288
    27  H    3.056514   3.959886   4.500656   4.906871   4.307725
    28  O    2.892454   3.639438   5.795783   6.535568   6.638780
    29  H    3.813840   4.578053   6.648863   7.370804   7.290211
    30  H    2.399044   3.210796   5.177904   5.959608   6.060629
                   21         22         23         24         25
    21  H    0.000000
    22  H    4.346501   0.000000
    23  O    5.901948   2.007659   0.000000
    24  O    5.687547   4.298773   3.435000   0.000000
    25  H    6.111529   4.831640   3.966137   0.962678   0.000000
    26  H    6.438097   4.209887   2.834159   1.201818   1.755077
    27  H    4.743893   3.296810   2.852791   1.136145   1.678826
    28  O    7.207693   4.268528   2.467987   2.431741   2.893152
    29  H    7.770846   4.629827   2.753546   2.896106   3.062587
    30  H    6.601867   3.273216   1.411492   2.746896   3.317767
                   26         27         28         29         30
    26  H    0.000000
    27  H    1.810826   0.000000
    28  O    1.238822   2.798944   0.000000
    29  H    1.808268   3.257048   0.986840   0.000000
    30  H    1.779659   2.658610   1.090569   1.625329   0.000000
 Stoichiometry    C6H16O8
 Framework group  C1[X(C6H16O8)]
 Deg. of freedom    84
 Full point group                 C1      NOp   1
 Largest Abelian subgroup         C1      NOp   1
 Largest concise Abelian subgroup C1      NOp   1
                         Standard orientation:                         
 ---------------------------------------------------------------------
 Center     Atomic      Atomic             Coordinates (Angstroms)
 Number     Number       Type             X           Y           Z
 ---------------------------------------------------------------------
      1          1           0        1.390570    0.973066    1.415750
      2          6           0        1.199213    0.865103    0.337455
      3          6           0        0.425283   -1.518557    0.262318
      4          6           0       -0.850608    0.152394   -1.252291
      5          6           0       -0.770722   -1.280658   -0.679770
      6          8           0       -0.172547    1.120856    0.079561
      7          6           0        1.596444   -0.583231   -0.024587
      8          1           0       -0.653156   -1.938506   -1.553013
      9          1           0        1.871359   -0.656443   -1.089298
     10          6           0        2.044447    1.886948   -0.426001
     11          1           0        1.829132    2.902102   -0.062557
     12          1           0        1.776746    1.845060   -1.490739
     13          1           0        0.074557   -1.314664    1.285373
     14          8           0        3.422338    1.543180   -0.232157
     15          1           0        3.960432    2.062758   -0.846855
     16          8           0       -1.999039   -1.566243   -0.014633
     17          1           0       -2.144344   -2.511396   -0.049916
     18          8           0        0.824242   -2.874500    0.142234
     19          1           0        1.683574   -2.944644    0.609941
     20          8           0        2.690753   -1.028701    0.773111
     21          1           0        3.424721   -0.421945    0.569359
     22          1           0       -0.030800    0.351659   -1.951154
     23          8           0       -1.976927    0.646041   -1.555398
     24          8           0       -1.890192    1.153966    1.840734
     25          1           0       -1.929910    2.065518    2.147725
     26          1           0       -2.837650    0.964370    1.126072
     27          1           0       -1.033144    1.112515    1.096035
     28          8           0       -3.674196    0.778882    0.231385
     29          1           0       -4.038599    1.656355   -0.035268
     30          1           0       -3.003289    0.534355   -0.592891
 ---------------------------------------------------------------------
 Rotational constants (GHZ):      0.8549404      0.4715855      0.3738791
 Standard basis: 6-31G(d) (6D, 7F)
 There are   242 symmetry adapted cartesian basis functions of A   symmetry.
 There are   242 symmetry adapted basis functions of A   symmetry.
   242 basis functions,   456 primitive gaussians,   242 cartesian basis functions
    58 alpha electrons       58 beta electrons
       nuclear repulsion energy      1114.3492682020 Hartrees.
 NAtoms=   30 NActive=   30 NUniq=   30 SFac= 1.00D+00 NAtFMM=   60 NAOKFM=F Big=F
 Integral buffers will be    131072 words long.
 Raffenetti 2 integral format.
 Two-electron integral symmetry is turned on.
 One-electron integrals computed using PRISM.
 NBasis=   242 RedAO= T EigKep=  1.49D-03  NBF=   242
 NBsUse=   242 1.00D-06 EigRej= -1.00D+00 NBFU=   242
 Initial guess from the checkpoint file:  "/scratch/10450853.yak.local/Gau-17160.chk"
 B after Tr=    -0.000000    0.000000   -0.000000
         Rot=    0.999988   -0.004108    0.000575    0.002576 Ang=  -0.56 deg.
 ExpMin= 1.61D-01 ExpMax= 5.48D+03 ExpMxC= 8.25D+02 IAcc=1 IRadAn=         1 AccDes= 0.00D+00
 Harris functional with IExCor=  402 and IRadAn=       1 diagonalized for initial guess.
 HarFok:  IExCor=  402 AccDes= 0.00D+00 IRadAn=         1 IDoV= 1 UseB2=F ITyADJ=14
 ICtDFT=  3500011 ScaDFX=  1.000000  1.000000  1.000000  1.000000
 FoFCou: FMM=F IPFlag=           0 FMFlag=      100000 FMFlg1=           0
         NFxFlg=           0 DoJE=T BraDBF=F KetDBF=T FulRan=T
         wScrn=  0.000000 ICntrl=     500 IOpCl=  0 I1Cent=   200000004 NGrid=           0
         NMat0=    1 NMatS0=      1 NMatT0=    0 NMatD0=    1 NMtDS0=    0 NMtDT0=    0
 Petite list used in FoFCou.
 Requested convergence on RMS density matrix=1.00D-08 within 128 cycles.
 Requested convergence on MAX density matrix=1.00D-06.
 Requested convergence on             energy=1.00D-06.
 No special actions if energy rises.
 Integral accuracy reduced to 1.0D-05 until final iterations.
