 Entering Gaussian System, Link 0=g09
 Initial command:
 /global/software/gaussian/g09.e01/l1.exe "/scratch/10464879.yak.local/Gau-28272.inp" -scrdir="/scratch/10464879.yak.local/"
 Entering Link 1 = /global/software/gaussian/g09.e01/l1.exe PID=     28273.
  
 Copyright (c) 1988,1990,1992,1993,1995,1998,2003,2009,2015,
            Gaussian, Inc.  All Rights Reserved.
  
 This is part of the Gaussian(R) 09 program.  It is based on
 the Gaussian(R) 03 system (copyright 2003, Gaussian, Inc.),
 the Gaussian(R) 98 system (copyright 1998, Gaussian, Inc.),
 the Gaussian(R) 94 system (copyright 1995, Gaussian, Inc.),
 the Gaussian 92(TM) system (copyright 1992, Gaussian, Inc.),
 the Gaussian 90(TM) system (copyright 1990, Gaussian, Inc.),
 the Gaussian 88(TM) system (copyright 1988, Gaussian, Inc.),
 the Gaussian 86(TM) system (copyright 1986, Carnegie Mellon
 University), and the Gaussian 82(TM) system (copyright 1983,
 Carnegie Mellon University). Gaussian is a federally registered
 trademark of Gaussian, Inc.
  
 This software contains proprietary and confidential information,
 including trade secrets, belonging to Gaussian, Inc.
  
 This software is provided under written license and may be
 used, copied, transmitted, or stored only in accord with that
 written license.
  
 The following legend is applicable only to US Government
 contracts under FAR:
  
                    RESTRICTED RIGHTS LEGEND
  
 Use, reproduction and disclosure by the US Government is
 subject to restrictions as set forth in subparagraphs (a)
 and (c) of the Commercial Computer Software - Restricted
 Rights clause in FAR 52.227-19.
  
 Gaussian, Inc.
 340 Quinnipiac St., Bldg. 40, Wallingford CT 06492
  
  
 ---------------------------------------------------------------
 Warning -- This program may not be used in any manner that
 competes with the business of Gaussian, Inc. or will provide
 assistance to any competitor of Gaussian, Inc.  The licensee
 of this program is prohibited from giving any competitor of
 Gaussian, Inc. access to this program.  By using this program,
 the user acknowledges that Gaussian, Inc. is engaged in the
 business of creating and licensing software in the field of
 computational chemistry and represents and warrants to the
 licensee that it is not a competitor of Gaussian, Inc. and that
 it will not use this program in any manner prohibited above.
 ---------------------------------------------------------------
  

 Cite this work as:
 Gaussian 09, Revision E.01,
 M. J. Frisch, G. W. Trucks, H. B. Schlegel, G. E. Scuseria, 
 M. A. Robb, J. R. Cheeseman, G. Scalmani, V. Barone, B. Mennucci, 
 G. A. Petersson, H. Nakatsuji, M. Caricato, X. Li, H. P. Hratchian, 
 A. F. Izmaylov, J. Bloino, G. Zheng, J. L. Sonnenberg, M. Hada, 
 M. Ehara, K. Toyota, R. Fukuda, J. Hasegawa, M. Ishida, T. Nakajima, 
 Y. Honda, O. Kitao, H. Nakai, T. Vreven, J. A. Montgomery, Jr., 
 J. E. Peralta, F. Ogliaro, M. Bearpark, J. J. Heyd, E. Brothers, 
 K. N. Kudin, V. N. Staroverov, T. Keith, R. Kobayashi, J. Normand, 
 K. Raghavachari, A. Rendell, J. C. Burant, S. S. Iyengar, J. Tomasi, 
 M. Cossi, N. Rega, J. M. Millam, M. Klene, J. E. Knox, J. B. Cross, 
 V. Bakken, C. Adamo, J. Jaramillo, R. Gomperts, R. E. Stratmann, 
 O. Yazyev, A. J. Austin, R. Cammi, C. Pomelli, J. W. Ochterski, 
 R. L. Martin, K. Morokuma, V. G. Zakrzewski, G. A. Voth, 
 P. Salvador, J. J. Dannenberg, S. Dapprich, A. D. Daniels, 
 O. Farkas, J. B. Foresman, J. V. Ortiz, J. Cioslowski, 
 and D. J. Fox, Gaussian, Inc., Wallingford CT, 2013.
 
 ******************************************
 Gaussian 09:  ES64L-G09RevE.01 30-Nov-2015
                15-Jan-2017 
 ******************************************
 -------------------------
 # b3lyp/6-31g(d) opt freq
 -------------------------
 1/14=-1,18=20,19=15,26=3,38=1/1,3;
 2/9=110,12=2,17=6,18=5,40=1/2;
 3/5=1,6=6,7=1,11=2,16=1,25=1,30=1,71=1,74=-5/1,2,3;
 4//1;
 5/5=2,38=5/2;
 6/7=2,8=2,9=2,10=2,28=1/1;
 7//1,2,3,16;
 1/14=-1,18=20,19=15,26=3/3(2);
 2/9=110/2;
 99//99;
 2/9=110/2;
 3/5=1,6=6,7=1,11=2,16=1,25=1,30=1,71=1,74=-5/1,2,3;
 4/5=5,16=3,69=1/1;
 5/5=2,38=5/2;
 7//1,2,3,16;
 1/14=-1,18=20,19=15,26=3/3(-5);
 2/9=110/2;
 6/7=2,8=2,9=2,10=2,19=2,28=1/1;
 99/9=1/99;
 ----------------------------------
 glo_2w_beta_ircf_boat2_B3LYP_631Gd
 ----------------------------------
 Symbolic Z-matrix:
 Charge =  0 Multiplicity = 1
 6                     1.00223  -0.36112  -1.44445 
 8                    -0.32187   0.78197  -0.77363 
 1                     0.62358   3.16939   0.94407 
 1                     2.9977    0.66349   1.06605 
 8                     3.04171   1.37845   0.40555 
 1                     1.807     2.04702   0.69256 
 8                     0.79478   2.21656   0.91163 
 1                     0.08983   1.47651  -0.1472 
 6                    -1.10512  -0.83869   0.95382 
 6                    -1.44949   0.13003  -0.2146 
 1                    -1.35028  -0.37208   1.9165 
 1                    -1.85404  -0.48714  -1.0284 
 8                    -1.93364  -1.99114   0.87243 
 1                    -1.61877  -2.46955   0.0832 
 6                    -2.50013   1.15433   0.20689 
 8                    -2.89646   2.03561  -0.82601 
 1                    -2.0843    1.79185   0.99586 
 1                    -3.35154   0.6056    0.64086 
 1                    -3.27791   1.50659  -1.54405 
 1                     2.78467   0.91321  -0.44986 
 6                     0.97454  -1.50249  -0.39596 
 1                     2.01963  -1.81932  -0.28514 
 6                     0.39174  -1.22493   1.00887 
 1                     0.42569  -2.17725   1.55437 
 8                     0.19497  -2.55406  -1.00703 
 1                     0.52128  -3.4028   -0.66989 
 8                     1.19756  -0.32012   1.75235 
 1                     0.81253   0.57732   1.73289 
 8                     2.00743   0.34583  -1.62267 
 1                     0.35252  -0.59771  -2.30254 
 
 Add virtual bond connecting atoms H6         and O5         Dist= 2.71D+00.
 Add virtual bond connecting atoms H8         and O7         Dist= 2.78D+00.
 Add virtual bond connecting atoms O29        and H20        Dist= 2.87D+00.

 GradGradGradGradGradGradGradGradGradGradGradGradGradGradGradGradGradGrad
 Berny optimization.
 Initialization pass.
                           ----------------------------
                           !    Initial Parameters    !
                           ! (Angstroms and Degrees)  !
 --------------------------                            --------------------------
 ! Name  Definition              Value          Derivative Info.                !
 --------------------------------------------------------------------------------
 ! R1    R(1,21)                 1.5501         estimate D2E/DX2                !
 ! R2    R(1,29)                 1.2418         estimate D2E/DX2                !
 ! R3    R(1,30)                 1.102          estimate D2E/DX2                !
 ! R4    R(2,8)                  1.0219         estimate D2E/DX2                !
 ! R5    R(2,10)                 1.4174         estimate D2E/DX2                !
 ! R6    R(3,7)                  0.9686         estimate D2E/DX2                !
 ! R7    R(4,5)                  0.9744         estimate D2E/DX2                !
 ! R8    R(5,6)                  1.4331         estimate D2E/DX2                !
 ! R9    R(5,20)                 1.0071         estimate D2E/DX2                !
 ! R10   R(6,7)                  1.0494         estimate D2E/DX2                !
 ! R11   R(7,8)                  1.4717         estimate D2E/DX2                !
 ! R12   R(9,10)                 1.5563         estimate D2E/DX2                !
 ! R13   R(9,11)                 1.0975         estimate D2E/DX2                !
 ! R14   R(9,13)                 1.4217         estimate D2E/DX2                !
 ! R15   R(9,23)                 1.5469         estimate D2E/DX2                !
 ! R16   R(10,12)                1.0986         estimate D2E/DX2                !
 ! R17   R(10,15)                1.5267         estimate D2E/DX2                !
 ! R18   R(13,14)                0.9751         estimate D2E/DX2                !
 ! R19   R(15,16)                1.4144         estimate D2E/DX2                !
 ! R20   R(15,17)                1.0963         estimate D2E/DX2                !
 ! R21   R(15,18)                1.102          estimate D2E/DX2                !
 ! R22   R(16,19)                0.97           estimate D2E/DX2                !
 ! R23   R(20,29)                1.5171         estimate D2E/DX2                !
 ! R24   R(21,22)                1.0977         estimate D2E/DX2                !
 ! R25   R(21,23)                1.546          estimate D2E/DX2                !
 ! R26   R(21,25)                1.4446         estimate D2E/DX2                !
 ! R27   R(23,24)                1.098          estimate D2E/DX2                !
 ! R28   R(23,27)                1.4215         estimate D2E/DX2                !
 ! R29   R(25,26)                0.9698         estimate D2E/DX2                !
 ! R30   R(27,28)                0.9767         estimate D2E/DX2                !
 ! A1    A(21,1,29)            122.0552         estimate D2E/DX2                !
 ! A2    A(21,1,30)            110.9818         estimate D2E/DX2                !
 ! A3    A(29,1,30)            119.1916         estimate D2E/DX2                !
 ! A4    A(8,2,10)             113.0379         estimate D2E/DX2                !
 ! A5    A(4,5,6)               99.6508         estimate D2E/DX2                !
 ! A6    A(4,5,20)             103.0191         estimate D2E/DX2                !
 ! A7    A(6,5,20)              99.539          estimate D2E/DX2                !
 ! A8    A(5,6,7)              161.471          estimate D2E/DX2                !
 ! A9    A(3,7,6)              109.657          estimate D2E/DX2                !
 ! A10   A(3,7,8)              115.7284         estimate D2E/DX2                !
 ! A11   A(6,7,8)              103.3327         estimate D2E/DX2                !
 ! A12   A(10,9,11)            110.1483         estimate D2E/DX2                !
 ! A13   A(10,9,13)            109.4281         estimate D2E/DX2                !
 ! A14   A(10,9,23)            113.3433         estimate D2E/DX2                !
 ! A15   A(11,9,13)            105.3475         estimate D2E/DX2                !
 ! A16   A(11,9,23)            106.9237         estimate D2E/DX2                !
 ! A17   A(13,9,23)            111.3194         estimate D2E/DX2                !
 ! A18   A(2,10,9)             113.9763         estimate D2E/DX2                !
 ! A19   A(2,10,12)            105.0226         estimate D2E/DX2                !
 ! A20   A(2,10,15)            110.3517         estimate D2E/DX2                !
 ! A21   A(9,10,12)            106.735          estimate D2E/DX2                !
 ! A22   A(9,10,15)            111.261          estimate D2E/DX2                !
 ! A23   A(12,10,15)           109.1485         estimate D2E/DX2                !
 ! A24   A(9,13,14)            104.8245         estimate D2E/DX2                !
 ! A25   A(10,15,16)           114.1584         estimate D2E/DX2                !
 ! A26   A(10,15,17)           109.1363         estimate D2E/DX2                !
 ! A27   A(10,15,18)           107.8392         estimate D2E/DX2                !
 ! A28   A(16,15,17)           105.6352         estimate D2E/DX2                !
 ! A29   A(16,15,18)           112.4175         estimate D2E/DX2                !
 ! A30   A(17,15,18)           107.411          estimate D2E/DX2                !
 ! A31   A(15,16,19)           108.1161         estimate D2E/DX2                !
 ! A32   A(5,20,29)            163.7747         estimate D2E/DX2                !
 ! A33   A(1,21,22)            105.2964         estimate D2E/DX2                !
 ! A34   A(1,21,23)            119.2853         estimate D2E/DX2                !
 ! A35   A(1,21,25)            105.0409         estimate D2E/DX2                !
 ! A36   A(22,21,23)           108.6016         estimate D2E/DX2                !
 ! A37   A(22,21,25)           110.2668         estimate D2E/DX2                !
 ! A38   A(23,21,25)           108.1568         estimate D2E/DX2                !
 ! A39   A(9,23,21)            112.1647         estimate D2E/DX2                !
 ! A40   A(9,23,24)            105.3166         estimate D2E/DX2                !
 ! A41   A(9,23,27)            114.0932         estimate D2E/DX2                !
 ! A42   A(21,23,24)           106.5027         estimate D2E/DX2                !
 ! A43   A(21,23,27)           112.0754         estimate D2E/DX2                !
 ! A44   A(24,23,27)           105.943          estimate D2E/DX2                !
 ! A45   A(21,25,26)           107.9647         estimate D2E/DX2                !
 ! A46   A(23,27,28)           110.5444         estimate D2E/DX2                !
 ! A47   A(1,29,20)            121.1109         estimate D2E/DX2                !
 ! A48   L(2,8,7,11,-1)        171.9252         estimate D2E/DX2                !
 ! A49   L(2,8,7,11,-2)        170.2183         estimate D2E/DX2                !
 ! D1    D(29,1,21,22)         -26.4531         estimate D2E/DX2                !
 ! D2    D(29,1,21,23)          95.7247         estimate D2E/DX2                !
 ! D3    D(29,1,21,25)        -142.8987         estimate D2E/DX2                !
 ! D4    D(30,1,21,22)         122.4712         estimate D2E/DX2                !
 ! D5    D(30,1,21,23)        -115.351          estimate D2E/DX2                !
 ! D6    D(30,1,21,25)           6.0256         estimate D2E/DX2                !
 ! D7    D(21,1,29,20)         -45.0555         estimate D2E/DX2                !
 ! D8    D(30,1,29,20)         168.4529         estimate D2E/DX2                !
 ! D9    D(10,2,7,3)           -98.3122         estimate D2E/DX2                !
 ! D10   D(10,2,7,6)           140.2917         estimate D2E/DX2                !
 ! D11   D(8,2,10,9)           -70.1628         estimate D2E/DX2                !
 ! D12   D(8,2,10,12)          173.3727         estimate D2E/DX2                !
 ! D13   D(8,2,10,15)           55.8703         estimate D2E/DX2                !
 ! D14   D(4,5,6,7)            -43.9693         estimate D2E/DX2                !
 ! D15   D(20,5,6,7)            61.1179         estimate D2E/DX2                !
 ! D16   D(4,5,20,29)           92.1432         estimate D2E/DX2                !
 ! D17   D(6,5,20,29)          -10.1745         estimate D2E/DX2                !
 ! D18   D(5,6,7,3)           -177.2828         estimate D2E/DX2                !
 ! D19   D(5,6,7,8)            -53.338          estimate D2E/DX2                !
 ! D20   D(11,9,10,2)          102.6689         estimate D2E/DX2                !
 ! D21   D(11,9,10,12)        -141.8669         estimate D2E/DX2                !
 ! D22   D(11,9,10,15)         -22.8849         estimate D2E/DX2                !
 ! D23   D(13,9,10,2)         -141.9678         estimate D2E/DX2                !
 ! D24   D(13,9,10,12)         -26.5036         estimate D2E/DX2                !
 ! D25   D(13,9,10,15)          92.4784         estimate D2E/DX2                !
 ! D26   D(23,9,10,2)          -17.0707         estimate D2E/DX2                !
 ! D27   D(23,9,10,12)          98.3934         estimate D2E/DX2                !
 ! D28   D(23,9,10,15)        -142.6246         estimate D2E/DX2                !
 ! D29   D(10,9,13,14)          69.726          estimate D2E/DX2                !
 ! D30   D(11,9,13,14)        -171.8782         estimate D2E/DX2                !
 ! D31   D(23,9,13,14)         -56.3375         estimate D2E/DX2                !
 ! D32   D(10,9,23,21)         -41.5331         estimate D2E/DX2                !
 ! D33   D(10,9,23,24)        -156.975          estimate D2E/DX2                !
 ! D34   D(10,9,23,27)          87.2747         estimate D2E/DX2                !
 ! D35   D(11,9,23,21)        -163.0975         estimate D2E/DX2                !
 ! D36   D(11,9,23,24)          81.4607         estimate D2E/DX2                !
 ! D37   D(11,9,23,27)         -34.2896         estimate D2E/DX2                !
 ! D38   D(13,9,23,21)          82.3375         estimate D2E/DX2                !
 ! D39   D(13,9,23,24)         -33.1044         estimate D2E/DX2                !
 ! D40   D(13,9,23,27)        -148.8547         estimate D2E/DX2                !
 ! D41   D(2,10,15,16)          54.7263         estimate D2E/DX2                !
 ! D42   D(2,10,15,17)         -63.1977         estimate D2E/DX2                !
 ! D43   D(2,10,15,18)        -179.5822         estimate D2E/DX2                !
 ! D44   D(9,10,15,16)        -177.7277         estimate D2E/DX2                !
 ! D45   D(9,10,15,17)          64.3483         estimate D2E/DX2                !
 ! D46   D(9,10,15,18)         -52.0361         estimate D2E/DX2                !
 ! D47   D(12,10,15,16)        -60.1999         estimate D2E/DX2                !
 ! D48   D(12,10,15,17)       -178.1239         estimate D2E/DX2                !
 ! D49   D(12,10,15,18)         65.4916         estimate D2E/DX2                !
 ! D50   D(10,15,16,19)         60.5083         estimate D2E/DX2                !
 ! D51   D(17,15,16,19)       -179.5828         estimate D2E/DX2                !
 ! D52   D(18,15,16,19)        -62.7379         estimate D2E/DX2                !
 ! D53   D(5,20,29,1)          -51.6564         estimate D2E/DX2                !
 ! D54   D(1,21,23,9)           62.3235         estimate D2E/DX2                !
 ! D55   D(1,21,23,24)         177.043          estimate D2E/DX2                !
 ! D56   D(1,21,23,27)         -67.5339         estimate D2E/DX2                !
 ! D57   D(22,21,23,9)        -177.1524         estimate D2E/DX2                !
 ! D58   D(22,21,23,24)        -62.4329         estimate D2E/DX2                !
 ! D59   D(22,21,23,27)         52.9902         estimate D2E/DX2                !
 ! D60   D(25,21,23,9)         -57.4817         estimate D2E/DX2                !
 ! D61   D(25,21,23,24)         57.2379         estimate D2E/DX2                !
 ! D62   D(25,21,23,27)        172.6609         estimate D2E/DX2                !
 ! D63   D(1,21,25,26)         149.7419         estimate D2E/DX2                !
 ! D64   D(22,21,25,26)         36.7611         estimate D2E/DX2                !
 ! D65   D(23,21,25,26)        -81.8559         estimate D2E/DX2                !
 ! D66   D(9,23,27,28)         -27.9887         estimate D2E/DX2                !
 ! D67   D(21,23,27,28)        100.8643         estimate D2E/DX2                !
 ! D68   D(24,23,27,28)       -143.3727         estimate D2E/DX2                !
 --------------------------------------------------------------------------------
 Trust Radius=3.00D-01 FncErr=1.00D-07 GrdErr=1.00D-06
 Number of steps in this run=    157 maximum allowed number of steps=    180.
 GradGradGradGradGradGradGradGradGradGradGradGradGradGradGradGradGradGrad

                          Input orientation:                          
 ---------------------------------------------------------------------
 Center     Atomic      Atomic             Coordinates (Angstroms)
 Number     Number       Type             X           Y           Z
 ---------------------------------------------------------------------
      1          6           0        1.002233   -0.361121   -1.444454
      2          8           0       -0.321874    0.781965   -0.773630
      3          1           0        0.623582    3.169387    0.944069
      4          1           0        2.997698    0.663494    1.066051
      5          8           0        3.041707    1.378454    0.405553
      6          1           0        1.806998    2.047021    0.692561
      7          8           0        0.794781    2.216564    0.911625
      8          1           0        0.089825    1.476507   -0.147199
      9          6           0       -1.105121   -0.838690    0.953824
     10          6           0       -1.449485    0.130028   -0.214601
     11          1           0       -1.350284   -0.372076    1.916499
     12          1           0       -1.854043   -0.487144   -1.028401
     13          8           0       -1.933641   -1.991135    0.872430
     14          1           0       -1.618770   -2.469553    0.083201
     15          6           0       -2.500134    1.154331    0.206889
     16          8           0       -2.896462    2.035613   -0.826011
     17          1           0       -2.084295    1.791845    0.995859
     18          1           0       -3.351544    0.605599    0.640862
     19          1           0       -3.277905    1.506592   -1.544053
     20          1           0        2.784666    0.913214   -0.449855
     21          6           0        0.974543   -1.502493   -0.395964
     22          1           0        2.019627   -1.819318   -0.285141
     23          6           0        0.391741   -1.224927    1.008868
     24          1           0        0.425687   -2.177253    1.554368
     25          8           0        0.194969   -2.554062   -1.007029
     26          1           0        0.521275   -3.402795   -0.669885
     27          8           0        1.197564   -0.320118    1.752354
     28          1           0        0.812527    0.577324    1.732887
     29          8           0        2.007426    0.345831   -1.622671
     30          1           0        0.352516   -0.597712   -2.302541
 ---------------------------------------------------------------------
                    Distance matrix (angstroms):
                    1          2          3          4          5
     1  C    0.000000
     2  O    1.873475   0.000000
     3  H    4.279358   3.089363   0.000000
     4  H    3.366653   3.797107   3.454100   0.000000
     5  O    3.257008   3.613855   3.056921   0.974352   0.000000
     6  H    3.318679   2.877877   1.650283   1.863172   1.433130
     7  O    3.498372   2.478927   0.968624   2.699762   2.450962
     8  H    2.427393   1.021910   2.083652   3.254027   3.004789
     9  C    3.228119   2.494814   4.364996   4.370615   4.734185
    10  C    2.786519   1.417407   3.857179   4.658550   4.702549
    11  H    4.102495   3.102617   4.169380   4.549793   4.963557
    12  H    2.889168   2.005764   4.837301   5.408335   5.431855
    13  O    4.079737   3.605189   5.759818   5.603807   6.027121
    14  H    3.694438   3.603952   6.129183   5.665135   6.052364
    15  C    4.158137   2.417621   3.789655   5.586165   5.549928
    16  O    4.618076   2.864067   4.099919   6.340641   6.100038
    17  H    4.485203   2.693896   3.038569   5.206223   5.176413
    18  H    4.923258   3.348252   4.739891   6.363726   6.444093
    19  H    4.670958   3.139547   4.917036   6.848843   6.614747
    20  H    2.406288   3.126123   3.421056   1.551036   1.007095
    21  C    1.550106   2.653691   4.872917   3.304867   3.635306
    22  H    2.122601   3.533825   5.324197   2.991103   3.427456
    23  C    2.671638   2.777438   4.400903   3.218760   3.763496
    24  H    3.552981   3.838671   5.384996   3.863099   4.561402
    25  O    2.377395   3.383885   6.062043   4.744009   5.056084
    26  H    3.175383   4.270115   6.768227   5.067628   5.510852
    27  O    3.203032   3.147042   3.627592   2.163097   2.846029
    28  H    3.318458   2.758871   2.716013   2.286278   2.715303
    29  O    1.241755   2.517285   4.059020   2.882841   2.499948
    30  H    1.102008   2.166998   4.980461   4.464867   4.297761
                    6          7          8          9         10
     6  H    0.000000
     7  O    1.049437   0.000000
     8  H    1.994835   1.471651   0.000000
     9  C    4.108044   3.598053   2.828477   0.000000
    10  C    3.886192   3.264774   2.046222   1.556348   0.000000
    11  H    4.161548   3.508865   3.122503   1.097532   2.191697
    12  H    4.773565   4.253235   2.900184   2.147949   1.098562
    13  O    5.507398   5.015033   4.142294   1.421689   2.432155
    14  H    5.701460   5.335842   4.306248   1.918732   2.622054
    15  C    4.425399   3.532911   2.633831   2.544819   1.526668
    16  O    4.942543   4.083797   3.113085   3.826007   2.469579
    17  H    3.911428   2.911453   2.476453   2.807181   2.151705
    18  H    5.356391   4.456516   3.636281   2.688928   2.139115
    19  H    5.581285   4.808449   3.646054   4.057182   2.646789
    20  H    1.883207   2.740801   2.769669   4.491094   4.312396
    21  C    3.804854   3.946326   3.117539   2.566625   2.928127
    22  H    3.993706   4.384158   3.821731   3.501530   3.979908
    23  C    3.578917   3.466375   2.953877   1.546869   2.592854
    24  H    4.527165   4.455892   4.044514   2.120325   3.459634
    25  O    5.163062   5.176860   4.122602   2.911646   3.245999
    26  H    5.762798   5.844072   4.926148   3.443288   4.070874
    27  O    2.664192   2.702557   2.839586   2.491772   3.328425
    28  H    2.057003   1.833547   2.205800   2.507869   3.018192
    29  O    2.880020   3.375323   2.670700   4.210625   3.738912
    30  H    4.252148   4.294952   3.002814   3.575848   2.852421
                   11         12         13         14         15
    11  H    0.000000
    12  H    2.989891   0.000000
    13  O    2.012893   2.425177   0.000000
    14  H    2.798656   2.284942   0.975146   0.000000
    15  C    2.564145   2.153559   3.264631   3.731573   0.000000
    16  O    3.963457   2.737134   4.475089   4.770292   1.414431
    17  H    2.463515   3.056867   3.787990   4.382827   1.096275
    18  H    2.566737   2.494601   2.967676   3.573521   1.101970
    19  H    4.384123   2.503650   4.458759   4.605476   1.948028
    20  H    4.934512   4.879891   5.696148   5.578307   5.330906
    21  C    3.468450   3.071125   3.210160   2.808928   4.415374
    22  H    4.277619   4.163225   4.122841   3.714352   5.432580
    23  C    2.141448   3.120630   2.452161   2.539312   3.829749
    24  H    2.558100   3.837230   2.462947   2.535661   4.634175
    25  O    3.961803   2.910508   2.894863   2.117874   4.742294
    26  H    4.401974   3.777789   3.224613   2.453135   5.537603
    27  O    2.553659   4.131925   3.656639   3.916361   4.270297
    28  H    2.369140   3.983516   3.857306   4.232745   3.692605
    29  O    4.931058   3.994740   5.217178   4.897518   4.931436
    30  H    4.555298   2.550404   4.153141   3.616839   4.183839
                   16         17         18         19         20
    16  O    0.000000
    17  H    2.009539   0.000000
    18  H    2.098513   1.771757   0.000000
    19  H    0.970024   2.820856   2.364543   0.000000
    20  H    5.803145   5.154499   6.239981   6.189033   0.000000
    21  C    5.261921   4.705988   4.922813   5.334418   3.019121
    22  H    6.270643   5.614591   5.965499   6.380469   2.842384
    23  C    4.980982   3.902799   4.183113   5.238788   3.524998
    24  H    5.869507   4.729237   4.779773   6.073510   4.374092
    25  O    5.536680   5.300331   5.027600   5.370117   4.363368
    26  H    6.425075   6.045493   5.725732   6.268973   4.878451
    27  O    5.381309   3.975333   4.773547   5.850897   2.981564
    28  H    4.736155   3.226430   4.304974   5.322923   2.960830
    29  O    5.247680   5.068514   5.823197   5.411864   1.517077
    30  H    4.435132   4.746312   4.881766   4.264195   3.410381
                   21         22         23         24         25
    21  C    0.000000
    22  H    1.097661   0.000000
    23  C    1.546045   2.162816   0.000000
    24  H    2.135495   2.460194   1.098020   0.000000
    25  O    1.444622   2.095316   2.422635   2.599225   0.000000
    26  H    1.972722   2.213704   2.752835   2.541337   0.969788
    27  O    2.462320   2.659845   1.421549   2.020877   3.689159
    28  H    2.980586   3.357591   1.987303   2.787330   4.206435
    29  O    2.447031   2.544996   3.464494   4.354472   3.474679
    30  H    2.200132   2.888163   3.370514   4.168459   2.351697
                   26         27         28         29         30
    26  H    0.000000
    27  O    3.978380   0.000000
    28  H    4.658271   0.976747   0.000000
    29  O    4.143506   3.534142   3.569474   0.000000
    30  H    3.250006   4.151306   4.228120   2.022677   0.000000
 Stoichiometry    C6H16O8
 Framework group  C1[X(C6H16O8)]
 Deg. of freedom    84
 Full point group                 C1      NOp   1
 Largest Abelian subgroup         C1      NOp   1
 Largest concise Abelian subgroup C1      NOp   1
                         Standard orientation:                         
 ---------------------------------------------------------------------
 Center     Atomic      Atomic             Coordinates (Angstroms)
 Number     Number       Type             X           Y           Z
 ---------------------------------------------------------------------
      1          6           0        1.004470    0.382683    1.455865
      2          8           0       -0.318884   -0.767122    0.795114
      3          1           0        0.628701   -3.173374   -0.894913
      4          1           0        3.004000   -0.669825   -1.039824
      5          8           0        3.046557   -1.377598   -0.371536
      6          1           0        1.812102   -2.048783   -0.653479
      7          8           0        0.800210   -2.220319   -0.872496
      8          1           0        0.093659   -1.468566    0.176985
      9          6           0       -1.098431    0.834997   -0.951201
     10          6           0       -1.445247   -0.120869    0.227042
     11          1           0       -1.342062    0.358064   -1.909196
     12          1           0       -1.851012    0.505238    1.033381
     13          8           0       -1.926648    1.988561   -0.883783
     14          1           0       -1.612995    2.475392   -0.099227
     15          6           0       -2.495541   -1.149295   -0.185191
     16          8           0       -2.894046   -2.019181    0.856495
     17          1           0       -2.078547   -1.795479   -0.966461
     18          1           0       -3.345965   -0.604988   -0.626604
     19          1           0       -3.276561   -1.482266    1.568078
     20          1           0        2.788176   -0.903016    0.478319
     21          6           0        0.979087    1.512630    0.395016
     22          1           0        2.024489    1.827851    0.282627
     23          6           0        0.398676    1.220064   -1.007761
     24          1           0        0.433961    2.166407   -1.563492
     25          8           0        0.198835    2.571049    0.993254
     26          1           0        0.526068    3.415957    0.647511
     27          8           0        1.205470    0.306951   -1.739957
     28          1           0        0.820051   -0.590086   -1.711448
     29          8           0        2.009071   -0.322665    1.643527
     30          1           0        0.353320    0.628802    2.310178
 ---------------------------------------------------------------------
 Rotational constants (GHZ):      0.7136488      0.5794877      0.4509434
 Standard basis: 6-31G(d) (6D, 7F)
 There are   242 symmetry adapted cartesian basis functions of A   symmetry.
 There are   242 symmetry adapted basis functions of A   symmetry.
   242 basis functions,   456 primitive gaussians,   242 cartesian basis functions
    58 alpha electrons       58 beta electrons
       nuclear repulsion energy      1137.6293471790 Hartrees.
 NAtoms=   30 NActive=   30 NUniq=   30 SFac= 1.00D+00 NAtFMM=   60 NAOKFM=F Big=F
 Integral buffers will be    131072 words long.
 Raffenetti 2 integral format.
 Two-electron integral symmetry is turned on.
 One-electron integrals computed using PRISM.
 NBasis=   242 RedAO= T EigKep=  1.86D-03  NBF=   242
 NBsUse=   242 1.00D-06 EigRej= -1.00D+00 NBFU=   242
 ExpMin= 1.61D-01 ExpMax= 5.48D+03 ExpMxC= 8.25D+02 IAcc=1 IRadAn=         1 AccDes= 0.00D+00
 Harris functional with IExCor=  402 and IRadAn=       1 diagonalized for initial guess.
 HarFok:  IExCor=  402 AccDes= 0.00D+00 IRadAn=         1 IDoV= 1 UseB2=F ITyADJ=14
 ICtDFT=  3500011 ScaDFX=  1.000000  1.000000  1.000000  1.000000
 FoFCou: FMM=F IPFlag=           0 FMFlag=      100000 FMFlg1=           0
         NFxFlg=           0 DoJE=T BraDBF=F KetDBF=T FulRan=T
         wScrn=  0.000000 ICntrl=     500 IOpCl=  0 I1Cent=   200000004 NGrid=           0
         NMat0=    1 NMatS0=      1 NMatT0=    0 NMatD0=    1 NMtDS0=    0 NMtDT0=    0
 Petite list used in FoFCou.
 Requested convergence on RMS density matrix=1.00D-08 within 128 cycles.
 Requested convergence on MAX density matrix=1.00D-06.
 Requested convergence on             energy=1.00D-06.
 No special actions if energy rises.
 Integral accuracy reduced to 1.0D-05 until final iterations.
 Initial convergence to 1.0D-05 achieved.  Increase integral accuracy.
 SCF Done:  E(RB3LYP) =  -839.964861748     A.U. after   14 cycles
            NFock= 14  Conv=0.85D-08     -V/T= 2.0083

 **********************************************************************

            Population analysis using the SCF density.

 **********************************************************************

 Orbital symmetries:
       Occupied  (A) (A) (A) (A) (A) (A) (A) (A) (A) (A) (A) (A)
                 (A) (A) (A) (A) (A) (A) (A) (A) (A) (A) (A) (A)
                 (A) (A) (A) (A) (A) (A) (A) (A) (A) (A) (A) (A)
                 (A) (A) (A) (A) (A) (A) (A) (A) (A) (A) (A) (A)
                 (A) (A) (A) (A) (A) (A) (A) (A) (A) (A)
       Virtual   (A) (A) (A) (A) (A) (A) (A) (A) (A) (A) (A) (A)
                 (A) (A) (A) (A) (A) (A) (A) (A) (A) (A) (A) (A)
                 (A) (A) (A) (A) (A) (A) (A) (A) (A) (A) (A) (A)
                 (A) (A) (A) (A) (A) (A) (A) (A) (A) (A) (A) (A)
                 (A) (A) (A) (A) (A) (A) (A) (A) (A) (A) (A) (A)
                 (A) (A) (A) (A) (A) (A) (A) (A) (A) (A) (A) (A)
                 (A) (A) (A) (A) (A) (A) (A) (A) (A) (A) (A) (A)
                 (A) (A) (A) (A) (A) (A) (A) (A) (A) (A) (A) (A)
                 (A) (A) (A) (A) (A) (A) (A) (A) (A) (A) (A) (A)
                 (A) (A) (A) (A) (A) (A) (A) (A) (A) (A) (A) (A)
                 (A) (A) (A) (A) (A) (A) (A) (A) (A) (A) (A) (A)
                 (A) (A) (A) (A) (A) (A) (A) (A) (A) (A) (A) (A)
                 (A) (A) (A) (A) (A) (A) (A) (A) (A) (A) (A) (A)
                 (A) (A) (A) (A) (A) (A) (A) (A) (A) (A) (A) (A)
                 (A) (A) (A) (A) (A) (A) (A) (A) (A) (A) (A) (A)
                 (A) (A) (A) (A)
 The electronic state is 1-A.
 Alpha  occ. eigenvalues --  -19.18382 -19.17045 -19.16751 -19.15847 -19.15300
 Alpha  occ. eigenvalues --  -19.15183 -19.13984 -19.11817 -10.28493 -10.25549
 Alpha  occ. eigenvalues --  -10.25340 -10.25129 -10.25078 -10.24274  -1.06796
 Alpha  occ. eigenvalues --   -1.05075  -1.03513  -1.03155  -1.02384  -1.01999
 Alpha  occ. eigenvalues --   -1.01702  -0.98886  -0.78332  -0.75982  -0.69835
 Alpha  occ. eigenvalues --   -0.65925  -0.63092  -0.59068  -0.56198  -0.55174
 Alpha  occ. eigenvalues --   -0.53459  -0.53114  -0.52597  -0.50878  -0.49413
 Alpha  occ. eigenvalues --   -0.48276  -0.46203  -0.45440  -0.44123  -0.43805
 Alpha  occ. eigenvalues --   -0.42666  -0.41794  -0.40706  -0.39237  -0.38820
 Alpha  occ. eigenvalues --   -0.37273  -0.36797  -0.35699  -0.33961  -0.33428
 Alpha  occ. eigenvalues --   -0.32007  -0.31877  -0.30330  -0.29654  -0.28695
 Alpha  occ. eigenvalues --   -0.26985  -0.25784  -0.24195
 Alpha virt. eigenvalues --    0.01734   0.03623   0.05322   0.06756   0.08914
 Alpha virt. eigenvalues --    0.10500   0.11307   0.11317   0.13365   0.14091
 Alpha virt. eigenvalues --    0.14965   0.15571   0.16090   0.17469   0.18251
 Alpha virt. eigenvalues --    0.19898   0.21288   0.22086   0.23760   0.24476
 Alpha virt. eigenvalues --    0.25396   0.27049   0.28710   0.29243   0.30577
 Alpha virt. eigenvalues --    0.31655   0.34457   0.36235   0.52314   0.53725
 Alpha virt. eigenvalues --    0.55495   0.56003   0.56811   0.57680   0.58003
 Alpha virt. eigenvalues --    0.59829   0.61596   0.63577   0.63979   0.64663
 Alpha virt. eigenvalues --    0.68107   0.69475   0.70749   0.72318   0.72841
 Alpha virt. eigenvalues --    0.76965   0.77420   0.77594   0.79345   0.80265
 Alpha virt. eigenvalues --    0.81357   0.82069   0.82403   0.83249   0.84420
 Alpha virt. eigenvalues --    0.85988   0.86646   0.87376   0.88399   0.90139
 Alpha virt. eigenvalues --    0.91194   0.91637   0.91830   0.93989   0.95348
 Alpha virt. eigenvalues --    0.97112   0.98511   1.00166   1.01521   1.02297
 Alpha virt. eigenvalues --    1.03055   1.04406   1.06023   1.06532   1.08504
 Alpha virt. eigenvalues --    1.09931   1.10798   1.14112   1.17564   1.18446
 Alpha virt. eigenvalues --    1.20099   1.23126   1.23973   1.25364   1.26236
 Alpha virt. eigenvalues --    1.28644   1.29501   1.31904   1.33710   1.35197
 Alpha virt. eigenvalues --    1.37340   1.42573   1.45084   1.47791   1.49754
 Alpha virt. eigenvalues --    1.51694   1.54522   1.54940   1.57520   1.60749
 Alpha virt. eigenvalues --    1.62399   1.64062   1.65883   1.66942   1.68632
 Alpha virt. eigenvalues --    1.68971   1.71220   1.71612   1.72521   1.73440
 Alpha virt. eigenvalues --    1.73832   1.74415   1.75447   1.76149   1.78960
 Alpha virt. eigenvalues --    1.79968   1.81507   1.81863   1.83434   1.85419
 Alpha virt. eigenvalues --    1.87483   1.89659   1.91076   1.91904   1.93623
 Alpha virt. eigenvalues --    1.95090   1.98095   1.99912   2.02445   2.04267
 Alpha virt. eigenvalues --    2.07369   2.08442   2.11182   2.13355   2.14942
 Alpha virt. eigenvalues --    2.17904   2.20820   2.24087   2.25621   2.28955
 Alpha virt. eigenvalues --    2.30260   2.31919   2.35164   2.36924   2.39126
 Alpha virt. eigenvalues --    2.41175   2.42126   2.44691   2.46281   2.49270
 Alpha virt. eigenvalues --    2.53271   2.54907   2.57832   2.57882   2.59250
 Alpha virt. eigenvalues --    2.61887   2.65739   2.66804   2.67871   2.69556
 Alpha virt. eigenvalues --    2.74692   2.77531   2.83087   2.85512   2.88302
 Alpha virt. eigenvalues --    2.90729   2.93545   2.98956   3.04926   3.07239
 Alpha virt. eigenvalues --    3.73658   3.76841   3.80372   3.85735   3.91013
 Alpha virt. eigenvalues --    3.99227   4.04346   4.14564   4.27053   4.34297
 Alpha virt. eigenvalues --    4.39596   4.57094   4.67176   4.72003
          Condensed to atoms (all electrons):
               1          2          3          4          5          6
     1  C    4.702933   0.033089   0.000006  -0.000446   0.010684   0.000092
     2  O    0.033089   8.527721   0.002631  -0.000028  -0.000491   0.003639
     3  H    0.000006   0.002631   0.348673  -0.000112   0.002994   0.000295
     4  H   -0.000446  -0.000028  -0.000112   0.351743   0.227114  -0.012998
     5  O    0.010684  -0.000491   0.002994   0.227114   8.442060   0.122755
     6  H    0.000092   0.003639   0.000295  -0.012998   0.122755   0.304912
     7  O    0.001139  -0.070337   0.232569   0.005879  -0.083946   0.140524
     8  H    0.000384   0.154600  -0.002369  -0.000024   0.002108  -0.003575
     9  C   -0.013754  -0.043782  -0.000033   0.000166  -0.000026  -0.000055
    10  C   -0.004385   0.182340  -0.000278  -0.000009  -0.000009  -0.000003
    11  H    0.000139   0.002653   0.000009  -0.000015   0.000002   0.000002
    12  H   -0.000906  -0.044257   0.000011   0.000001  -0.000001   0.000009
    13  O    0.000118   0.001547   0.000000  -0.000001   0.000000  -0.000000
    14  H    0.000215  -0.000012   0.000000   0.000000  -0.000000   0.000000
    15  C    0.000388  -0.035557   0.000169   0.000000  -0.000000   0.000006
    16  O   -0.000024   0.001130   0.000016  -0.000000   0.000000  -0.000003
    17  H   -0.000047  -0.004033   0.000257  -0.000001   0.000004  -0.000009
    18  H   -0.000005   0.003649  -0.000000   0.000000   0.000000  -0.000001
    19  H   -0.000012  -0.000099   0.000001   0.000000  -0.000000   0.000000
    20  H   -0.015314   0.000782  -0.000197  -0.009848   0.178466  -0.010570
    21  C    0.229332  -0.025366  -0.000017  -0.000378   0.001183  -0.000142
    22  H   -0.041066   0.002036  -0.000001   0.001323  -0.000279  -0.000031
    23  C   -0.022512   0.009952  -0.000021  -0.001214  -0.000142   0.000153
    24  H    0.004465   0.000113   0.000002  -0.000011  -0.000011   0.000007
    25  O   -0.027887   0.000315   0.000000   0.000008   0.000001  -0.000000
    26  H    0.005308  -0.000109   0.000000  -0.000000   0.000000   0.000000
    27  O    0.006680  -0.002541   0.000773   0.031429  -0.008655   0.002128
    28  H    0.000494   0.003322  -0.000782  -0.004356   0.004014  -0.003881
    29  O    0.431286  -0.041411   0.000036   0.003188  -0.063918   0.003086
    30  H    0.363834  -0.027086   0.000003   0.000033  -0.000173   0.000029
               7          8          9         10         11         12
     1  C    0.001139   0.000384  -0.013754  -0.004385   0.000139  -0.000906
     2  O   -0.070337   0.154600  -0.043782   0.182340   0.002653  -0.044257
     3  H    0.232569  -0.002369  -0.000033  -0.000278   0.000009   0.000011
     4  H    0.005879  -0.000024   0.000166  -0.000009  -0.000015   0.000001
     5  O   -0.083946   0.002108  -0.000026  -0.000009   0.000002  -0.000001
     6  H    0.140524  -0.003575  -0.000055  -0.000003   0.000002   0.000009
     7  O    8.491746   0.095115  -0.000004   0.003504  -0.000170  -0.000122
     8  H    0.095115   0.293563   0.001956  -0.014646   0.000054   0.002718
     9  C   -0.000004   0.001956   5.062270   0.240589   0.371835  -0.052420
    10  C    0.003504  -0.014646   0.240589   5.060852  -0.059887   0.362076
    11  H   -0.000170   0.000054   0.371835  -0.059887   0.603411   0.005568
    12  H   -0.000122   0.002718  -0.052420   0.362076   0.005568   0.611520
    13  O    0.000001  -0.000055   0.225361  -0.035040  -0.037310   0.003726
    14  H   -0.000001   0.000011  -0.033752  -0.005113   0.006521   0.005262
    15  C   -0.000860  -0.003736  -0.023359   0.331716  -0.004141  -0.040014
    16  O   -0.000056   0.001755   0.002837  -0.040291   0.000089  -0.002565
    17  H    0.003320   0.001440  -0.007131  -0.035606   0.005212   0.005710
    18  H    0.000018   0.000341   0.005880  -0.055935   0.000375  -0.002999
    19  H   -0.000004  -0.000003  -0.000006  -0.003905   0.000032   0.005532
    20  H    0.006551   0.000031  -0.000001   0.000015  -0.000002   0.000006
    21  C   -0.000361   0.000320  -0.026861  -0.010629   0.006332  -0.001381
    22  H    0.000024  -0.000126   0.005284  -0.000015  -0.000176   0.000060
    23  C    0.000799  -0.000993   0.310169  -0.035756  -0.051664  -0.001674
    24  H   -0.000018   0.000033  -0.053405   0.006661  -0.004613  -0.000295
    25  O    0.000000  -0.000004  -0.003149   0.001082  -0.000156   0.000940
    26  H   -0.000000   0.000005  -0.000920   0.000181   0.000003  -0.000081
    27  O   -0.017692   0.002484  -0.023922   0.001882   0.001812  -0.000092
    28  H    0.047971  -0.002960  -0.007654   0.001344   0.003803   0.000071
    29  O   -0.001396   0.006720   0.000354   0.000981   0.000004   0.000045
    30  H   -0.000026   0.001360   0.001212  -0.001634   0.000015   0.005533
              13         14         15         16         17         18
     1  C    0.000118   0.000215   0.000388  -0.000024  -0.000047  -0.000005
     2  O    0.001547  -0.000012  -0.035557   0.001130  -0.004033   0.003649
     3  H    0.000000   0.000000   0.000169   0.000016   0.000257  -0.000000
     4  H   -0.000001   0.000000   0.000000  -0.000000  -0.000001   0.000000
     5  O    0.000000  -0.000000  -0.000000   0.000000   0.000004   0.000000
     6  H   -0.000000   0.000000   0.000006  -0.000003  -0.000009  -0.000001
     7  O    0.000001  -0.000001  -0.000860  -0.000056   0.003320   0.000018
     8  H   -0.000055   0.000011  -0.003736   0.001755   0.001440   0.000341
     9  C    0.225361  -0.033752  -0.023359   0.002837  -0.007131   0.005880
    10  C   -0.035040  -0.005113   0.331716  -0.040291  -0.035606  -0.055935
    11  H   -0.037310   0.006521  -0.004141   0.000089   0.005212   0.000375
    12  H    0.003726   0.005262  -0.040014  -0.002565   0.005710  -0.002999
    13  O    8.284287   0.227000  -0.000864  -0.000015   0.000108   0.003697
    14  H    0.227000   0.371613   0.000090   0.000001  -0.000006  -0.000002
    15  C   -0.000864   0.000090   4.877064   0.267772   0.368766   0.355601
    16  O   -0.000015   0.000001   0.267772   8.213524  -0.040965  -0.033797
    17  H    0.000108  -0.000006   0.368766  -0.040965   0.586292  -0.039286
    18  H    0.003697  -0.000002   0.355601  -0.033797  -0.039286   0.620967
    19  H   -0.000000  -0.000004  -0.033887   0.237472   0.007603  -0.005129
    20  H    0.000000   0.000000   0.000001  -0.000000  -0.000002  -0.000000
    21  C    0.000554  -0.003748   0.000072  -0.000001   0.000015  -0.000000
    22  H   -0.000198   0.000343   0.000012  -0.000000  -0.000000  -0.000000
    23  C   -0.028984  -0.008546   0.002160  -0.000047  -0.000225   0.000311
    24  H    0.005853   0.000421  -0.000083   0.000000  -0.000006   0.000001
    25  O   -0.010446   0.039492   0.000069  -0.000000  -0.000001   0.000000
    26  H    0.001077  -0.001395  -0.000005   0.000000   0.000000   0.000000
    27  O    0.001584   0.000074  -0.000053   0.000000  -0.000095  -0.000005
    28  H    0.000079   0.000021  -0.000420   0.000003   0.000592  -0.000001
    29  O   -0.000000  -0.000001  -0.000064   0.000000  -0.000001   0.000000
    30  H   -0.000005  -0.000016  -0.000138  -0.000008   0.000002   0.000008
              19         20         21         22         23         24
     1  C   -0.000012  -0.015314   0.229332  -0.041066  -0.022512   0.004465
     2  O   -0.000099   0.000782  -0.025366   0.002036   0.009952   0.000113
     3  H    0.000001  -0.000197  -0.000017  -0.000001  -0.000021   0.000002
     4  H    0.000000  -0.009848  -0.000378   0.001323  -0.001214  -0.000011
     5  O   -0.000000   0.178466   0.001183  -0.000279  -0.000142  -0.000011
     6  H    0.000000  -0.010570  -0.000142  -0.000031   0.000153   0.000007
     7  O   -0.000004   0.006551  -0.000361   0.000024   0.000799  -0.000018
     8  H   -0.000003   0.000031   0.000320  -0.000126  -0.000993   0.000033
     9  C   -0.000006  -0.000001  -0.026861   0.005284   0.310169  -0.053405
    10  C   -0.003905   0.000015  -0.010629  -0.000015  -0.035756   0.006661
    11  H    0.000032  -0.000002   0.006332  -0.000176  -0.051664  -0.004613
    12  H    0.005532   0.000006  -0.001381   0.000060  -0.001674  -0.000295
    13  O   -0.000000   0.000000   0.000554  -0.000198  -0.028984   0.005853
    14  H   -0.000004   0.000000  -0.003748   0.000343  -0.008546   0.000421
    15  C   -0.033887   0.000001   0.000072   0.000012   0.002160  -0.000083
    16  O    0.237472  -0.000000  -0.000001  -0.000000  -0.000047   0.000000
    17  H    0.007603  -0.000002   0.000015  -0.000000  -0.000225  -0.000006
    18  H   -0.005129  -0.000000  -0.000000  -0.000000   0.000311   0.000001
    19  H    0.399807   0.000000   0.000002  -0.000000  -0.000006  -0.000000
    20  H    0.000000   0.307025  -0.004354   0.001718   0.000201  -0.000005
    21  C    0.000002  -0.004354   5.325315   0.354791   0.265916  -0.061225
    22  H   -0.000000   0.001718   0.354791   0.600334  -0.042084  -0.006893
    23  C   -0.000006   0.000201   0.265916  -0.042084   4.953626   0.368538
    24  H   -0.000000  -0.000005  -0.061225  -0.006893   0.368538   0.626769
    25  O   -0.000000   0.000019   0.144105  -0.027300  -0.032267   0.003212
    26  H    0.000000  -0.000000  -0.016954  -0.009731   0.000089   0.003756
    27  O    0.000000   0.001109  -0.050754   0.002281   0.218770  -0.036818
    28  H   -0.000000  -0.000251   0.001874  -0.000452  -0.025124   0.003622
    29  O    0.000000   0.097715  -0.052384   0.002168   0.000672  -0.000104
    30  H    0.000004   0.001934  -0.105481   0.004892   0.003018  -0.000279
              25         26         27         28         29         30
     1  C   -0.027887   0.005308   0.006680   0.000494   0.431286   0.363834
     2  O    0.000315  -0.000109  -0.002541   0.003322  -0.041411  -0.027086
     3  H    0.000000   0.000000   0.000773  -0.000782   0.000036   0.000003
     4  H    0.000008  -0.000000   0.031429  -0.004356   0.003188   0.000033
     5  O    0.000001   0.000000  -0.008655   0.004014  -0.063918  -0.000173
     6  H   -0.000000   0.000000   0.002128  -0.003881   0.003086   0.000029
     7  O    0.000000  -0.000000  -0.017692   0.047971  -0.001396  -0.000026
     8  H   -0.000004   0.000005   0.002484  -0.002960   0.006720   0.001360
     9  C   -0.003149  -0.000920  -0.023922  -0.007654   0.000354   0.001212
    10  C    0.001082   0.000181   0.001882   0.001344   0.000981  -0.001634
    11  H   -0.000156   0.000003   0.001812   0.003803   0.000004   0.000015
    12  H    0.000940  -0.000081  -0.000092   0.000071   0.000045   0.005533
    13  O   -0.010446   0.001077   0.001584   0.000079  -0.000000  -0.000005
    14  H    0.039492  -0.001395   0.000074   0.000021  -0.000001  -0.000016
    15  C    0.000069  -0.000005  -0.000053  -0.000420  -0.000064  -0.000138
    16  O   -0.000000   0.000000   0.000000   0.000003   0.000000  -0.000008
    17  H   -0.000001   0.000000  -0.000095   0.000592  -0.000001   0.000002
    18  H    0.000000   0.000000  -0.000005  -0.000001   0.000000   0.000008
    19  H   -0.000000   0.000000   0.000000  -0.000000   0.000000   0.000004
    20  H    0.000019  -0.000000   0.001109  -0.000251   0.097715   0.001934
    21  C    0.144105  -0.016954  -0.050754   0.001874  -0.052384  -0.105481
    22  H   -0.027300  -0.009731   0.002281  -0.000452   0.002168   0.004892
    23  C   -0.032267   0.000089   0.218770  -0.025124   0.000672   0.003018
    24  H    0.003212   0.003756  -0.036818   0.003622  -0.000104  -0.000279
    25  O    8.308910   0.231329   0.001702  -0.000087   0.001133   0.011359
    26  H    0.231329   0.378388  -0.000025   0.000003  -0.000135  -0.000562
    27  O    0.001702  -0.000025   8.341646   0.207164  -0.000589  -0.000004
    28  H   -0.000087   0.000003   0.207164   0.337887   0.000096   0.000031
    29  O    0.001133  -0.000135  -0.000589   0.000096   8.192354  -0.038850
    30  H    0.011359  -0.000562  -0.000004   0.000031  -0.038850   0.640167
 Mulliken charges:
               1
     1  C    0.335776
     2  O   -0.634410
     3  H    0.415361
     4  H    0.408558
     5  O   -0.833733
     6  H    0.453631
     7  O   -0.854165
     8  H    0.463496
     9  C    0.062320
    10  C    0.109918
    11  H    0.150265
    12  H    0.138018
    13  O   -0.642071
    14  H    0.401533
    15  C   -0.060706
    16  O   -0.606829
    17  H    0.148094
    18  H    0.146309
    19  H    0.392602
    20  H    0.444971
    21  C    0.030228
    22  H    0.153088
    23  C    0.116887
    24  H    0.140311
    25  O   -0.642377
    26  H    0.409780
    27  O   -0.680275
    28  H    0.433578
    29  O   -0.540985
    30  H    0.140827
 Sum of Mulliken charges =  -0.00000
 Mulliken charges with hydrogens summed into heavy atoms:
               1
     1  C    0.476603
     2  O   -0.170914
     5  O    0.019796
     7  O    0.014827
     9  C    0.212584
    10  C    0.247936
    13  O   -0.240539
    15  C    0.233698
    16  O   -0.214227
    21  C    0.183316
    23  C    0.257198
    25  O   -0.232597
    27  O   -0.246697
    29  O   -0.540985
 Electronic spatial extent (au):  <R**2>=           2836.4195
 Charge=             -0.0000 electrons
 Dipole moment (field-independent basis, Debye):
    X=             -1.5146    Y=              1.9553    Z=             -0.8475  Tot=              2.6144
 Quadrupole moment (field-independent basis, Debye-Ang):
   XX=            -92.0195   YY=            -74.1008   ZZ=            -88.6776
   XY=              5.3814   XZ=             -6.7400   YZ=              6.9679
 Traceless Quadrupole moment (field-independent basis, Debye-Ang):
   XX=             -7.0869   YY=             10.8318   ZZ=             -3.7450
   XY=              5.3814   XZ=             -6.7400   YZ=              6.9679
 Octapole moment (field-independent basis, Debye-Ang**2):
  XXX=            -22.3232  YYY=             10.7646  ZZZ=              3.9658  XYY=             33.3575
  XXY=             19.6480  XXZ=              9.0491  XZZ=            -14.7201  YZZ=            -11.8225
  YYZ=             -7.8136  XYZ=             -4.7492
 Hexadecapole moment (field-independent basis, Debye-Ang**3):
 XXXX=          -1632.1135 YYYY=           -888.5036 ZZZZ=           -620.2420 XXXY=             49.7643
 XXXZ=            -87.7294 YYYX=            -29.7940 YYYZ=             61.2843 ZZZX=            -41.1739
 ZZZY=              7.8690 XXYY=           -528.9372 XXZZ=           -348.7630 YYZZ=           -306.5760
 XXYZ=             19.3147 YYXZ=             -6.5096 ZZXY=             11.0623
 N-N= 1.137629347179D+03 E-N=-4.247408820858D+03  KE= 8.330415939856D+02
 Calling FoFJK, ICntrl=      2127 FMM=F ISym2X=0 I1Cent= 0 IOpClX= 0 NMat=1 NMatS=1 NMatT=0.
 ***** Axes restored to original set *****
 -------------------------------------------------------------------
 Center     Atomic                   Forces (Hartrees/Bohr)
 Number     Number              X              Y              Z
 -------------------------------------------------------------------
      1        6           0.006681414   -0.008811847   -0.007267245
      2        8          -0.010189421    0.003588082   -0.002746359
      3        1           0.000267003    0.000757815    0.000823145
      4        1           0.000044241    0.000036965    0.000173368
      5        8           0.013819792    0.002932193    0.008434867
      6        1          -0.000638303    0.000801135    0.000404600
      7        8          -0.001893224    0.010519232    0.008146026
      8        1          -0.001766171   -0.001322198   -0.001799281
      9        6          -0.000329698    0.000286555    0.000206603
     10        6          -0.003656007    0.000270034    0.001321785
     11        1           0.000061046   -0.000077955    0.000091421
     12        1          -0.000435872   -0.000109970    0.000267638
     13        8          -0.000029830   -0.000107713   -0.000009926
     14        1           0.000023913   -0.000005122    0.000013735
     15        6          -0.003224259   -0.000080046    0.001412182
     16        8          -0.000117614    0.000133582    0.000213736
     17        1          -0.000244469   -0.000007238    0.000109562
     18        1          -0.000404451    0.000152313    0.000070870
     19        1           0.000040649    0.000012013   -0.000017621
     20        1           0.000770010   -0.000383491   -0.001404502
     21        6           0.001832025   -0.001796620   -0.000602125
     22        1           0.000064631   -0.000364209    0.000272263
     23        6          -0.000172930    0.000448397   -0.001109255
     24        1          -0.000039849   -0.000013575   -0.000171934
     25        8          -0.000117524   -0.000972571    0.000524072
     26        1          -0.000025564   -0.000123691   -0.000106741
     27        8          -0.000167171   -0.001194248    0.000543711
     28        1          -0.000089269   -0.000029441    0.000142775
     29        8          -0.000070832   -0.004072979   -0.007707841
     30        1           0.000007734   -0.000465403   -0.000229527
 -------------------------------------------------------------------
 Cartesian Forces:  Max     0.013819792 RMS     0.003127812

 GradGradGradGradGradGradGradGradGradGradGradGradGradGradGradGradGradGrad
 Berny optimization.
 FormGI is forming the generalized inverse of G from B-inverse, IUseBI=4.
 Internal  Forces:  Max     0.025902686 RMS     0.005833911
 Search for a local minimum.
 Step number   1 out of a maximum of  157
 All quantities printed in internal units (Hartrees-Bohrs-Radians)
 Mixed Optimization -- RFO/linear search
 Second derivative matrix not updated -- first step.
 ITU=  0
     Eigenvalues ---    0.00230   0.00230   0.00230   0.00323   0.00413
     Eigenvalues ---    0.00694   0.00786   0.01087   0.01102   0.01405
     Eigenvalues ---    0.01407   0.01501   0.01561   0.01823   0.02587
     Eigenvalues ---    0.03613   0.03892   0.04007   0.04099   0.04425
     Eigenvalues ---    0.04650   0.04690   0.04900   0.05111   0.05131
     Eigenvalues ---    0.05986   0.06414   0.06845   0.07300   0.07719
     Eigenvalues ---    0.08453   0.08708   0.09646   0.10850   0.11115
     Eigenvalues ---    0.11771   0.12306   0.12747   0.13405   0.14090
     Eigenvalues ---    0.14974   0.15795   0.16000   0.16000   0.16000
     Eigenvalues ---    0.16000   0.16887   0.17136   0.17303   0.18117
     Eigenvalues ---    0.18563   0.19645   0.19957   0.20500   0.21880
     Eigenvalues ---    0.22073   0.22775   0.26767   0.27418   0.27621
     Eigenvalues ---    0.27873   0.29733   0.33461   0.33465   0.33842
     Eigenvalues ---    0.33902   0.33942   0.33956   0.34097   0.38958
     Eigenvalues ---    0.39286   0.42031   0.42207   0.42228   0.43310
     Eigenvalues ---    0.43388   0.46005   0.52022   0.52339   0.52497
     Eigenvalues ---    0.53372   0.53420   0.53659   0.84444
 RFO step:  Lambda=-3.25531403D-02 EMin= 2.30000000D-03
 Linear search not attempted -- first point.
 Maximum step size (   0.300) exceeded in Quadratic search.
    -- Step size scaled by   0.831
 Iteration  1 RMS(Cart)=  0.19423742 RMS(Int)=  0.00817904
 Iteration  2 RMS(Cart)=  0.01954938 RMS(Int)=  0.00146478
 Iteration  3 RMS(Cart)=  0.00029193 RMS(Int)=  0.00145557
 Iteration  4 RMS(Cart)=  0.00000150 RMS(Int)=  0.00145557
 Iteration  5 RMS(Cart)=  0.00000001 RMS(Int)=  0.00145557
 Variable       Old X    -DE/DX   Delta X   Delta X   Delta X     New X
                                 (Linear)    (Quad)   (Total)
    R1        2.92928   0.00117   0.00000   0.00109   0.00019   2.92947
    R2        2.34658   0.00325   0.00000   0.00381   0.00380   2.35038
    R3        2.08249   0.00028   0.00000   0.00063   0.00063   2.08312
    R4        1.93113   0.01038   0.00000   0.01467   0.01387   1.94500
    R5        2.67851   0.00215   0.00000   0.00332   0.00370   2.68221
    R6        1.83043   0.00073   0.00000   0.00107   0.00107   1.83150
    R7        1.84126   0.00008   0.00000   0.00011   0.00011   1.84137
    R8        2.70822   0.01543   0.00000   0.07718   0.07720   2.78543
    R9        1.90313   0.01339   0.00000   0.02598   0.02692   1.93006
   R10        1.98315   0.01404   0.00000   0.02626   0.02635   2.00949
   R11        2.78102   0.01356   0.00000   0.06196   0.06116   2.84218
   R12        2.94107   0.00225   0.00000   0.00947   0.01039   2.95146
   R13        2.07404  -0.00001   0.00000  -0.00002   0.00000   2.07404
   R14        2.68660   0.00009   0.00000   0.00017   0.00017   2.68677
   R15        2.92316   0.01020   0.00000   0.02930   0.02950   2.95266
   R16        2.07598   0.00002   0.00000   0.00006   0.00006   2.07604
   R17        2.88498   0.00335   0.00000   0.00843   0.00843   2.89342
   R18        1.84276  -0.00000   0.00000  -0.00000  -0.00000   1.84276
   R19        2.67289  -0.00004   0.00000  -0.00008  -0.00008   2.67281
   R20        2.07166  -0.00002   0.00000  -0.00005  -0.00005   2.07162
   R21        2.08242   0.00027   0.00000   0.00061   0.00061   2.08304
   R22        1.83308  -0.00000   0.00000  -0.00001  -0.00001   1.83307
   R23        2.86686   0.01090   0.00000   0.07678   0.07773   2.94459
   R24        2.07428   0.00020   0.00000   0.00044   0.00044   2.07472
   R25        2.92160   0.01019   0.00000   0.02314   0.02220   2.94381
   R26        2.72994   0.00069   0.00000   0.00136   0.00136   2.73130
   R27        2.07496  -0.00008   0.00000  -0.00017  -0.00017   2.07479
   R28        2.68634  -0.00056   0.00000  -0.00102  -0.00102   2.68532
   R29        1.83263   0.00007   0.00000   0.00010   0.00010   1.83273
   R30        1.84578   0.00001   0.00000   0.00001   0.00001   1.84580
    A1        2.13026   0.01087   0.00000   0.02573   0.02724   2.15750
    A2        1.93700  -0.00579   0.00000  -0.01196  -0.01258   1.92442
    A3        2.08029  -0.00238   0.00000   0.00222   0.00156   2.08184
    A4        1.97288   0.01211   0.00000   0.05402   0.05721   2.03009
    A5        1.73923  -0.00425   0.00000  -0.00728  -0.00958   1.72966
    A6        1.79802  -0.00218   0.00000   0.00215   0.00339   1.80141
    A7        1.73728   0.01601   0.00000   0.10112   0.09920   1.83649
    A8        2.81820   0.00291   0.00000   0.02709   0.02215   2.84035
    A9        1.91388   0.00236   0.00000   0.01859   0.01903   1.93291
   A10        2.01984  -0.00419   0.00000   0.00204   0.00312   2.02296
   A11        1.80350   0.01422   0.00000   0.06810   0.06346   1.86695
   A12        1.92245  -0.00742   0.00000  -0.04441  -0.04336   1.87909
   A13        1.90988  -0.00145   0.00000  -0.00214  -0.00398   1.90590
   A14        1.97821   0.01495   0.00000   0.08694   0.08730   2.06551
   A15        1.83866   0.00282   0.00000  -0.00419  -0.00481   1.83385
   A16        1.86617  -0.00358   0.00000  -0.02855  -0.02871   1.83746
   A17        1.94289  -0.00638   0.00000  -0.01590  -0.01654   1.92635
   A18        1.98926  -0.00249   0.00000   0.01042   0.01067   1.99993
   A19        1.83299   0.00036   0.00000   0.00027  -0.00065   1.83234
   A20        1.92600   0.00321   0.00000   0.00754   0.00865   1.93465
   A21        1.86288   0.00104   0.00000   0.00165   0.00210   1.86498
   A22        1.94187  -0.00120   0.00000  -0.01421  -0.01529   1.92659
   A23        1.90500  -0.00088   0.00000  -0.00571  -0.00562   1.89938
   A24        1.82953  -0.00002   0.00000  -0.00009  -0.00009   1.82944
   A25        1.99244   0.00026   0.00000   0.00098   0.00097   1.99342
   A26        1.90479   0.00011   0.00000   0.00077   0.00077   1.90556
   A27        1.88215   0.00022   0.00000   0.00133   0.00133   1.88348
   A28        1.84368  -0.00018   0.00000  -0.00085  -0.00085   1.84283
   A29        1.96206  -0.00028   0.00000  -0.00128  -0.00128   1.96078
   A30        1.87468  -0.00015   0.00000  -0.00109  -0.00109   1.87359
   A31        1.88698   0.00000   0.00000   0.00002   0.00002   1.88700
   A32        2.85841   0.00871   0.00000   0.04960   0.04883   2.90724
   A33        1.83777  -0.00234   0.00000  -0.01656  -0.01500   1.82277
   A34        2.08192   0.01406   0.00000   0.05632   0.05302   2.13494
   A35        1.83331  -0.00600   0.00000  -0.00544  -0.00524   1.82807
   A36        1.89546  -0.00610   0.00000  -0.02948  -0.02888   1.86658
   A37        1.92452   0.00187   0.00000  -0.00518  -0.00589   1.91863
   A38        1.88769  -0.00166   0.00000  -0.00159  -0.00076   1.88693
   A39        1.95764   0.02590   0.00000   0.11046   0.11178   2.06942
   A40        1.83812  -0.00426   0.00000  -0.03248  -0.03097   1.80716
   A41        1.99130  -0.01207   0.00000  -0.02213  -0.02537   1.96593
   A42        1.85882  -0.00983   0.00000  -0.05277  -0.05141   1.80741
   A43        1.95608  -0.00561   0.00000  -0.00701  -0.00993   1.94615
   A44        1.84905   0.00449   0.00000  -0.00952  -0.01074   1.83832
   A45        1.88434   0.00024   0.00000   0.00102   0.00102   1.88536
   A46        1.92936   0.00001   0.00000   0.00004   0.00004   1.92940
   A47        2.11378   0.00227   0.00000   0.03612   0.03664   2.15042
   A48        3.00066   0.00765   0.00000   0.11053   0.10950   3.11016
   A49        2.97087   0.00608   0.00000   0.04445   0.03765   3.00852
    D1       -0.46169  -0.00539   0.00000  -0.06842  -0.06923  -0.53092
    D2        1.67071  -0.00596   0.00000  -0.08341  -0.08506   1.58565
    D3       -2.49405  -0.00384   0.00000  -0.05299  -0.05403  -2.54808
    D4        2.13753  -0.00182   0.00000  -0.03995  -0.03951   2.09802
    D5       -2.01325  -0.00239   0.00000  -0.05494  -0.05534  -2.06859
    D6        0.10517  -0.00027   0.00000  -0.02451  -0.02431   0.08086
    D7       -0.78637  -0.00206   0.00000  -0.02554  -0.02389  -0.81025
    D8        2.94006  -0.00539   0.00000  -0.05296  -0.05301   2.88705
    D9       -1.71587  -0.00446   0.00000  -0.10356  -0.10342  -1.81929
   D10        2.44855  -0.01415   0.00000  -0.14822  -0.14856   2.30000
   D11       -1.22457   0.00011   0.00000   0.02254   0.02445  -1.20012
   D12        3.02592  -0.00008   0.00000   0.01493   0.01669   3.04262
   D13        0.97512  -0.00083   0.00000   0.01776   0.01938   0.99450
   D14       -0.76741  -0.00159   0.00000   0.01345   0.01548  -0.75193
   D15        1.06671  -0.00123   0.00000   0.03647   0.03961   1.10631
   D16        1.60820   0.00372   0.00000   0.03434   0.03709   1.64529
   D17       -0.17758   0.00429   0.00000   0.01386   0.01764  -0.15994
   D18       -3.09417  -0.00726   0.00000  -0.07486  -0.07393   3.11508
   D19       -0.93092  -0.00259   0.00000  -0.02248  -0.01779  -0.94872
   D20        1.79191   0.00049   0.00000  -0.00074  -0.00004   1.79188
   D21       -2.47604   0.00024   0.00000   0.00633   0.00640  -2.46964
   D22       -0.39942  -0.00087   0.00000  -0.00752  -0.00752  -0.40694
   D23       -2.47781  -0.00113   0.00000  -0.03207  -0.03133  -2.50914
   D24       -0.46258  -0.00138   0.00000  -0.02501  -0.02490  -0.48747
   D25        1.61405  -0.00249   0.00000  -0.03885  -0.03882   1.57523
   D26       -0.29794   0.00032   0.00000   0.00897   0.01149  -0.28645
   D27        1.71729   0.00006   0.00000   0.01604   0.01793   1.73522
   D28       -2.48927  -0.00104   0.00000   0.00219   0.00401  -2.48526
   D29        1.21695   0.00721   0.00000   0.05200   0.05165   1.26860
   D30       -2.99984  -0.00069   0.00000  -0.00350  -0.00329  -3.00313
   D31       -0.98327  -0.00646   0.00000  -0.04737  -0.04723  -1.03050
   D32       -0.72489  -0.00750   0.00000  -0.11547  -0.11488  -0.83977
   D33       -2.73973  -0.00621   0.00000  -0.08876  -0.08858  -2.82831
   D34        1.52323  -0.00270   0.00000  -0.04529  -0.04528   1.47795
   D35       -2.84659  -0.00500   0.00000  -0.09406  -0.09308  -2.93967
   D36        1.42176  -0.00372   0.00000  -0.06734  -0.06679   1.35497
   D37       -0.59847  -0.00021   0.00000  -0.02388  -0.02349  -0.62196
   D38        1.43706  -0.00305   0.00000  -0.06469  -0.06387   1.37319
   D39       -0.57778  -0.00177   0.00000  -0.03798  -0.03758  -0.61536
   D40       -2.59800   0.00175   0.00000   0.00549   0.00572  -2.59228
   D41        0.95515   0.00107   0.00000  -0.00429  -0.00454   0.95062
   D42       -1.10301   0.00106   0.00000  -0.00437  -0.00461  -1.10762
   D43       -3.13430   0.00106   0.00000  -0.00422  -0.00447  -3.13877
   D44       -3.10193  -0.00065   0.00000   0.00441   0.00443  -3.09750
   D45        1.12309  -0.00066   0.00000   0.00434   0.00435   1.12744
   D46       -0.90820  -0.00066   0.00000   0.00448   0.00450  -0.90370
   D47       -1.05069  -0.00064   0.00000  -0.00555  -0.00532  -1.05600
   D48       -3.10885  -0.00065   0.00000  -0.00563  -0.00540  -3.11424
   D49        1.14304  -0.00065   0.00000  -0.00548  -0.00525   1.13780
   D50        1.05607   0.00001   0.00000  -0.00017  -0.00017   1.05590
   D51       -3.13431   0.00018   0.00000   0.00078   0.00078  -3.13353
   D52       -1.09498  -0.00026   0.00000  -0.00170  -0.00170  -1.09668
   D53       -0.90157   0.00812   0.00000   0.03801   0.04381  -0.85776
   D54        1.08775  -0.00261   0.00000   0.02732   0.02802   1.11577
   D55        3.08998  -0.00015   0.00000   0.01435   0.01419   3.10418
   D56       -1.17869  -0.00349   0.00000  -0.03184  -0.03184  -1.21053
   D57       -3.09189  -0.00082   0.00000   0.02047   0.02030  -3.07159
   D58       -1.08966   0.00164   0.00000   0.00750   0.00647  -1.08319
   D59        0.92485  -0.00170   0.00000  -0.03869  -0.03956   0.88529
   D60       -1.00324  -0.00300   0.00000  -0.00343  -0.00306  -1.00630
   D61        0.99899  -0.00054   0.00000  -0.01639  -0.01688   0.98211
   D62        3.01350  -0.00388   0.00000  -0.06259  -0.06292   2.95058
   D63        2.61349  -0.00578   0.00000  -0.03020  -0.02863   2.58486
   D64        0.64160  -0.00083   0.00000  -0.00593  -0.00613   0.63547
   D65       -1.42865   0.00648   0.00000   0.03371   0.03235  -1.39630
   D66       -0.48849  -0.00972   0.00000  -0.06050  -0.05947  -0.54797
   D67        1.76041   0.01100   0.00000   0.06895   0.06803   1.82845
   D68       -2.50233  -0.00099   0.00000  -0.00330  -0.00341  -2.50574
         Item               Value     Threshold  Converged?
 Maximum Force            0.025903     0.000450     NO 
 RMS     Force            0.005834     0.000300     NO 
 Maximum Displacement     0.840427     0.001800     NO 
 RMS     Displacement     0.208192     0.001200     NO 
 Predicted change in Energy=-1.947044D-02
 GradGradGradGradGradGradGradGradGradGradGradGradGradGradGradGradGradGrad

                          Input orientation:                          
 ---------------------------------------------------------------------
 Center     Atomic      Atomic             Coordinates (Angstroms)
 Number     Number       Type             X           Y           Z
 ---------------------------------------------------------------------
      1          6           0        1.308660   -0.611580   -1.539251
      2          8           0       -0.493140    0.969031   -0.763005
      3          1           0        0.680443    3.393084    0.798235
      4          1           0        3.039440    0.834812    1.136951
      5          8           0        3.098952    1.465612    0.396660
      6          1           0        1.840102    2.200668    0.614882
      7          8           0        0.823431    2.434765    0.820679
      8          1           0       -0.014700    1.622911   -0.128266
      9          6           0       -1.154704   -0.833629    0.852999
     10          6           0       -1.572511    0.231597   -0.210058
     11          1           0       -1.384128   -0.422500    1.844420
     12          1           0       -2.005440   -0.317050   -1.057680
     13          8           0       -1.991129   -1.976078    0.723921
     14          1           0       -1.694588   -2.410828   -0.097032
     15          6           0       -2.635917    1.170882    0.365506
     16          8           0       -3.114871    2.135861   -0.550963
     17          1           0       -2.201511    1.741924    1.194342
     18          1           0       -3.446119    0.550724    0.782677
     19          1           0       -3.515782    1.667655   -1.299957
     20          1           0        2.929144    0.880362   -0.422968
     21          6           0        1.075616   -1.638484   -0.401575
     22          1           0        2.083540   -1.976193   -0.126959
     23          6           0        0.345937   -1.263256    0.922622
     24          1           0        0.316795   -2.210119    1.477645
     25          8           0        0.346785   -2.719475   -1.025494
     26          1           0        0.598327   -3.545333   -0.583598
     27          8           0        1.129918   -0.385211    1.718660
     28          1           0        0.780019    0.525460    1.670727
     29          8           0        2.325989    0.098400   -1.628270
     30          1           0        0.797251   -0.938639   -2.459383
 ---------------------------------------------------------------------
                    Distance matrix (angstroms):
                    1          2          3          4          5
     1  C    0.000000
     2  O    2.519399   0.000000
     3  H    4.679299   3.113006   0.000000
     4  H    3.499958   4.013349   3.496334   0.000000
     5  O    3.356728   3.807170   3.118589   0.974413   0.000000
     6  H    3.582103   2.976495   1.673405   1.891172   1.473985
     7  O    3.883933   2.527803   0.969188   2.751467   2.509391
     8  H    2.955522   1.029251   2.115453   3.398477   3.161506
     9  C    3.440977   2.509725   4.608240   4.522740   4.856784
    10  C    3.283115   1.419367   4.010918   4.842354   4.869648
    11  H    4.328520   3.086888   4.462695   4.652881   5.075331
    12  H    3.361832   2.006960   4.942013   5.620854   5.598911
    13  O    4.227576   3.623339   5.997560   5.777397   6.153150
    14  H    3.786395   3.648348   6.334641   5.870938   6.184541
    15  C    4.729160   2.430179   4.015431   5.737400   5.742522
    16  O    5.300262   2.877486   4.219640   6.512859   6.321299
    17  H    5.033170   2.710553   3.344980   5.319183   5.367267
    18  H    5.417584   3.359196   5.010766   6.501438   6.619969
    19  H    5.341106   3.148453   4.998783   7.042946   6.831840
    20  H    2.469402   3.440279   3.586331   1.564477   1.021343
    21  C    1.550208   3.064436   5.187715   3.512956   3.790314
    22  H    2.111202   3.964616   5.626171   3.226912   3.626466
    23  C    2.722560   2.920359   4.669997   3.420933   3.911834
    24  H    3.555387   3.972846   5.655946   4.098838   4.734968
    25  O    2.373261   3.792025   6.387542   4.955755   5.206908
    26  H    3.166189   4.647900   7.075157   5.301414   5.685385
    27  O    3.270653   3.259900   3.914681   2.339469   3.008376
    28  H    3.446198   2.782219   2.999071   2.342136   2.807950
    29  O    1.243767   3.074764   4.410294   2.949196   2.562631
    30  H    1.102339   2.860423   5.421213   4.594144   4.385799
                    6          7          8          9         10
     6  H    0.000000
     7  O    1.063378   0.000000
     8  H    2.079991   1.504017   0.000000
     9  C    4.269956   3.820532   2.880466   0.000000
    10  C    4.025382   3.414222   2.090269   1.561844   0.000000
    11  H    4.334563   3.753042   3.154446   1.097532   2.164303
    12  H    4.891274   4.370724   2.930922   2.154367   1.098591
    13  O    5.668812   5.233225   4.193473   1.421779   2.433389
    14  H    5.853781   5.537363   4.369674   1.918747   2.647656
    15  C    4.599718   3.711021   2.705351   2.539627   1.531131
    16  O    5.090693   4.181025   3.170624   3.825080   2.474129
    17  H    4.108632   3.125688   2.558436   2.801034   2.156169
    18  H    5.540272   4.666917   3.708644   2.678052   2.144241
    19  H    5.712812   4.890228   3.692214   4.057873   2.650745
    20  H    2.001588   2.897733   3.050319   4.609087   4.553145
    21  C    4.044344   4.260148   3.449665   2.682551   3.247532
    22  H    4.249207   4.684275   4.166072   3.570993   4.271762
    23  C    3.784971   3.730114   3.092634   1.562483   2.682907
    24  H    4.745510   4.718393   4.169048   2.109554   3.518493
    25  O    5.397095   5.495610   4.448821   3.056080   3.613511
    26  H    5.999575   6.146889   5.224355   3.534157   4.372330
    27  O    2.899907   2.975326   2.958689   2.483938   3.376911
    28  H    2.246087   2.090434   2.252189   2.501791   3.026236
    29  O    3.112450   3.703191   3.170642   4.374997   4.150587
    30  H    4.515960   4.705247   3.557375   3.846171   3.470546
                   11         12         13         14         15
    11  H    0.000000
    12  H    2.969735   0.000000
    13  O    2.009371   2.434477   0.000000
    14  H    2.796259   2.324517   0.975145   0.000000
    15  C    2.508591   2.153346   3.232270   3.732115   0.000000
    16  O    3.908778   2.739411   4.449288   4.784939   1.414389
    17  H    2.403216   3.057682   3.753544   4.378352   1.096252
    18  H    2.515208   2.493090   2.916363   3.551413   1.102295
    19  H    4.335874   2.505770   4.438179   4.625775   1.948002
    20  H    5.044088   5.117302   5.803765   5.684810   5.628144
    21  C    3.545907   3.416075   3.284149   2.891936   4.717672
    22  H    4.280773   4.509850   4.162562   3.803164   5.693845
    23  C    2.133005   3.216500   2.451423   2.553499   3.889327
    24  H    2.494644   3.924838   2.439137   2.562334   4.624557
    25  O    4.063073   3.362387   3.013128   2.263739   5.095711
    26  H    4.424645   4.174466   3.298098   2.604095   5.796880
    27  O    2.517466   4.188458   3.641607   3.921441   4.293480
    28  H    2.369036   3.989086   3.851414   4.227344   3.713327
    29  O    5.108413   4.388559   5.336082   4.980558   5.453977
    30  H    4.852580   3.194718   4.357151   3.735948   4.921049
                   16         17         18         19         20
    16  O    0.000000
    17  H    2.008856   0.000000
    18  H    2.097851   1.771292   0.000000
    19  H    0.970020   2.820346   2.364265   0.000000
    20  H    6.174365   5.448082   6.496632   6.551795   0.000000
    21  C    5.641648   4.971285   5.161509   5.728751   3.127396
    22  H    6.641705   5.825108   6.147347   6.782769   2.993755
    23  C    5.069778   3.948978   4.205925   5.333196   3.616445
    24  H    5.897383   4.694760   4.718555   6.118893   4.470768
    25  O    5.981850   5.596925   5.324454   5.851638   4.471067
    26  H    6.787111   6.241414   5.916243   6.679394   5.004527
    27  O    5.433712   3.987234   4.763629   5.908370   3.070092
    28  H    4.764396   3.255188   4.318509   5.346353   3.021300
    29  O    5.908874   5.582701   6.271722   6.057775   1.558208
    30  H    5.329101   5.433939   5.543947   5.171005   3.464205
                   21         22         23         24         25
    21  C    0.000000
    22  H    1.097894   0.000000
    23  C    1.557795   2.151549   0.000000
    24  H    2.105717   2.398095   1.097929   0.000000
    25  O    1.445341   2.091925   2.432227   2.554613   0.000000
    26  H    1.974085   2.208298   2.745956   2.471999   0.969839
    27  O    2.463542   2.616663   1.421009   2.012349   3.686797
    28  H    3.010725   3.345012   1.986855   2.781232   4.241097
    29  O    2.466775   2.572285   3.504534   4.360370   3.495855
    30  H    2.191311   2.858541   3.427392   4.165056   2.330307
                   26         27         28         29         30
    26  H    0.000000
    27  O    3.945802   0.000000
    28  H    4.656861   0.976754   0.000000
    29  O    4.165688   3.586977   3.668213   0.000000
    30  H    3.217607   4.227647   4.381974   2.025645   0.000000
 Stoichiometry    C6H16O8
 Framework group  C1[X(C6H16O8)]
 Deg. of freedom    84
 Full point group                 C1      NOp   1
 Largest Abelian subgroup         C1      NOp   1
 Largest concise Abelian subgroup C1      NOp   1
                         Standard orientation:                         
 ---------------------------------------------------------------------
 Center     Atomic      Atomic             Coordinates (Angstroms)
 Number     Number       Type             X           Y           Z
 ---------------------------------------------------------------------
      1          6           0        1.503587    0.482642    1.408898
      2          8           0       -0.599049   -0.800431    0.879732
      3          1           0        0.014871   -3.509925   -0.524743
      4          1           0        2.756232   -1.455152   -1.222744
      5          8           0        2.757019   -2.027361   -0.434038
      6          1           0        1.376191   -2.536797   -0.514178
      7          8           0        0.322078   -2.597989   -0.640169
      8          1           0       -0.289879   -1.577086    0.279250
      9          6           0       -1.047932    0.962313   -0.849417
     10          6           0       -1.568925    0.075513    0.325959
     11          1           0       -1.416727    0.524416   -1.785801
     12          1           0       -1.836600    0.757148    1.144877
     13          8           0       -1.659059    2.243874   -0.774708
     14          1           0       -1.232474    2.679639   -0.013760
     15          6           0       -2.819455   -0.697089   -0.102557
     16          8           0       -3.393403   -1.485820    0.921642
[...]
 000111,0.00065755,0.00044347,-0.00032788,0.00009719,-0.00001222,-0.000
 01224,-0.00000761,0.00007318,0.00002751,-0.00004809,-0.00008196,0.0000
 1536,-0.00004490,0.00004846,-0.00015453,-0.00029384,0.00286840,0.00706
 549,-0.00953648,-0.00039631,0.00145645,0.00002717,0.01274092,-0.195987
 07,0.12700254,-0.00562190,0.22734333,-0.00033667,-0.00686730,-0.001325
 42,-0.00074857,0.00010483,0.00040772,0.00000261,-0.00000258,0.00004030
 ,0.00025245,0.00001899,-0.00008337,-0.00019211,0.00006098,0.00035165,0
 .00022123,0.00004016,-0.00018837,0.00002813,-0.00068127,0.00032031,-0.
 00022701,-0.00008479,-0.00016506,0.00025257,0.00207834,0.00011153,0.00
 073491,0.00103934,0.00031818,-0.00046927,-0.00013010,0.00056385,0.0000
 8517,-0.00013228,0.00012462,0.00081705,-0.00146688,0.00067117,-0.00075
 245,0.00025684,-0.00068066,0.00008150,0.00007167,-0.00011187,-0.000076
 35,-0.00003999,0.00007519,-0.00001225,0.00000329,0.00001327,-0.0000709
 5,0.00001146,0.00002653,0.00003697,0.00000869,-0.00001512,-0.00019640,
 -0.00024077,-0.00035047,0.00430909,0.02197733,-0.02913130,-0.00006658,
 0.00021300,0.00165125,-0.00762223,0.13283174,-0.15850829,0.00695260,-0
 .13006551,0.17070332,-0.01853381,-0.01721243,-0.01334646,0.00210178,0.
 00029612,-0.00045807,-0.00007249,0.00003060,0.00003726,-0.00003947,0.0
 0032983,0.00041654,0.00004594,-0.00078429,-0.00054678,-0.00053350,0.00
 047765,0.00018291,0.00061665,-0.00033299,-0.00007442,-0.00015991,-0.00
 000315,-0.00012858,-0.00312283,-0.00268884,-0.00115534,-0.00224219,-0.
 00135128,-0.00088569,0.00094607,0.00003214,0.00009807,0.00033567,0.000
 68177,0.00106297,-0.00117348,0.00409478,0.00433456,-0.00135754,0.00024
 958,0.00054464,0.00053982,0.00011602,0.00052063,0.00003610,0.00015389,
 -0.00016536,-0.00017086,0.00025250,0.00011197,0.00021686,-0.00005411,-
 0.00008453,0.00002578,-0.00013576,0.00004123,0.00049043,0.00083266,0.0
 0039902,-0.15294469,-0.03985453,-0.00865464,-0.02557414,-0.03216916,-0
 .01419058,0.00598341,0.00349842,0.00114672,0.00029328,0.00070964,-0.00
 024170,0.32387679,-0.03444612,-0.02537506,-0.01880238,0.00171562,-0.00
 026957,-0.00026836,-0.00010144,0.00011372,0.00005270,0.00065699,0.0001
 8736,0.00029835,-0.00072898,-0.00059031,-0.00050923,-0.00004854,0.0004
 6413,0.00006245,0.00017622,-0.00088504,-0.00001546,-0.00011187,0.00039
 061,-0.00004107,-0.00109420,0.00018602,0.00220924,0.00042682,-0.000974
 12,0.00079617,-0.00020445,0.00030084,0.00001515,0.00019714,-0.00091860
 ,-0.00060954,0.00389230,0.00191813,-0.00254958,-0.00022354,-0.00367746
 ,-0.00149187,-0.00064801,0.00002638,-0.00034339,0.00047903,-0.00021701
 ,0.00011389,0.00011985,-0.00009292,-0.00002851,0.00022550,-0.00001493,
 -0.00006947,-0.00025696,0.00003280,-0.00001665,0.00082986,0.00066950,0
 .00052093,-0.07147824,-0.12833537,-0.03555551,-0.00188726,0.00762301,-
 0.00052330,-0.01876606,-0.01712337,-0.00675636,0.00020228,0.00116261,-
 0.00058921,-0.01348519,0.36240938,0.01334654,0.01377385,0.00590761,0.0
 0005391,0.00022077,0.00114089,-0.00002710,0.00013274,0.00002737,0.0007
 4037,0.00044250,-0.00023261,-0.00034752,-0.00019762,0.00067317,0.00018
 786,0.00024864,-0.00028000,0.00010185,-0.00103263,0.00059400,-0.000467
 00,0.00002453,-0.00037445,0.00005543,0.00266002,0.00189734,-0.00011107
 ,-0.00038466,-0.00122364,-0.00056760,-0.00000592,0.00015909,0.00036441
 ,0.00014168,0.00020756,0.00571678,-0.00238118,-0.00278239,-0.00018320,
 -0.00225570,-0.00358514,-0.00004400,0.00017583,0.00008654,0.00017420,-
 0.00025350,0.00030247,-0.00005846,0.00008610,0.00008680,-0.00013574,0.
 00004030,0.00004191,0.00005403,-0.00003327,-0.00009322,-0.00016143,-0.
 00022950,-0.00072340,-0.03801528,-0.04346443,-0.08350856,-0.01008821,-
 0.00921404,-0.00343265,-0.02595528,-0.02535052,-0.01030451,-0.00108074
 ,0.00084032,0.00278945,-0.10916182,0.26927571,0.31811799,0.00064699,-0
 .00052609,-0.00073598,0.00012967,0.00020996,-0.00003648,-0.00000017,0.
 00000007,0.00000770,0.00011827,0.00000156,-0.00003199,-0.00009119,0.00
 004348,0.00006564,0.00006204,0.00000063,-0.00002856,-0.00000748,-0.000
 07338,0.00005764,-0.00004788,-0.00001843,-0.00005698,-0.00063160,-0.00
 128986,-0.00042827,-0.00015730,-0.00015309,0.00006428,0.00001453,0.000
 10118,0.00004435,0.00008003,0.00004074,0.00022058,-0.00100388,0.000913
 07,0.00143815,0.00239413,0.00100740,-0.00115413,0.00017316,-0.00008398
 ,0.00010512,-0.00010176,0.00010511,-0.00011607,-0.00002991,0.00002247,
 0.00000231,0.00002568,-0.00000196,-0.00000284,0.00002973,0.00000111,0.
 00003324,0.00001674,-0.00006704,-0.00005883,0.00927705,-0.02390234,-0.
 02466125,0.00063546,-0.00003319,-0.00106285,-0.00394483,-0.00306828,0.
 00050944,-0.00008872,0.00014354,0.00004853,-0.13275632,0.13545403,0.16
 031749,0.12591148,-0.00079203,-0.00110359,-0.00218718,-0.00020975,0.00
 026667,0.00035258,0.00001691,-0.00000841,-0.00000785,0.00000434,0.0000
 1636,-0.00014529,0.00011827,0.00015058,0.00028947,0.00005430,-0.000066
 87,-0.00007586,-0.00000559,0.00004711,0.00013030,-0.00012574,-0.000108
 96,-0.00007387,-0.00012008,-0.00008743,0.00044315,0.00025367,0.0000811
 6,-0.00008817,-0.00011970,0.00007238,0.00004048,0.00011627,-0.00011477
 ,-0.00006962,-0.00095916,0.00056864,0.00094873,0.00172934,-0.00013750,
 -0.00081266,0.00006066,-0.00007941,0.00001218,-0.00013371,0.00006901,-
 0.00000786,-0.00000102,0.00001534,0.00000161,-0.00003197,-0.00000438,0
 .00001100,0.00008629,-0.00001739,-0.00000455,-0.00025122,-0.00026818,-
 0.00027777,0.01348054,-0.01666338,-0.01590840,-0.00001903,0.00275659,0
 .00085137,-0.00397398,-0.00224123,0.00066440,0.00002104,0.00024719,-0.
 00006850,0.09656963,-0.19279679,-0.19707299,-0.10745887,0.20941805,0.0
 0148420,0.00119069,0.00340559,-0.00002204,0.00000647,-0.00014738,-0.00
 000152,-0.00000179,0.00000971,0.00005985,-0.00006592,-0.00001128,-0.00
 006309,0.00006031,-0.00004165,0.00004049,-0.00001457,0.00000460,-0.000
 01777,-0.00001905,0.00000615,0.00002377,-0.00002903,-0.00000128,0.0002
 6407,0.00060934,0.00032282,-0.00016383,-0.00007432,0.00004063,-0.00018
 070,-0.00001129,0.00000032,0.00012368,-0.00006368,0.00015136,0.0004197
 3,-0.00000866,-0.00004157,-0.00023563,-0.00045331,-0.00055103,0.000142
 11,0.00000264,0.00006188,-0.00005150,0.00005901,-0.00007658,-0.0000279
 7,0.00001303,0.00000208,0.00000179,-0.00000032,0.00000028,-0.00000053,
 -0.00000790,0.00003011,0.00002544,-0.00003193,0.00007328,0.00678371,-0
 .00624541,-0.01099446,0.00109192,0.00128763,0.00065187,-0.00415704,-0.
 00246203,0.00042397,0.00006085,0.00031351,0.00020015,0.12712903,-0.206
 49337,-0.21889595,-0.13264441,0.21294690,0.22859049,-0.00502888,-0.005
 23861,0.00078416,0.00220613,0.00222320,-0.00213539,-0.00006856,0.00031
 459,-0.00020940,0.00248287,0.00188906,0.00171168,-0.00590130,-0.007262
 50,0.00384365,-0.00293718,0.00357290,-0.00029424,0.00567007,-0.0013638
 2,0.00104726,-0.00108123,-0.00098713,-0.00031473,-0.02059142,-0.032057
 76,-0.01515780,-0.00180734,-0.00149407,0.00244399,0.00379078,-0.002370
 67,-0.00122700,-0.00006166,0.00010530,-0.00015856,-0.01346839,-0.00212
 841,-0.00171532,-0.00025182,0.00133571,0.00137833,0.00085710,-0.000570
 51,-0.00017730,-0.00078263,0.00096949,-0.00073638,-0.00001698,0.000057
 89,0.00006081,0.00023139,-0.00005726,-0.00007931,0.00015852,-0.0001208
 1,0.00017043,0.00013824,-0.00034769,-0.00290041,0.00364115,-0.00202296
 ,-0.01245811,0.00167747,-0.00034192,-0.00055625,-0.13766795,-0.0338529
 2,-0.04111087,0.00009094,-0.00716056,-0.00152604,0.00217745,0.00112166
 ,0.00187765,0.00014135,0.00018345,0.00049720,0.24947423,-0.00385811,-0
 .00868404,0.00367526,0.00387043,0.00329525,0.00165970,-0.00076788,-0.0
 0035358,0.00269950,0.00641564,-0.00188151,-0.00144219,-0.00847551,-0.0
 0150022,0.00474578,0.00361936,0.00075580,-0.00224673,0.00103546,-0.019
 25599,0.00393243,-0.00348301,-0.00134299,-0.00301311,-0.00270643,-0.00
 140834,-0.00287337,-0.00393538,-0.00227759,0.00258463,0.00029336,0.001
 35517,0.00162527,0.00043085,0.00031397,0.00015370,-0.00344475,0.002977
 33,-0.00076471,0.00217019,0.00000640,0.00067073,0.00038361,-0.00051271
 ,-0.00107197,-0.00044187,0.00086405,-0.00032255,-0.00009478,0.00024093
 ,0.00024730,0.00033832,-0.00003063,0.00000181,0.00006647,-0.00008009,0
 .00011631,-0.00012170,-0.00187671,-0.00257847,-0.01464618,-0.01422372,
 -0.01613473,-0.00058965,0.00114583,0.00245477,-0.07493835,-0.16491293,
 -0.04238954,-0.02715562,-0.03263378,-0.01978105,0.00113004,-0.00346710
 ,-0.00735849,-0.00146899,-0.00023579,-0.00070834,-0.02732097,0.6049572
 4,0.00041583,0.00015830,0.00424623,-0.00283045,0.00062545,-0.00109565,
 0.00033971,0.00167346,-0.00127309,0.00186716,0.00066068,-0.00424175,0.
 00174467,0.00201784,0.00293240,0.00034260,-0.00058141,-0.00111066,-0.0
 0051699,-0.00012843,0.00546111,0.00032378,-0.00112616,-0.00046995,-0.0
 0298498,-0.00762668,-0.00250518,0.00198765,0.00158961,-0.00016354,-0.0
 0049666,0.00170617,0.00172680,0.00028748,-0.00025323,0.00046285,-0.000
 60817,0.00080135,0.00162315,0.00102394,0.00020848,-0.00042328,-0.00003
 501,-0.00025888,-0.00008017,-0.00017036,0.00009358,0.00015741,-0.00001
 688,0.00019058,0.00004569,-0.00017485,0.00003821,0.00004805,0.00015157
 ,-0.00003257,-0.00000280,-0.00160482,-0.00137959,0.00030920,-0.0229549
 6,-0.02173160,-0.00977819,0.00023266,0.00050695,0.00120117,-0.04895464
 ,-0.02605326,-0.08868784,0.00735828,0.00478463,0.01244395,0.00250771,-
 0.00694080,-0.00719774,-0.00192718,-0.00105156,-0.00080274,0.12004960,
 -0.02756846,0.13250370,0.00217637,0.00008418,0.00017922,0.00029752,0.0
 0043963,0.00161652,-0.00034843,0.00017798,-0.00026993,-0.00584413,0.00
 256867,-0.00044505,0.00262366,0.00084365,-0.00119795,0.00023461,-0.008
 28484,0.00245065,-0.00720952,0.00200605,0.00003829,-0.00035863,0.00217
 951,-0.00242402,0.00009399,-0.00375035,-0.00070743,-0.00182949,-0.0005
 0705,-0.00090785,-0.00084236,0.00026362,0.00117792,0.00026296,0.000039
 92,0.00031314,-0.00013482,0.00198725,0.00033367,0.00065765,-0.00005959
 ,-0.00002650,-0.00052049,0.00011280,-0.00033363,0.00038999,-0.00027449
 ,0.00031930,-0.00009951,0.00016503,0.00009287,0.00008668,0.00001453,0.
 00004765,-0.00010423,0.00003640,-0.00004740,-0.00066730,0.00043463,0.0
 0125746,-0.00059090,0.00072024,0.00013224,-0.00003373,0.00000741,0.000
 06316,0.00602959,-0.03179590,0.00756260,-0.00329564,-0.00516482,-0.002
 43013,-0.00023397,-0.00039413,-0.00041452,-0.00008952,0.00000968,-0.00
 006407,-0.08775614,0.14897407,-0.05523219,0.09867006,0.00058297,0.0022
 8780,-0.00276529,-0.00076750,-0.00415961,0.00043512,0.00111417,-0.0004
 7017,-0.00341401,0.00173239,0.00352737,-0.00003024,0.00250439,-0.00487
 948,-0.00053313,-0.01124863,-0.00095460,0.00494028,0.00076747,0.005262
 77,-0.00163172,0.00472421,0.00329494,0.00492693,-0.00139515,0.00288333
 ,0.00121339,0.00082190,0.00177163,-0.00205012,-0.00101232,0.00062982,0
 .00017363,-0.00018910,-0.00039053,0.00022199,0.00314404,0.00040780,0.0
 0067162,-0.00036471,-0.00012252,-0.00032941,-0.00032850,0.00070235,0.0
 0068513,0.00033223,-0.00070039,0.00027635,0.00015506,-0.00017078,-0.00
 026908,-0.00021466,-0.00007721,-0.00006025,-0.00008681,0.00005845,-0.0
 0009602,0.00049935,0.00130763,0.00057411,0.00046585,-0.00096673,0.0008
 9453,0.00011674,-0.00009624,-0.00006249,0.00117256,-0.02924821,0.00182
 205,-0.00097906,0.00066798,-0.00182020,0.00037636,0.00117698,0.0015351
 9,0.00013178,0.00017541,-0.00000552,0.10881359,-0.36805204,0.07980335,
 -0.10999142,0.38817462,-0.00058048,-0.00269295,-0.00098595,0.00402213,
 0.00117309,0.00088003,-0.00121860,-0.00414709,0.00259809,0.00076945,0.
 00003653,0.00188046,-0.00174669,-0.00054405,-0.00111990,0.00150147,0.0
 0351719,0.00080096,0.00238726,0.00254317,-0.01029953,-0.00292767,0.002
 78080,-0.00178986,-0.00039605,0.00018133,0.00217844,-0.00373970,-0.002
 61458,0.00140894,0.00099607,0.00000342,-0.00058716,0.00023015,0.000302
 57,-0.00019256,-0.00048682,-0.00009888,-0.00085434,-0.00001891,-0.0001
 3364,0.00013739,0.00015903,0.00032984,-0.00002163,0.00013146,0.0000664
 4,-0.00027615,-0.00004610,-0.00010355,0.00001415,0.00029930,-0.0000911
 8,-0.00007186,-0.00015819,0.00001426,0.00000443,0.00132775,0.00016166,
 -0.00030361,-0.00194203,-0.00266261,0.00031948,-0.00014778,0.00024360,
 0.00021785,0.00720844,-0.01728764,0.00096296,0.00025738,0.00049710,-0.
 00004307,0.00006961,-0.00041449,-0.00173723,-0.00020898,-0.00017703,-0
 .00029459,-0.05599057,0.10385625,-0.04298946,0.04964633,-0.08611923,0.
 05005406,-0.57493330,-0.31053331,-0.00453663,-0.00301832,0.00374718,0.
 00415054,-0.00001267,0.00005423,0.00011422,-0.00176183,-0.00057319,0.0
 0219738,0.00089768,-0.00681409,-0.00897209,-0.00383362,0.00215826,0.00
 113679,0.00364355,0.00018128,-0.00023474,-0.00364519,-0.00131192,-0.00
 085164,-0.00028646,0.00077028,-0.00014692,0.00083759,0.00203605,-0.000
 81212,-0.00035519,0.00014972,0.00038166,0.00040516,0.00000731,0.000068
 33,-0.00018903,-0.00033470,0.00069882,0.00066831,0.00010817,-0.0005108
 5,0.00024090,-0.00133335,0.00036654,-0.00064026,0.00056591,-0.00022547
 ,-0.00001907,0.00015941,0.00008428,-0.00042577,0.00024116,0.00009567,0
 .00042904,-0.00015823,0.00006803,0.00011552,0.00443648,0.00300998,-0.0
 1417230,-0.02057369,0.01615155,0.00185649,-0.00250864,0.00158174,-0.00
 090242,-0.00710646,-0.00610103,-0.00054186,0.00072880,0.00150372,-0.00
 010866,-0.00357841,0.00232879,-0.00088523,0.00112852,-0.00025201,0.004
 35916,0.00482117,0.00000555,-0.00124608,-0.00097935,0.00049036,0.62957
 893,-0.30878155,-0.25429974,0.01513086,0.00535026,0.00430131,0.0005206
 9,-0.00009495,0.00005156,0.00008794,-0.00107872,-0.00173415,0.00148384
 ,-0.00385429,-0.00498466,-0.01045638,-0.00268582,0.00186270,0.00168244
 ,0.00251474,0.00018520,-0.00128880,-0.00262696,-0.00041347,0.00003631,
 0.00089583,0.00019375,0.00124314,-0.00060107,-0.00236829,0.00056595,-0
 .00062725,0.00034170,0.00021574,0.00040552,0.00024108,0.00001624,-0.00
 057671,0.00056889,-0.00001189,0.00098654,-0.00021725,-0.00041639,0.000
 60885,-0.00005278,-0.00022150,-0.00028060,0.00044736,-0.00028169,-0.00
 008504,0.00008608,0.00009468,0.00019423,-0.00003999,-0.00005857,0.0000
 8100,-0.00009602,0.00006262,0.00468704,0.00228023,0.00272381,-0.033111
 17,-0.00750493,0.01882353,0.00013337,0.00187999,-0.00308527,-0.0018951
 2,-0.01035268,-0.00654417,-0.00076272,0.00085349,0.00199752,-0.0045382
 7,-0.00540023,0.00182015,-0.00011628,0.00078916,0.00007898,0.00377132,
 0.00607381,0.00017720,-0.00100246,-0.00182762,0.00130346,0.36124497,0.
 26026741,0.00084167,0.02436005,-0.09829197,0.00206229,0.00029520,0.001
 76841,-0.00003713,0.00012448,0.00002717,0.00002447,0.00019170,0.002059
 27,-0.00332455,-0.00514281,-0.00313816,-0.00105170,0.00111814,0.000055
 42,0.00093926,-0.00084925,0.00007532,-0.00097317,0.00031305,-0.0001877
 3,-0.00025408,0.00021207,-0.00036614,0.00014919,-0.00004198,-0.0005985
 0,0.00015301,-0.00007084,0.00004294,0.00026555,0.00017446,0.00002018,0
 .00060119,-0.00028059,-0.00000460,-0.00065987,0.00027679,0.00022810,-0
 .00012216,0.00029452,-0.00012760,0.00013598,-0.00023639,0.00031058,-0.
 00003482,0.00003533,0.00004160,-0.00000943,-0.00004190,0.00003016,0.00
 004542,0.00004330,-0.00009948,-0.00072316,-0.00267914,-0.00735187,0.01
 924651,0.01404716,0.01816185,0.00062834,-0.00161209,0.00082730,-0.0016
 1803,-0.00329983,0.00100740,-0.00017769,0.00050576,0.00032382,0.007840
 62,0.00933154,-0.00230827,0.00020910,0.00030255,-0.00127861,0.00266461
 ,0.00027800,-0.00224995,-0.00062581,0.00066166,0.00024281,-0.00200340,
 -0.02121096,0.07400106,-0.13509725,0.01178328,-0.11375598,-0.00104817,
 0.00281618,0.00352440,-0.00000559,0.00003772,0.00001767,-0.00005496,-0
 .00007202,0.00050241,-0.00041674,-0.00130065,-0.00135055,-0.00065614,0
 .00049088,0.00014183,0.00063483,-0.00019743,0.00001410,-0.00098174,0.0
 0019961,0.00009154,-0.00026041,0.00002576,-0.00015143,0.00051436,0.000
 88321,0.00011289,0.00002295,-0.00000504,0.00002063,0.00002303,-0.00017
 491,0.00001286,0.00019857,-0.00007408,0.00011520,-0.00005870,0.0000096
 7,-0.00003627,-0.00015255,-0.00002745,-0.00000899,0.00000432,-0.000043
 60,0.00007116,-0.00000870,-0.00001452,-0.00001575,-0.00007386,0.000009
 90,-0.00000141,0.00001930,0.00001041,-0.00001122,0.00136154,0.00194003
 ,0.00097399,0.00812847,-0.00920694,-0.00002790,-0.00029742,-0.00130827
 ,0.00095034,-0.00052139,0.00187380,-0.00004649,0.00022380,-0.00007489,
 -0.00035783,0.00133785,0.00195607,0.00149965,0.00017951,0.00036894,-0.
 00026572,0.00032461,-0.00009979,-0.00013005,-0.00031818,0.00010214,0.0
 0011237,-0.03605508,-0.01815469,-0.02419222,0.16303371,0.01213190,-0.0
 5268075,0.02086540,0.00246846,-0.00333639,-0.00345498,-0.00002210,-0.0
 0000142,-0.00001129,-0.00018238,0.00001520,0.00007334,0.00037336,-0.00
 012331,-0.00008345,-0.00004710,-0.00003657,0.00001022,-0.00006808,0.00
 006716,-0.00008857,0.00096016,-0.00023780,0.00000128,0.00050489,-0.000
 10345,0.00010588,-0.00036971,-0.00077133,0.00033549,-0.00005772,0.0000
 4315,-0.00002363,-0.00019056,0.00013929,-0.00001449,-0.00020595,0.0000
 3014,-0.00021112,-0.00004368,0.00003221,0.00017407,0.00015914,0.000248
 64,-0.00022452,-0.00004007,0.00001523,0.00003129,-0.00001204,0.0000047
 4,0.00002358,0.00012586,-0.00006122,0.00000133,0.00001233,0.00002648,-
 0.00002530,-0.00048627,0.00064064,0.00046969,0.00070368,0.00741455,0.0
 2144308,-0.00015680,-0.00111877,0.00028767,0.00018681,-0.00491151,0.00
 117822,-0.00062151,0.00080588,0.00125625,0.00277839,0.00347642,-0.0021
 8388,0.00008563,-0.00073956,0.00012795,0.00034042,0.00074398,-0.000303
 19,0.00015980,-0.00021275,0.00007620,-0.02673356,0.00886807,-0.0170999
 9,0.00824669,0.04176303,-0.10549333,0.02201715,-0.20840451,0.00097687,
 -0.00100069,0.00010430,0.00001472,0.00002538,0.00001066,0.00007303,0.0
 0020437,-0.00000019,0.00029614,-0.00001896,0.00037469,-0.00005852,0.00
 010447,-0.00002074,0.00016096,-0.00016370,0.00017446,-0.00019755,-0.00
 014220,0.00012012,-0.00050949,0.00001292,-0.00054441,0.00046114,-0.000
 13297,-0.00094419,0.00017489,-0.00011129,0.00006168,0.00046873,0.00015
 217,0.00002638,0.00034687,-0.00017557,0.00027448,-0.00017786,0.0001427
 9,-0.00014870,0.00012874,0.00006618,0.00012132,-0.00003611,-0.00004246
 ,0.00009122,-0.00006144,0.00006974,0.00003707,-0.00006052,-0.00000353,
 0.00002622,0.00009445,-0.00002324,-0.00003191,-0.00048852,0.00007430,-
 0.00009228,-0.02230514,0.00201992,-0.01082047,0.00078857,0.00285705,-0
 .00354019,-0.00017953,0.00133604,0.00003755,0.00038370,-0.00032238,-0.
 00053325,0.00265046,-0.00065758,0.00464756,0.00003122,0.00103446,-0.00
 083818,0.00021831,-0.00044774,-0.00008972,-0.00010452,0.00035137,-0.00
 013315,-0.00978707,-0.00448946,0.01677947,0.13219079,-0.02273654,0.203
 25468\\-0.00004355,-0.00001701,-0.00002540,-0.00000418,-0.00002050,0.0
 0001350,0.00002279,-0.00000066,0.00000707,-0.00001646,0.00000476,-0.00
 000438,0.00000908,0.00002110,-0.00001853,0.00001495,-0.00002508,0.0000
 0397,-0.00001811,-0.00000408,-0.00002253,-0.00000282,0.00001474,0.0000
 0019,0.00000251,-0.00003163,0.00002727,0.00000713,0.00002295,-0.000026
 88,0.00000515,0.00000142,0.00000240,-0.00000786,0.00000101,0.00000494,
 0.00000770,0.00001543,0.00000068,-0.00000394,0.00001109,0.00000483,0.0
 0000782,-0.00000278,0.00002300,0.00000213,0.00001041,0.00000193,0.0000
 0387,0.00000439,0.00000905,0.00000414,0.00000566,0.00000763,-0.0000068
 6,0.00000509,0.00001105,-0.00000062,-0.00002977,-0.00003154,-0.0000071
 4,-0.00002799,-0.00004612,-0.00000356,0.00000223,-0.00000588,0.0000074
 8,0.00003610,0.00001791,0.00000747,-0.00000488,-0.00000683,-0.00000275
 ,-0.00000477,0.00000738,-0.00001127,-0.00000256,-0.00000298,-0.0000147
 3,0.00000124,0.00000295,0.00001682,-0.00000279,-0.00000426,0.00003097,
 0.00000034,0.00004384,-0.00000614,0.00001654,0.00000574\\\@


 NO SCIENCE HAS EVER MADE MORE RAPID PROGRESS IN A
 SHORTER TIME THAN CHEMISTRY.
   -- MARTIN HEINRICH KLOPROTH, 1791
 (FIRST PROFESSOR OF CHEMISTRY AT THE UNIVERSITY OF BERLIN)
 Job cpu time:       0 days  0 hours 31 minutes 39.7 seconds.
 File lengths (MBytes):  RWF=    220 Int=      0 D2E=      0 Chk=      6 Scr=      1
 Normal termination of Gaussian 09 at Mon Jan 16 00:48:37 2017.
