 Entering Gaussian System, Link 0=g09
 Initial command:
 /global/software/gaussian/g09.e01/l1.exe "/scratch/10502097.yak.local/Gau-17633.inp" -scrdir="/scratch/10502097.yak.local/"
 Entering Link 1 = /global/software/gaussian/g09.e01/l1.exe PID=     17635.
  
 Copyright (c) 1988,1990,1992,1993,1995,1998,2003,2009,2015,
            Gaussian, Inc.  All Rights Reserved.
  
 This is part of the Gaussian(R) 09 program.  It is based on
 the Gaussian(R) 03 system (copyright 2003, Gaussian, Inc.),
 the Gaussian(R) 98 system (copyright 1998, Gaussian, Inc.),
 the Gaussian(R) 94 system (copyright 1995, Gaussian, Inc.),
 the Gaussian 92(TM) system (copyright 1992, Gaussian, Inc.),
 the Gaussian 90(TM) system (copyright 1990, Gaussian, Inc.),
 the Gaussian 88(TM) system (copyright 1988, Gaussian, Inc.),
 the Gaussian 86(TM) system (copyright 1986, Carnegie Mellon
 University), and the Gaussian 82(TM) system (copyright 1983,
 Carnegie Mellon University). Gaussian is a federally registered
 trademark of Gaussian, Inc.
  
 This software contains proprietary and confidential information,
 including trade secrets, belonging to Gaussian, Inc.
  
 This software is provided under written license and may be
 used, copied, transmitted, or stored only in accord with that
 written license.
  
 The following legend is applicable only to US Government
 contracts under FAR:
  
                    RESTRICTED RIGHTS LEGEND
  
 Use, reproduction and disclosure by the US Government is
 subject to restrictions as set forth in subparagraphs (a)
 and (c) of the Commercial Computer Software - Restricted
 Rights clause in FAR 52.227-19.
  
 Gaussian, Inc.
 340 Quinnipiac St., Bldg. 40, Wallingford CT 06492
  
  
 ---------------------------------------------------------------
 Warning -- This program may not be used in any manner that
 competes with the business of Gaussian, Inc. or will provide
 assistance to any competitor of Gaussian, Inc.  The licensee
 of this program is prohibited from giving any competitor of
 Gaussian, Inc. access to this program.  By using this program,
 the user acknowledges that Gaussian, Inc. is engaged in the
 business of creating and licensing software in the field of
 computational chemistry and represents and warrants to the
 licensee that it is not a competitor of Gaussian, Inc. and that
 it will not use this program in any manner prohibited above.
 ---------------------------------------------------------------
  

 Cite this work as:
 Gaussian 09, Revision E.01,
 M. J. Frisch, G. W. Trucks, H. B. Schlegel, G. E. Scuseria, 
 M. A. Robb, J. R. Cheeseman, G. Scalmani, V. Barone, B. Mennucci, 
 G. A. Petersson, H. Nakatsuji, M. Caricato, X. Li, H. P. Hratchian, 
 A. F. Izmaylov, J. Bloino, G. Zheng, J. L. Sonnenberg, M. Hada, 
 M. Ehara, K. Toyota, R. Fukuda, J. Hasegawa, M. Ishida, T. Nakajima, 
 Y. Honda, O. Kitao, H. Nakai, T. Vreven, J. A. Montgomery, Jr., 
 J. E. Peralta, F. Ogliaro, M. Bearpark, J. J. Heyd, E. Brothers, 
 K. N. Kudin, V. N. Staroverov, T. Keith, R. Kobayashi, J. Normand, 
 K. Raghavachari, A. Rendell, J. C. Burant, S. S. Iyengar, J. Tomasi, 
 M. Cossi, N. Rega, J. M. Millam, M. Klene, J. E. Knox, J. B. Cross, 
 V. Bakken, C. Adamo, J. Jaramillo, R. Gomperts, R. E. Stratmann, 
 O. Yazyev, A. J. Austin, R. Cammi, C. Pomelli, J. W. Ochterski, 
 R. L. Martin, K. Morokuma, V. G. Zakrzewski, G. A. Voth, 
 P. Salvador, J. J. Dannenberg, S. Dapprich, A. D. Daniels, 
 O. Farkas, J. B. Foresman, J. V. Ortiz, J. Cioslowski, 
 and D. J. Fox, Gaussian, Inc., Wallingford CT, 2013.
 
 ******************************************
 Gaussian 09:  ES64L-G09RevE.01 30-Nov-2015
                31-Jan-2017 
 ******************************************
 %NPROCS=4
 Will use up to    4 processors via shared memory.
 --------------------------------------------------
 # b3lyp/6-31g(d) irc=(calcfc,forward,maxpoints=20)
 --------------------------------------------------
 1/10=4,14=-1,18=10,22=1,26=3,38=1,42=20,44=3/1,23;
 2/12=2,17=6,18=5,29=1,40=1/2;
 3/5=1,6=6,7=1,11=2,16=1,25=1,30=1,71=2,74=-5,140=1/1,2,3;
 4//1;
 5/5=2,38=5/2;
 8/6=4,10=90,11=11/1;
 11/6=1,8=1,9=11,15=111,16=1/1,2,10;
 10/6=1,13=1/2;
 6/7=2,8=2,9=2,10=2,28=1/1;
 7/10=1,18=20,25=1/1,2,3,16;
 1/10=4,14=-1,18=10,22=1,26=3,42=20,44=3/23(2);
 2/29=1/2;
 99/5=20/99;
 2/29=1/2;
 3/5=1,6=6,7=1,11=2,16=1,25=1,30=1,71=2,74=-5,140=1/1,2,3;
 4/5=5,16=3,69=1/1;
 5/5=2,38=5/2;
 8/6=4,10=90,11=11/1;
 11/6=1,8=1,9=11,15=111,16=1/1,2,10;
 10/6=1,13=1/2;
 7/10=1,18=20,25=1/1,2,3,16;
 1/14=-1,18=10,22=1,26=3,42=20,44=3/23(-8);
 2/29=1/2;
 6/7=2,8=2,9=2,10=2,19=2,28=1/1;
 99/5=20,9=1/99;
 -------------------------------------------
 ./1/glo_1w_alpha_boat1_b3lyp_631Gd_iopt.out
 -------------------------------------------
 Symbolic Z-matrix:
 Charge =  0 Multiplicity = 1
 H                    -1.33213   1.38188   1.46188 
 C                    -1.24056   0.86942   0.49721 
 C                     0.84267  -0.18386  -0.53381 
 C                    -1.2998   -1.51895  -0.22106 
 C                    -0.20956  -1.05555  -1.22305 
 O                    -1.51217  -0.49647   0.8023 
 C                     0.19983   1.10832  -0.0244 
 H                    -0.6943   -0.4429   -2.00466 
 H                     0.17606   1.83477  -0.84461 
 C                    -2.31423   1.48292  -0.40871 
 H                    -3.30085   1.22249  -0.00049 
 H                    -2.25016   1.08299  -1.43172 
 H                     1.23607  -0.73492   0.331 
 O                    -2.08374   2.88925  -0.38905 
 H                    -2.70754   3.31014  -0.99896 
 O                     0.39764  -2.18551  -1.80267 
 H                     1.2301   -1.8405   -2.17616 
 O                     1.86635   0.04763  -1.48734 
 H                     2.67751   0.31077  -0.99263 
 O                     1.04825   1.61813   1.03385 
 H                     0.71939   2.50006   1.27323 
 H                    -2.24935  -1.68409  -0.74108 
 O                    -1.02354  -2.69737   0.43151 
 H                    -0.17292  -2.60942   0.90637 
 O                     0.49074  -1.56238   2.57215 
 H                    -0.35248  -1.1413    2.31681 
 H                     1.11714  -0.8226    2.60339 
 O                     3.69998   1.14062   0.24989 
 H                     2.87982   1.46962   0.67785 
 H                     4.08543   1.9179   -0.1824 
 
 IRC-IRC-IRC-IRC-IRC-IRC-IRC-IRC-IRC-IRC-IRC-IRC-IRC-IRC-IRC-IRC-IRC-IRC
 ------------------------------------------------------------------------
 INPUT DATA FOR L123
 ------------------------------------------------------------------------
 GENERAL PARAMETERS:
 Rxn path following direction = Forward
 Maximum points per path      =  20
 Step size                    =   0.100 bohr
 Integration scheme           = HPC                                 
    Redo corrector integration= Yes                                 
    DWI Weight Power          =  2
    DWI will use Hessian update vectors when possible.
    Max correction cycles     =  20
 Initial Hessian              = CalcFC
 Hessian evaluation           = All updating
 Hessian updating method      = Bofill                              
 ------------------------------------------------------------------------
 IRC-IRC-IRC-IRC-IRC-IRC-IRC-IRC-IRC-IRC-IRC-IRC-IRC-IRC-IRC-IRC-IRC-IRC
                          Input orientation:                          
 ---------------------------------------------------------------------
 Center     Atomic      Atomic             Coordinates (Angstroms)
 Number     Number       Type             X           Y           Z
 ---------------------------------------------------------------------
      1          1           0       -1.332130    1.381880    1.461880
      2          6           0       -1.240560    0.869420    0.497210
      3          6           0        0.842670   -0.183860   -0.533810
      4          6           0       -1.299800   -1.518950   -0.221060
      5          6           0       -0.209560   -1.055550   -1.223050
      6          8           0       -1.512170   -0.496470    0.802300
      7          6           0        0.199830    1.108320   -0.024400
      8          1           0       -0.694300   -0.442900   -2.004660
      9          1           0        0.176060    1.834770   -0.844610
     10          6           0       -2.314230    1.482920   -0.408710
     11          1           0       -3.300850    1.222490   -0.000490
     12          1           0       -2.250160    1.082990   -1.431720
     13          1           0        1.236070   -0.734920    0.331000
     14          8           0       -2.083740    2.889250   -0.389050
     15          1           0       -2.707540    3.310140   -0.998960
     16          8           0        0.397640   -2.185510   -1.802670
     17          1           0        1.230100   -1.840500   -2.176160
     18          8           0        1.866350    0.047630   -1.487340
     19          1           0        2.677510    0.310770   -0.992630
     20          8           0        1.048250    1.618130    1.033850
     21          1           0        0.719390    2.500060    1.273230
     22          1           0       -2.249350   -1.684090   -0.741080
     23          8           0       -1.023540   -2.697370    0.431510
     24          1           0       -0.172920   -2.609420    0.906370
     25          8           0        0.490740   -1.562380    2.572150
     26          1           0       -0.352480   -1.141300    2.316810
     27          1           0        1.117140   -0.822600    2.603390
     28          8           0        3.699980    1.140620    0.249890
     29          1           0        2.879820    1.469620    0.677850
     30          1           0        4.085430    1.917900   -0.182400
 ---------------------------------------------------------------------
                    Distance matrix (angstroms):
                    1          2          3          4          5
     1  H    0.000000
     2  C    1.096170   0.000000
     3  C    3.341269   2.551911   0.000000
     4  C    3.353826   2.494741   2.543709   0.000000
     5  C    3.796061   2.779886   1.530387   1.551563   0.000000
     6  O    1.998914   1.425660   2.725470   1.462133   2.472126
     7  C    2.151921   1.550443   1.530513   3.031520   2.507328
     8  H    3.969074   2.877488   2.143077   2.169272   1.105091
     9  H    2.792784   2.176969   2.148449   3.716775   2.940386
    10  C    2.115145   1.532919   3.572089   3.174193   3.396559
    11  H    2.457598   2.148757   4.408062   3.401227   4.029912
    12  H    3.050416   2.187619   3.460744   3.023074   2.963266
    13  H    3.515022   2.955542   1.098329   2.711109   2.146560
    14  O    2.502603   2.361381   4.246038   4.480514   4.446297
    15  H    3.415505   3.216779   5.002838   5.089889   5.034816
    16  O    5.135724   4.160017   2.411361   2.413938   1.407644
    17  H    5.494005   4.538142   2.364714   3.213441   1.896625
    18  O    4.550648   3.777124   1.418001   3.752618   2.365641
    19  H    4.821733   4.228828   1.954946   4.445469   3.202358
    20  O    2.430068   2.467225   2.397288   4.114536   3.718097
    21  H    2.344067   2.665070   3.237903   4.739459   4.442603
    22  H    3.885164   3.011882   3.442998   1.095143   2.188173
    23  O    4.218669   3.573990   3.276021   1.375079   2.468948
    24  H    4.193189   3.661911   2.998147   1.931342   2.636339
    25  O    3.636512   3.635440   3.416308   3.318123   3.892408
    26  H    2.838496   2.853529   3.235909   2.735109   3.543782
    27  H    3.487363   3.585760   3.213308   3.782066   4.056605
    28  O    5.181627   4.954155   3.245405   5.682685   4.719875
    29  H    4.285198   4.167781   2.889999   5.216207   4.419748
    30  H    5.686909   5.470590   3.880255   6.388594   5.326471
                    6          7          8          9         10
     6  O    0.000000
     7  C    2.487916   0.000000
     8  H    2.924176   2.669678   0.000000
     9  H    3.316190   1.095919   2.700189   0.000000
    10  C    2.455164   2.570704   2.979935   2.552519   0.000000
    11  H    2.607426   3.502623   3.685692   3.629921   1.099039
    12  H    2.833755   2.825534   2.253287   2.606993   1.100272
    13  H    2.798536   2.144210   3.044160   3.018110   4.250955
    14  O    3.634434   2.918797   3.955245   2.534987   1.425228
    15  H    4.377639   3.774994   4.376057   3.242790   1.960056
    16  O    3.645010   3.748425   2.066355   4.138795   4.770193
    17  H    4.265875   3.793029   2.384536   4.048658   5.170230
    18  O    4.117389   2.458159   2.658038   2.542450   4.549808
    19  H    4.628912   2.777130   3.600184   2.932872   5.160656
    20  O    3.328798   1.449005   4.064095   2.082369   3.661357
    21  H    3.765744   1.972492   4.626456   2.285402   3.614740
    22  H    2.082282   3.782812   2.356983   4.275010   3.185064
    23  O    2.284777   4.023402   3.335560   4.858787   4.454961
    24  H    2.503793   3.850567   3.666025   4.789420   4.802280
    25  O    2.877530   3.736220   4.858471   4.828447   5.101689
    26  H    2.013561   3.293494   4.390866   4.373891   4.261860
    27  H    3.203679   3.387505   4.965845   4.453757   5.114926
    28  O    5.491059   3.511030   5.186543   3.754702   6.059839
    29  H    4.813582   2.793929   4.860857   3.124346   5.306500
    30  H    6.175107   3.972187   5.633811   3.965931   6.418417
                   11         12         13         14         15
    11  H    0.000000
    12  H    1.780963   0.000000
    13  H    4.952270   4.308802   0.000000
    14  O    2.100101   2.092231   4.967315   0.000000
    15  H    2.388983   2.314449   5.803737   0.968641   0.000000
    16  O    5.342391   4.222741   2.712881   5.823123   6.363196
    17  H    5.885997   4.605778   2.740108   6.045315   6.589378
    18  O    5.503724   4.245082   2.077498   4.988412   5.639411
    19  H    6.128325   5.007100   2.218832   5.448153   6.164010
    20  O    4.487879   4.152700   2.462949   3.667390   4.593601
    21  H    4.406459   4.259468   3.408790   3.282100   4.190815
    22  H    3.178417   2.851967   3.768081   4.589857   5.021830
    23  O    4.553907   4.389458   2.994520   5.745230   6.400959
    24  H    5.028904   4.838955   2.414550   5.963616   6.715339
    25  O    5.361915   5.526436   2.502591   5.934110   6.835442
    26  H    4.432862   4.753960   2.575282   5.154054   6.029590
    27  H    5.520980   5.590357   2.277189   5.742661   6.684657
    28  O    7.005784   6.183470   3.097593   6.075966   6.879154
    29  H    6.222692   5.560257   2.771681   5.271675   6.117009
    30  H    7.421174   6.511342   3.926816   6.248591   6.982087
                   16         17         18         19         20
    16  O    0.000000
    17  H    0.975457   0.000000
    18  O    2.691367   2.108156   0.000000
    19  H    3.476404   2.850211   0.985881   0.000000
    20  O    4.789240   4.722219   3.080934   2.910378   0.000000
    21  H    5.614201   5.567726   3.866611   3.709629   0.971212
    22  H    2.895678   3.767027   4.527112   5.321343   4.992915
    23  O    2.696908   3.551487   4.423627   4.977434   4.824797
    24  H    2.800738   3.472995   4.116842   4.500962   4.402237
    25  O    4.419956   4.813570   4.578635   4.582391   3.576706
    26  H    4.315457   4.814584   4.561614   4.716115   3.349998
    27  H    4.667823   4.888044   4.248845   4.080520   2.902648
    28  O    5.116795   4.568709   2.752234   1.810511   2.806115
    29  H    5.066969   4.671600   2.781587   2.043127   1.871748
    30  H    5.750047   5.123823   3.181995   2.285077   3.285360
                   21         22         23         24         25
    21  H    0.000000
    22  H    5.511622   0.000000
    23  O    5.546132   1.975934   0.000000
    24  H    5.199768   2.807470   0.978152   0.000000
    25  O    4.271170   4.301209   2.857199   2.076430   0.000000
    26  H    3.936682   3.639152   2.534962   2.043761   0.976487
    27  H    3.601055   4.822955   3.579712   2.781521   0.969859
    28  O    3.432087   6.659995   6.088907   5.430757   4.795657
    29  H    2.466524   6.186084   5.714955   5.100001   4.299895
    30  H    3.713219   7.308618   6.912248   6.309960   5.711540
                   26         27         28         29         30
    26  H    0.000000
    27  H    1.530843   0.000000
    28  O    5.089376   4.008024   0.000000
    29  H    4.466638   3.474049   0.981862   0.000000
    30  H    5.941364   4.907312   0.969335   1.547411   0.000000
 Symmetry turned off by external request.
 Stoichiometry    C6H16O8
 Framework group  C1[X(C6H16O8)]
 Deg. of freedom    84
 Full point group                 C1      NOp   1
 Rotational constants (GHZ):      0.5903383      0.5692485      0.4308130
 Standard basis: 6-31G(d) (6D, 7F)
   242 basis functions,   456 primitive gaussians,   242 cartesian basis functions
    58 alpha electrons       58 beta electrons
       nuclear repulsion energy      1113.9662326889 Hartrees.
 NAtoms=   30 NActive=   30 NUniq=   30 SFac= 1.00D+00 NAtFMM=   60 NAOKFM=F Big=F
 Integral buffers will be    131072 words long.
 Raffenetti 2 integral format.
 Two-electron integral symmetry is turned off.
 One-electron integrals computed using PRISM.
 NBasis=   242 RedAO= T EigKep=  1.48D-03  NBF=   242
 NBsUse=   242 1.00D-06 EigRej= -1.00D+00 NBFU=   242
 ExpMin= 1.61D-01 ExpMax= 5.48D+03 ExpMxC= 8.25D+02 IAcc=1 IRadAn=         1 AccDes= 0.00D+00
 Harris functional with IExCor=  402 and IRadAn=       1 diagonalized for initial guess.
 HarFok:  IExCor=  402 AccDes= 0.00D+00 IRadAn=         1 IDoV= 1 UseB2=F ITyADJ=14
 ICtDFT=  3500011 ScaDFX=  1.000000  1.000000  1.000000  1.000000
 FoFCou: FMM=F IPFlag=           0 FMFlag=      100000 FMFlg1=           0
         NFxFlg=           0 DoJE=T BraDBF=F KetDBF=T FulRan=T
         wScrn=  0.000000 ICntrl=     500 IOpCl=  0 I1Cent=   200000004 NGrid=           0
         NMat0=    1 NMatS0=      1 NMatT0=    0 NMatD0=    1 NMtDS0=    0 NMtDT0=    0
 Symmetry not used in FoFCou.
 Requested convergence on RMS density matrix=1.00D-08 within 128 cycles.
 Requested convergence on MAX density matrix=1.00D-06.
 Requested convergence on             energy=1.00D-06.
 No special actions if energy rises.
 Integral accuracy reduced to 1.0D-05 until final iterations.
 Initial convergence to 1.0D-05 achieved.  Increase integral accuracy.
 SCF Done:  E(RB3LYP) =  -839.985172006     A.U. after   14 cycles
            NFock= 14  Conv=0.36D-08     -V/T= 2.0085
 DoSCS=F DFT=T ScalE2(SS,OS)=  1.000000  1.000000
 Range of M.O.s used for correlation:     1   242
 NBasis=   242 NAE=    58 NBE=    58 NFC=     0 NFV=     0
 NROrb=    242 NOA=    58 NOB=    58 NVA=   184 NVB=   184
 Symmetrizing basis deriv contribution to polar:
 IMax=3 JMax=2 DiffMx= 0.00D+00
 G2DrvN: will do    31 centers at a time, making    1 passes.
 Calling FoFCou, ICntrl=  3107 FMM=F I1Cent=   0 AccDes= 0.00D+00.
 End of G2Drv F.D. properties file   721 does not exist.
 End of G2Drv F.D. properties file   722 does not exist.
 End of G2Drv F.D. properties file   788 does not exist.
          IDoAtm=111111111111111111111111111111
          Differentiating once with respect to nuclear coordinates.
          There are    93 degrees of freedom in the 1st order CPHF.  IDoFFX=6 NUNeed=     0.
     87 vectors produced by pass  0 Test12= 1.15D-14 1.08D-09 XBig12= 1.23D-01 8.17D-02.
 AX will form    87 AO Fock derivatives at one time.
     87 vectors produced by pass  1 Test12= 1.15D-14 1.08D-09 XBig12= 1.78D-02 1.94D-02.
     87 vectors produced by pass  2 Test12= 1.15D-14 1.08D-09 XBig12= 1.60D-04 2.00D-03.
     87 vectors produced by pass  3 Test12= 1.15D-14 1.08D-09 XBig12= 3.23D-07 5.98D-05.
     87 vectors produced by pass  4 Test12= 1.15D-14 1.08D-09 XBig12= 4.07D-10 1.69D-06.
     68 vectors produced by pass  5 Test12= 1.15D-14 1.08D-09 XBig12= 3.40D-13 4.69D-08.
      2 vectors produced by pass  6 Test12= 1.15D-14 1.08D-09 XBig12= 2.71D-16 1.54D-09.
 InvSVY:  IOpt=1 It=  1 EMax= 3.89D-16
 Solved reduced A of dimension   505 with    93 vectors.
 End of Minotr F.D. properties file   721 does not exist.
 End of Minotr F.D. properties file   722 does not exist.
 End of Minotr F.D. properties file   788 does not exist.

 **********************************************************************

            Population analysis using the SCF density.

 **********************************************************************

 Alpha  occ. eigenvalues --  -19.19051 -19.17212 -19.16818 -19.16058 -19.14174
 Alpha  occ. eigenvalues --  -19.14126 -19.13923 -19.13597 -10.28776 -10.25844
 Alpha  occ. eigenvalues --  -10.25537 -10.25288 -10.24093 -10.23806  -1.07226
 Alpha  occ. eigenvalues --   -1.05512  -1.04282  -1.03044  -1.01767  -1.00611
 Alpha  occ. eigenvalues --   -0.99782  -0.99503  -0.79339  -0.76583  -0.70625
 Alpha  occ. eigenvalues --   -0.64884  -0.63359  -0.57314  -0.56854  -0.54683
 Alpha  occ. eigenvalues --   -0.54012  -0.53335  -0.51586  -0.50389  -0.49097
 Alpha  occ. eigenvalues --   -0.48328  -0.47253  -0.46082  -0.45026  -0.44493
 Alpha  occ. eigenvalues --   -0.42547  -0.40569  -0.39397  -0.38295  -0.37866
 Alpha  occ. eigenvalues --   -0.36717  -0.35668  -0.35296  -0.34404  -0.32333
 Alpha  occ. eigenvalues --   -0.31512  -0.30973  -0.30116  -0.29512  -0.28553
 Alpha  occ. eigenvalues --   -0.27277  -0.26480  -0.25994
 Alpha virt. eigenvalues --    0.03470   0.04538   0.06567   0.07243   0.07908
 Alpha virt. eigenvalues --    0.09445   0.10401   0.12190   0.13994   0.14451
 Alpha virt. eigenvalues --    0.15355   0.15432   0.17292   0.18045   0.18783
 Alpha virt. eigenvalues --    0.19975   0.20226   0.20832   0.21439   0.23010
 Alpha virt. eigenvalues --    0.23437   0.25010   0.26302   0.27057   0.30320
 Alpha virt. eigenvalues --    0.31609   0.32908   0.35476   0.50820   0.52224
 Alpha virt. eigenvalues --    0.54540   0.55002   0.56505   0.56832   0.58735
 Alpha virt. eigenvalues --    0.61032   0.61948   0.64136   0.66020   0.66709
 Alpha virt. eigenvalues --    0.67961   0.69714   0.73267   0.74484   0.76368
 Alpha virt. eigenvalues --    0.76952   0.77470   0.78271   0.80747   0.81595
 Alpha virt. eigenvalues --    0.82211   0.82394   0.83239   0.84977   0.85430
 Alpha virt. eigenvalues --    0.86352   0.86497   0.87982   0.88348   0.88646
 Alpha virt. eigenvalues --    0.89944   0.90503   0.91957   0.94136   0.95476
 Alpha virt. eigenvalues --    0.97031   0.98110   0.99167   0.99732   1.01521
 Alpha virt. eigenvalues --    1.03444   1.05354   1.05939   1.06635   1.08183
 Alpha virt. eigenvalues --    1.08464   1.09519   1.11591   1.14227   1.17018
 Alpha virt. eigenvalues --    1.17894   1.20116   1.20702   1.24032   1.25818
 Alpha virt. eigenvalues --    1.27439   1.29208   1.29924   1.30970   1.34182
 Alpha virt. eigenvalues --    1.38044   1.39556   1.40542   1.46805   1.46868
 Alpha virt. eigenvalues --    1.48733   1.52743   1.55386   1.56714   1.59042
 Alpha virt. eigenvalues --    1.62676   1.63976   1.66964   1.68427   1.69194
 Alpha virt. eigenvalues --    1.70541   1.71201   1.71627   1.73110   1.73366
 Alpha virt. eigenvalues --    1.75051   1.76200   1.76569   1.78414   1.79969
 Alpha virt. eigenvalues --    1.80558   1.81893   1.83804   1.84629   1.86012
 Alpha virt. eigenvalues --    1.86605   1.88845   1.90725   1.92144   1.95854
 Alpha virt. eigenvalues --    1.97577   2.00275   2.01356   2.03616   2.05066
 Alpha virt. eigenvalues --    2.07204   2.10152   2.10647   2.13358   2.15730
 Alpha virt. eigenvalues --    2.20469   2.22397   2.25094   2.27369   2.29890
 Alpha virt. eigenvalues --    2.31014   2.31727   2.33472   2.35284   2.37878
 Alpha virt. eigenvalues --    2.39411   2.42287   2.44596   2.45202   2.46743
 Alpha virt. eigenvalues --    2.48888   2.50526   2.54211   2.57634   2.58017
 Alpha virt. eigenvalues --    2.59663   2.61112   2.64076   2.66589   2.69496
 Alpha virt. eigenvalues --    2.71882   2.75183   2.79881   2.87025   2.89629
 Alpha virt. eigenvalues --    2.93486   2.95178   2.98726   3.05129   3.10491
 Alpha virt. eigenvalues --    3.67393   3.71364   3.73834   3.79822   3.88814
 Alpha virt. eigenvalues --    3.93813   4.04007   4.13229   4.29500   4.34738
 Alpha virt. eigenvalues --    4.41164   4.56181   4.68480   4.78159
          Condensed to atoms (all electrons):
               1          2          3          4          5          6
     1  H    0.601038   0.360724   0.001707   0.004377  -0.000078  -0.033774
     2  C    0.360724   4.990106  -0.032761  -0.018487   0.002038   0.219824
     3  C    0.001707  -0.032761   5.025653  -0.013281   0.309062  -0.002041
     4  C    0.004377  -0.018487  -0.013281   4.665261   0.265752   0.178057
     5  C   -0.000078   0.002038   0.309062   0.265752   5.055123  -0.045377
     6  O   -0.033774   0.219824  -0.002041   0.178057  -0.045377   8.354162
     7  C   -0.048587   0.244779   0.273085  -0.016434  -0.030142  -0.040155
     8  H    0.000070  -0.002169  -0.059789  -0.050899   0.338208   0.003871
     9  H    0.003830  -0.053469  -0.034604   0.000788  -0.003758   0.002755
    10  C   -0.046655   0.314188   0.001141  -0.005129  -0.005192  -0.040358
    11  H   -0.008406  -0.031037  -0.000091  -0.000352   0.000425   0.004841
    12  H    0.006739  -0.034984   0.000272   0.002118  -0.001042   0.000968
    13  H   -0.000120  -0.001033   0.317830  -0.002297  -0.045987   0.000133
    14  O    0.005806  -0.048881   0.000391   0.000021   0.000073   0.001128
    15  H   -0.000234   0.005221  -0.000015  -0.000007  -0.000003  -0.000097
    16  O    0.000001  -0.000030  -0.030550  -0.048351   0.258290   0.001027
    17  H    0.000001  -0.000112  -0.014889   0.006167  -0.037978  -0.000082
    18  O   -0.000067   0.003791   0.223627   0.002040  -0.046259   0.000073
    19  H    0.000006  -0.000047  -0.020966  -0.000093   0.004887   0.000009
    20  O    0.000549  -0.028900  -0.030384   0.000035   0.001806   0.001285
    21  H    0.005035  -0.003854   0.005188   0.000010  -0.000206  -0.000055
    22  H   -0.000300   0.000071   0.006066   0.390383  -0.066330  -0.045044
    23  O   -0.000100   0.002486  -0.005196   0.320533  -0.031244  -0.056468
    24  H   -0.000032  -0.000265  -0.000285  -0.029452  -0.009338   0.002032
    25  O    0.000386   0.001007  -0.008420   0.002529  -0.000833  -0.012124
    26  H   -0.001462  -0.000673   0.002024  -0.001503   0.000301   0.037793
    27  H    0.000110   0.000386   0.000113   0.000055   0.000048   0.000527
    28  O    0.000001   0.000004   0.003201   0.000000   0.000046   0.000000
    29  H   -0.000017   0.000538  -0.001771  -0.000002   0.000109  -0.000010
    30  H   -0.000000   0.000003  -0.000279  -0.000000  -0.000002  -0.000000
               7          8          9         10         11         12
     1  H   -0.048587   0.000070   0.003830  -0.046655  -0.008406   0.006739
     2  C    0.244779  -0.002169  -0.053469   0.314188  -0.031037  -0.034984
     3  C    0.273085  -0.059789  -0.034604   0.001141  -0.000091   0.000272
     4  C   -0.016434  -0.050899   0.000788  -0.005129  -0.000352   0.002118
     5  C   -0.030142   0.338208  -0.003758  -0.005192   0.000425  -0.001042
     6  O   -0.040155   0.003871   0.002755  -0.040358   0.004841   0.000968
     7  C    5.157158  -0.002746   0.351375  -0.042362   0.006219  -0.009709
     8  H   -0.002746   0.687477   0.004348  -0.001626  -0.000026   0.007485
     9  H    0.351375   0.004348   0.590599  -0.000603   0.000581   0.000179
    10  C   -0.042362  -0.001626  -0.000603   4.981533   0.355235   0.356719
    11  H    0.006219  -0.000026   0.000581   0.355235   0.609847  -0.051401
    12  H   -0.009709   0.007485   0.000179   0.356719  -0.051401   0.625088
    13  H   -0.048191   0.008132   0.006248  -0.000030   0.000007   0.000013
    14  O    0.003401  -0.000092   0.009158   0.216776  -0.033091  -0.035411
    15  H   -0.000065   0.000005  -0.000235  -0.018464  -0.002887  -0.004670
    16  O    0.003871  -0.042462  -0.000058   0.000026  -0.000002   0.000000
    17  H    0.001264   0.000077  -0.000030  -0.000001   0.000000   0.000002
    18  O   -0.046488  -0.000728   0.002757  -0.000039   0.000001  -0.000069
    19  H   -0.000357  -0.000296  -0.000224   0.000002  -0.000000   0.000001
    20  O    0.166101  -0.000056  -0.036345   0.002977  -0.000092  -0.000001
    21  H   -0.015717   0.000016  -0.003180  -0.000579  -0.000000   0.000053
    22  H   -0.000671  -0.004743   0.000042   0.003114  -0.000157  -0.000606
    23  O    0.000544   0.003545  -0.000003  -0.000107   0.000002   0.000021
    24  H    0.000122   0.000318   0.000002   0.000019   0.000000   0.000001
    25  O    0.000402  -0.000009  -0.000008  -0.000004   0.000000   0.000000
    26  H   -0.000368  -0.000015  -0.000002   0.000447  -0.000006  -0.000009
    27  H   -0.001070   0.000002   0.000059   0.000019   0.000000  -0.000000
    28  O    0.000583   0.000000  -0.000006   0.000000  -0.000000  -0.000000
    29  H   -0.003033  -0.000002   0.000244  -0.000015   0.000000  -0.000000
    30  H    0.000225   0.000000   0.000032  -0.000000   0.000000   0.000000
              13         14         15         16         17         18
     1  H   -0.000120   0.005806  -0.000234   0.000001   0.000001  -0.000067
     2  C   -0.001033  -0.048881   0.005221  -0.000030  -0.000112   0.003791
     3  C    0.317830   0.000391  -0.000015  -0.030550  -0.014889   0.223627
     4  C   -0.002297   0.000021  -0.000007  -0.048351   0.006167   0.002040
     5  C   -0.045987   0.000073  -0.000003   0.258290  -0.037978  -0.046259
     6  O    0.000133   0.001128  -0.000097   0.001027  -0.000082   0.000073
     7  C   -0.048191   0.003401  -0.000065   0.003871   0.001264  -0.046488
     8  H    0.008132  -0.000092   0.000005  -0.042462   0.000077  -0.000728
     9  H    0.006248   0.009158  -0.000235  -0.000058  -0.000030   0.002757
    10  C   -0.000030   0.216776  -0.018464   0.000026  -0.000001  -0.000039
    11  H    0.000007  -0.033091  -0.002887  -0.000002   0.000000   0.000001
    12  H    0.000013  -0.035411  -0.004670   0.000000   0.000002  -0.000069
    13  H    0.639233  -0.000005   0.000000   0.001155   0.000048  -0.034123
    14  O   -0.000005   8.273685   0.235203  -0.000000   0.000000  -0.000000
    15  H    0.000000   0.235203   0.380807  -0.000000  -0.000000   0.000000
    16  O    0.001155  -0.000000  -0.000000   8.263360   0.233711  -0.010902
    17  H    0.000048   0.000000  -0.000000   0.233711   0.365158   0.036057
    18  O   -0.034123  -0.000000   0.000000  -0.010902   0.036057   8.377101
    19  H   -0.004954  -0.000000   0.000000  -0.000029  -0.000561   0.205734
    20  O   -0.003308  -0.000360   0.000013  -0.000011  -0.000009   0.001177
    21  H    0.000053   0.001277  -0.000039   0.000001   0.000001  -0.000236
    22  H    0.000031  -0.000018   0.000002   0.001642  -0.000400  -0.000049
    23  O    0.001002   0.000000  -0.000000  -0.001128   0.000181  -0.000007
    24  H    0.006448  -0.000000   0.000000   0.004202  -0.000288  -0.000053
    25  O    0.024004   0.000000  -0.000000  -0.000005   0.000001   0.000032
    26  H   -0.003385  -0.000002   0.000000  -0.000007   0.000002  -0.000002
    27  H    0.002627  -0.000000   0.000000  -0.000004  -0.000002  -0.000021
    28  O    0.000875  -0.000000   0.000000  -0.000001   0.000014  -0.026663
    29  H    0.000063  -0.000000  -0.000000  -0.000001  -0.000008   0.004988
    30  H   -0.000029   0.000000  -0.000000   0.000000  -0.000001   0.001741
              19         20         21         22         23         24
     1  H    0.000006   0.000549   0.005035  -0.000300  -0.000100  -0.000032
     2  C   -0.000047  -0.028900  -0.003854   0.000071   0.002486  -0.000265
     3  C   -0.020966  -0.030384   0.005188   0.006066  -0.005196  -0.000285
     4  C   -0.000093   0.000035   0.000010   0.390383   0.320533  -0.029452
     5  C    0.004887   0.001806  -0.000206  -0.066330  -0.031244  -0.009338
     6  O    0.000009   0.001285  -0.000055  -0.045044  -0.056468   0.002032
     7  C   -0.000357   0.166101  -0.015717  -0.000671   0.000544   0.000122
     8  H   -0.000296  -0.000056   0.000016  -0.004743   0.003545   0.000318
     9  H   -0.000224  -0.036345  -0.003180   0.000042  -0.000003   0.000002
    10  C    0.000002   0.002977  -0.000579   0.003114  -0.000107   0.000019
    11  H   -0.000000  -0.000092  -0.000000  -0.000157   0.000002   0.000000
    12  H    0.000001  -0.000001   0.000053  -0.000606   0.000021   0.000001
    13  H   -0.004954  -0.003308   0.000053   0.000031   0.001002   0.006448
    14  O   -0.000000  -0.000360   0.001277  -0.000018   0.000000  -0.000000
    15  H    0.000000   0.000013  -0.000039   0.000002  -0.000000   0.000000
    16  O   -0.000029  -0.000011   0.000001   0.001642  -0.001128   0.004202
    17  H   -0.000561  -0.000009   0.000001  -0.000400   0.000181  -0.000288
    18  O    0.205734   0.001177  -0.000236  -0.000049  -0.000007  -0.000053
    19  H    0.322501   0.001160  -0.000036   0.000004   0.000002   0.000004
    20  O    0.001160   8.317279   0.228181   0.000004   0.000001  -0.000010
    21  H   -0.000036   0.228181   0.375107  -0.000001   0.000000  -0.000000
    22  H    0.000004   0.000004  -0.000001   0.620145  -0.051731   0.007052
    23  O    0.000002   0.000001   0.000000  -0.051731   8.204256   0.222736
    24  H    0.000004  -0.000010  -0.000000   0.007052   0.222736   0.344084
    25  O   -0.000001  -0.000813   0.000027  -0.000066  -0.010325   0.037111
    26  H   -0.000001   0.000750  -0.000022   0.000424   0.005264  -0.006968
    27  H   -0.000007   0.006382  -0.000166   0.000008   0.000583  -0.001998
    28  O    0.077435  -0.018707   0.000817  -0.000000  -0.000000  -0.000000
    29  H   -0.009358   0.054904  -0.002702  -0.000000   0.000000  -0.000000
    30  H   -0.003675   0.000686  -0.000041   0.000000   0.000000   0.000000
              25         26         27         28         29         30
     1  H    0.000386  -0.001462   0.000110   0.000001  -0.000017  -0.000000
     2  C    0.001007  -0.000673   0.000386   0.000004   0.000538   0.000003
     3  C   -0.008420   0.002024   0.000113   0.003201  -0.001771  -0.000279
     4  C    0.002529  -0.001503   0.000055   0.000000  -0.000002  -0.000000
     5  C   -0.000833   0.000301   0.000048   0.000046   0.000109  -0.000002
     6  O   -0.012124   0.037793   0.000527   0.000000  -0.000010  -0.000000
     7  C    0.000402  -0.000368  -0.001070   0.000583  -0.003033   0.000225
     8  H   -0.000009  -0.000015   0.000002   0.000000  -0.000002   0.000000
     9  H   -0.000008  -0.000002   0.000059  -0.000006   0.000244   0.000032
    10  C   -0.000004   0.000447   0.000019   0.000000  -0.000015  -0.000000
    11  H    0.000000  -0.000006   0.000000  -0.000000   0.000000   0.000000
    12  H    0.000000  -0.000009  -0.000000  -0.000000  -0.000000   0.000000
    13  H    0.024004  -0.003385   0.002627   0.000875   0.000063  -0.000029
    14  O    0.000000  -0.000002  -0.000000  -0.000000  -0.000000   0.000000
    15  H   -0.000000   0.000000   0.000000   0.000000  -0.000000  -0.000000
    16  O   -0.000005  -0.000007  -0.000004  -0.000001  -0.000001   0.000000
    17  H    0.000001   0.000002  -0.000002   0.000014  -0.000008  -0.000001
    18  O    0.000032  -0.000002  -0.000021  -0.026663   0.004988   0.001741
    19  H   -0.000001  -0.000001  -0.000007   0.077435  -0.009358  -0.003675
    20  O   -0.000813   0.000750   0.006382  -0.018707   0.054904   0.000686
    21  H    0.000027  -0.000022  -0.000166   0.000817  -0.002702  -0.000041
    22  H   -0.000066   0.000424   0.000008  -0.000000  -0.000000   0.000000
    23  O   -0.010325   0.005264   0.000583  -0.000000   0.000000   0.000000
    24  H    0.037111  -0.006968  -0.001998  -0.000000  -0.000000   0.000000
    25  O    8.314963   0.217859   0.236207  -0.000001  -0.000002   0.000000
    26  H    0.217859   0.347741  -0.016368   0.000000  -0.000007  -0.000000
    27  H    0.236207  -0.016368   0.377307   0.000019   0.000087  -0.000001
    28  O   -0.000001   0.000000   0.000019   8.314999   0.209739   0.239593
    29  H   -0.000002  -0.000007   0.000087   0.209739   0.334971  -0.013439
    30  H    0.000000  -0.000000  -0.000001   0.239593  -0.013439   0.378301
 Mulliken charges:
               1
     1  H    0.149454
     2  C    0.111534
     3  C    0.085963
     4  C    0.348159
     5  C    0.087599
     6  O   -0.532900
     7  C    0.096965
     8  H    0.112104
     9  H    0.159529
    10  C   -0.071034
    11  H    0.150388
    12  H    0.138243
    13  H    0.135559
    14  O   -0.629059
    15  H    0.405463
    16  O   -0.633744
    17  H    0.411677
    18  O   -0.693411
    19  H    0.428862
    20  O   -0.664292
    21  H    0.411067
    22  H    0.141128
    23  O   -0.604848
    24  H    0.424560
    25  O   -0.801918
    26  H    0.418194
    27  H    0.395096
    28  O   -0.801949
    29  H    0.424723
    30  H    0.396886
 Sum of Mulliken charges =   0.00000
 Mulliken charges with hydrogens summed into heavy atoms:
               1
     2  C    0.260989
     3  C    0.221522
     4  C    0.489287
     5  C    0.199703
     6  O   -0.532900
     7  C    0.256494
    10  C    0.217597
    14  O   -0.223596
    16  O   -0.222067
    18  O   -0.264549
    20  O   -0.253225
    23  O   -0.180288
    25  O    0.011372
    28  O    0.019660
 APT charges:
               1
     1  H    0.447629
     2  C   -0.343330
     3  C   -0.141866
     4  C   -0.390908
     5  C   -0.210073
     6  O   -0.388563
     7  C   -0.207594
     8  H    0.334415
     9  H    0.400289
    10  C   -0.547458
    11  H    0.528554
    12  H    0.299425
    13  H    0.247774
    14  O   -1.129320
    15  H    0.965916
    16  O   -0.682098
    17  H    0.580306
    18  O   -0.802423
    19  H    0.575476
    20  O   -0.961052
    21  H    0.751464
    22  H    0.548264
    23  O   -0.423104
    24  H    0.423707
    25  O   -0.686976
    26  H    0.297749
    27  H    0.442002
    28  O   -1.013878
    29  H    0.202414
    30  H    0.883259
 Sum of APT charges =   0.00000
 APT charges with hydrogens summed into heavy atoms:
               1
     2  C    0.104299
     3  C    0.105908
     4  C    0.157356
     5  C    0.124342
     6  O   -0.388563
     7  C    0.192695
    10  C    0.280521
    14  O   -0.163404
    16  O   -0.101792
    18  O   -0.226947
    20  O   -0.209589
    23  O    0.000603
    25  O    0.052775
    28  O    0.071795
 Electronic spatial extent (au):  <R**2>=           3048.5668
 Charge=              0.0000 electrons
 Dipole moment (field-independent basis, Debye):
    X=             -0.8010    Y=              7.6666    Z=             -1.1850  Tot=              7.7989
 Quadrupole moment (field-independent basis, Debye-Ang):
   XX=            -75.8443   YY=            -85.9438   ZZ=            -86.9444
   XY=             -0.8987   XZ=              3.7781   YZ=              1.5351
 Traceless Quadrupole moment (field-independent basis, Debye-Ang):
   XX=              7.0665   YY=             -3.0330   ZZ=             -4.0335
   XY=             -0.8987   XZ=              3.7781   YZ=              1.5351
 Octapole moment (field-independent basis, Debye-Ang**2):
  XXX=             -3.2197  YYY=             72.7494  ZZZ=              0.0462  XYY=             23.6727
  XXY=             43.6520  XXZ=            -25.1226  XZZ=             -0.3435  YZZ=             25.7552
  YYZ=             -5.6584  XYZ=             10.6621
 Hexadecapole moment (field-independent basis, Debye-Ang**3):
 XXXX=          -1357.0901 YYYY=          -1347.2849 ZZZZ=           -759.1500 XXXY=             35.4875
 XXXZ=            -22.6066 YYYX=            -15.1842 YYYZ=            -29.6950 ZZZX=              0.5736
 ZZZY=             41.1974 XXYY=           -331.5630 XXZZ=           -342.2526 YYZZ=           -357.4093
 XXYZ=            -39.7366 YYXZ=             31.9289 ZZXY=            -15.5073
 N-N= 1.113966232689D+03 E-N=-4.200089631759D+03  KE= 8.328861032321D+02
  Exact polarizability:   0.000   0.000   0.000   0.000   0.000   0.000
 Approx polarizability: 129.445   1.224 136.041   3.108   2.554 121.862
 Calling FoFJK, ICntrl=    100147 FMM=F ISym2X=0 I1Cent= 0 IOpClX= 0 NMat=1 NMatS=1 NMatT=0.
 -------------------------------------------------------------------
 Center     Atomic                   Forces (Hartrees/Bohr)
 Number     Number              X              Y              Z
 -------------------------------------------------------------------
      1        1          -0.000000654    0.000002011   -0.000002777
      2        6          -0.000002524    0.000005433   -0.000010741
      3        6          -0.000003652   -0.000002992   -0.000002681
      4        6           0.000011630   -0.000002595    0.000004204
      5        6           0.000004132   -0.000002050    0.000010432
      6        8          -0.000004604    0.000013916    0.000001638
      7        6           0.000000040   -0.000001932   -0.000002491
      8        1           0.000000668   -0.000006084    0.000000258
      9        1           0.000003216   -0.000002452   -0.000002991
     10        6           0.000008396    0.000004540   -0.000011831
     11        1          -0.000001011    0.000000837   -0.000003511
     12        1           0.000001103   -0.000000001   -0.000003794
     13        1           0.000000669    0.000001222    0.000003297
     14        8           0.000004440    0.000004641   -0.000022092
     15        1           0.000005725   -0.000002240   -0.000006000
     16        8          -0.000004704   -0.000013533    0.000015053
     17        1           0.000003098   -0.000003656    0.000002893
     18        8          -0.000002160   -0.000012645    0.000005294
     19        1           0.000004467   -0.000003532    0.000001831
     20        8          -0.000002167    0.000003664   -0.000006071
     21        1           0.000001979    0.000000948   -0.000004510
     22        1          -0.000005226   -0.000001537   -0.000001077
     23        8          -0.000011764    0.000008150    0.000009664
     24        1          -0.000001709   -0.000000213    0.000007500
     25        8          -0.000006954    0.000016245    0.000010280
     26        1          -0.000002236    0.000003059    0.000003896
     27        1          -0.000004811    0.000001408    0.000002704
     28        8           0.000000486   -0.000003873    0.000002927
     29        1           0.000003895   -0.000001361   -0.000001804
     30        1           0.000000232   -0.000005378    0.000000500
 -------------------------------------------------------------------
 Cartesian Forces:  Max     0.000022092 RMS     0.000006113
 IRC-IRC-IRC-IRC-IRC-IRC-IRC-IRC-IRC-IRC-IRC-IRC-IRC-IRC-IRC-IRC-IRC-IRC
          ******** Start new reaction path calculation ********
 Supplied step size of   0.1000 bohr.
    Integration on MW PES will use step size of   0.2230 sqrt(amu)*bohr.
 Point Number:   0          Path Number:   1
 Calculating another point on the path.
 IRC-IRC-IRC-IRC-IRC-IRC-IRC-IRC-IRC-IRC-IRC-IRC-IRC-IRC-IRC-IRC-IRC-IRC
                          Input orientation:                          
 ---------------------------------------------------------------------
 Center     Atomic      Atomic             Coordinates (Angstroms)
 Number     Number       Type             X           Y           Z
 ---------------------------------------------------------------------
      1          1           0       -1.323276    1.411169    1.463131
      2          6           0       -1.234452    0.897802    0.498750
      3          6           0        0.847844   -0.155973   -0.531272
      4          6           0       -1.296169   -1.489661   -0.219661
      5          6           0       -0.203249   -1.029241   -1.220549
      6          8           0       -1.502560   -0.468313    0.806240
      7          6           0        0.203943    1.137900   -0.028145
      8          1           0       -0.685949   -0.418231   -2.004768
      9          1           0        0.176327    1.859005   -0.852997
     10          6           0       -2.311741    1.508378   -0.404729
     11          1           0       -3.296926    1.248217    0.007134
     12          1           0       -2.250607    1.106265   -1.427111
     13          1           0        1.238823   -0.704411    0.336319
     14          8           0       -2.082069    2.914917   -0.388853
     15          1           0       -2.708155    3.334137   -0.997577
     16          8           0        0.405076   -2.160741   -1.796047
     17          1           0        1.238576   -1.816678   -2.168158
     18          8           0        1.873819    0.072046   -1.483197
     19          1           0        2.684267    0.335511   -0.987499
     20          8           0        1.053384    1.656559    1.024687
     21          1           0        0.724331    2.540289    1.257073
     22          1           0       -2.246774   -1.648288   -0.739862
     23          8           0       -1.026145   -2.670883    0.430065
     24          1           0       -0.173589   -2.589657    0.902689
     25          8           0        0.496691   -1.551683    2.569674
     26          1           0       -0.339913   -1.117612    2.313654
     27          1           0        1.133040   -0.820931    2.612271
     28          8           0        3.705693    1.167746    0.253922
     29          1           0        2.884412    1.501506    0.676214
     30          1           0        4.094951    1.941386   -0.181522
 ---------------------------------------------------------------------
                    Distance matrix (angstroms):
                    1          2          3          4          5
     1  H    0.000000
     2  C    1.096114   0.000000
     3  C    3.338763   2.550949   0.000000
     4  C    3.353705   2.493974   2.544133   0.000000
     5  C    3.796341   2.780803   1.530521   1.551850   0.000000
     6  O    1.999025   1.425728   2.722295   1.462266   2.471987
     7  C    2.151971   1.550562   1.530311   3.031681   2.506817
     8  H    3.972306   2.881042   2.143010   2.169547   1.105139
     9  H    2.795321   2.177482   2.148157   3.712536   2.936177
    10  C    2.115518   1.532850   3.573381   3.170785   3.398649
    11  H    2.458002   2.149018   4.409166   3.398594   4.032971
    12  H    3.050640   2.187457   3.463548   3.017900   2.965591
    13  H    3.508524   2.951366   1.098346   2.711442   2.146841
    14  O    2.503372   2.361154   4.246768   4.477340   4.447254
    15  H    3.416252   3.216601   5.004342   5.086049   5.036203
    16  O    5.134977   4.160389   2.411389   2.414451   1.407675
    17  H    5.492572   4.538355   2.364320   3.213800   1.896544
    18  O    4.549233   3.777742   1.418020   3.752902   2.365593
    19  H    4.819028   4.228648   1.955032   4.445751   3.202282
    20  O    2.429190   2.467086   2.397609   4.119162   3.719372
    21  H    2.347353   2.666391   3.237786   4.743802   4.443035
    22  H    3.881534   3.006914   3.441972   1.095181   2.188669
    23  O    4.221216   3.575419   3.280361   1.374897   2.469144
    24  H    4.200296   3.667556   3.003728   1.931280   2.635131
    25  O    3.649001   3.644936   3.418652   3.316411   3.889557
    26  H    2.843436   2.855866   3.229414   2.733227   3.537948
    27  H    3.512305   3.609159   3.225735   3.790527   4.064428
    28  O    5.178029   4.953569   3.245930   5.683724   4.720238
    29  H    4.281593   4.166652   2.890133   5.217943   4.419959
    30  H    5.687109   5.473059   3.881359   6.390439   5.327169
                    6          7          8          9         10
     6  O    0.000000
     7  C    2.487623   0.000000
     8  H    2.927648   2.668425   0.000000
     9  H    3.314835   1.095963   2.693678   0.000000
    10  C    2.455306   2.570552   2.985824   2.552326   0.000000
    11  H    2.608600   3.502784   3.693507   3.629928   1.099046
    12  H    2.833147   2.825406   2.259630   2.605040   1.100316
    13  H    2.791370   2.144276   3.044230   3.019018   4.248776
    14  O    3.634600   2.917833   3.958561   2.535889   1.425256
    15  H    4.377881   3.774065   4.379956   3.243017   1.960104
    16  O    3.643526   3.747928   2.066456   4.135218   4.772766
    17  H    4.263679   3.792051   2.384565   4.045820   5.174015
    18  O    4.115026   2.457988   2.657973   2.543983   4.554674
    19  H    4.625273   2.777804   3.600184   2.937496   5.164817
    20  O    3.331012   1.448797   4.062958   2.082285   3.659133
    21  H    3.770142   1.972126   4.623995   2.284043   3.611670
    22  H    2.082457   3.778279   2.355674   4.264425   3.175071
    23  O    2.284687   4.028635   3.334454   4.859225   4.451501
    24  H    2.505108   3.860526   3.664820   4.795358   4.803637
    25  O    2.877567   3.750762   4.858896   4.842530   5.108653
    26  H    2.011376   3.296534   4.388353   4.376577   4.263043
    27  H    3.214417   3.416436   4.978749   4.483909   5.137557
    28  O    5.487043   3.513219   5.186861   3.762915   6.062951
    29  H    4.810677   2.795218   4.860096   3.130497   5.307400
    30  H    6.173690   3.976061   5.634628   3.976591   6.425187
                   11         12         13         14         15
    11  H    0.000000
    12  H    1.781009   0.000000
    13  H    4.949155   4.308637   0.000000
    14  O    2.100136   2.092273   4.965253   0.000000
    15  H    2.388966   2.314576   5.802395   0.968645   0.000000
    16  O    5.345772   4.226357   2.713489   5.824808   6.365803
    17  H    5.890353   4.611631   2.740355   6.048190   6.593773
    18  O    5.508272   4.252486   2.077678   4.992850   5.645489
    19  H    6.131639   5.014010   2.218838   5.452492   6.170095
    20  O    4.486351   4.150962   2.466255   3.662325   4.588354
    21  H    4.404804   4.255763   3.411827   3.274950   4.182774
    22  H    3.170262   2.838994   3.768084   4.579648   5.010374
    23  O    4.549138   4.383521   3.000980   5.743410   6.397467
    24  H    5.028571   4.837541   2.422775   5.967471   6.717616
    25  O    5.366337   5.530517   2.501300   5.945872   6.845988
    26  H    4.434084   4.752862   2.563785   5.157513   6.032486
    27  H    5.540100   5.610682   2.281387   5.770635   6.711958
    28  O    7.007428   6.189278   3.097936   6.079799   6.884544
    29  H    6.222601   5.563147   2.773005   5.272384   6.118572
    30  H    7.426703   6.520355   3.927578   6.256703   6.991992
                   16         17         18         19         20
    16  O    0.000000
    17  H    0.975484   0.000000
    18  O    2.690803   2.107127   0.000000
    19  H    3.475592   2.848841   0.985879   0.000000
    20  O    4.790472   4.721433   3.077869   2.907549   0.000000
    21  H    5.614548   5.565951   3.862981   3.706818   0.971214
    22  H    2.900076   3.770418   4.526740   5.320897   4.992663
    23  O    2.695220   3.550970   4.426513   4.981471   4.837847
    24  H    2.793205   3.467248   4.119344   4.505193   4.421617
    25  O    4.408953   4.802881   4.578072   4.582627   3.604124
    26  H    4.304970   4.802807   4.553237   4.706893   3.361359
    27  H    4.664579   4.884174   4.256645   4.086810   2.943591
    28  O    5.116178   4.567266   2.752072   1.810263   2.804953
    29  H    5.066679   4.670071   2.779876   2.041456   1.870331
    30  H    5.748854   5.121390   3.181543   2.284395   3.284387
                   21         22         23         24         25
    21  H    0.000000
    22  H    5.509935   0.000000
    23  O    5.559174   1.975947   0.000000
    24  H    5.219980   2.807533   0.978173   0.000000
    25  O    4.303367   4.299879   2.854744   2.074971   0.000000
    26  H    3.953380   3.638914   2.536035   2.045826   0.976663
    27  H    3.647109   4.831610   3.584191   2.785380   0.969924
    28  O    3.432013   6.659543   6.095604   5.439467   4.801635
    29  H    2.466256   6.185106   5.723798   5.112756   4.313741
    30  H    3.713398   7.308555   6.919009   6.318726   5.719973
                   26         27         28         29         30
    26  H    0.000000
    27  H    1.531921   0.000000
    28  O    5.082547   4.016864   0.000000
    29  H    4.465116   3.494186   0.981952   0.000000
    30  H    5.937288   4.920223   0.969357   1.547453   0.000000
 Symmetry turned off by external request.
 Stoichiometry    C6H16O8
 Framework group  C1[X(C6H16O8)]
 Deg. of freedom    84
 Full point group                 C1      NOp   1
 Rotational constants (GHZ):      0.5900799      0.5694760      0.4299602
 Standard basis: 6-31G(d) (6D, 7F)
   242 basis functions,   456 primitive gaussians,   242 cartesian basis functions
    58 alpha electrons       58 beta electrons
       nuclear repulsion energy      1113.7535959297 Hartrees.
 NAtoms=   30 NActive=   30 NUniq=   30 SFac= 1.00D+00 NAtFMM=   60 NAOKFM=F Big=F
 Integral buffers will be    131072 words long.
 Raffenetti 2 integral format.
 Two-electron integral symmetry is turned off.
 One-electron integrals computed using PRISM.
 NBasis=   242 RedAO= T EigKep=  1.48D-03  NBF=   242
 NBsUse=   242 1.00D-06 EigRej= -1.00D+00 NBFU=   242
 Initial guess from the checkpoint file:  "/scratch/10502097.yak.local/Gau-17635.chk"
 B after Tr=     0.009412    0.049755    0.001747
         Rot=    1.000000    0.000009   -0.000033   -0.000001 Ang=   0.00 deg.
 ExpMin= 1.61D-01 ExpMax= 5.48D+03 ExpMxC= 8.25D+02 IAcc=1 IRadAn=         1 AccDes= 0.00D+00
 Harris functional with IExCor=  402 and IRadAn=       1 diagonalized for initial guess.
 HarFok:  IExCor=  402 AccDes= 0.00D+00 IRadAn=         1 IDoV= 1 UseB2=F ITyADJ=14
 ICtDFT=  3500011 ScaDFX=  1.000000  1.000000  1.000000  1.000000
 FoFCou: FMM=F IPFlag=           0 FMFlag=      100000 FMFlg1=           0
         NFxFlg=           0 DoJE=T BraDBF=F KetDBF=T FulRan=T
         wScrn=  0.000000 ICntrl=     500 IOpCl=  0 I1Cent=   200000004 NGrid=           0
         NMat0=    1 NMatS0=      1 NMatT0=    0 NMatD0=    1 NMtDS0=    0 NMtDT0=    0
 Symmetry not used in FoFCou.
 Requested convergence on RMS density matrix=1.00D-08 within 128 cycles.
 Requested convergence on MAX density matrix=1.00D-06.
 Requested convergence on             energy=1.00D-06.
 No special actions if energy rises.
 Integral accuracy reduced to 1.0D-05 until final iterations.
 Initial convergence to 1.0D-05 achieved.  Increase integral accuracy.
 SCF Done:  E(RB3LYP) =  -839.985173779     A.U. after   10 cycles
            NFock= 10  Conv=0.32D-08     -V/T= 2.0085
 DoSCS=F DFT=T ScalE2(SS,OS)=  1.000000  1.000000
 Range of M.O.s used for correlation:     1   242
 NBasis=   242 NAE=    58 NBE=    58 NFC=     0 NFV=     0
 NROrb=    242 NOA=    58 NOB=    58 NVA=   184 NVB=   184
 Symmetrizing basis deriv contribution to polar:
 IMax=3 JMax=2 DiffMx= 0.00D+00
 Calling FoFJK, ICntrl=      2147 FMM=F ISym2X=0 I1Cent= 0 IOpClX= 0 NMat=1 NMatS=1 NMatT=0.
 -------------------------------------------------------------------
 Center     Atomic                   Forces (Hartrees/Bohr)
 Number     Number              X              Y              Z
 -------------------------------------------------------------------
      1        1           0.000000254    0.000001860   -0.000005754
      2        6           0.000001899    0.000010839   -0.000007361
      3        6           0.000003142    0.000003074    0.000003305
      4        6           0.000006252   -0.000005527    0.000009276
      5        6           0.000003859   -0.000004140    0.000010426
      6        8           0.000007064    0.000013605    0.000000771
      7        6           0.000002289    0.000013335   -0.000012381
      8        1           0.000003057   -0.000009261    0.000003041
      9        1           0.000003502   -0.000014685    0.000012068
     10        6           0.000005270    0.000003025   -0.000005263
     11        1           0.000003010    0.000002453   -0.000004033
     12        1           0.000000128    0.000000829    0.000001433
     13        1          -0.000001101    0.000003398   -0.000002115
     14        8          -0.000006699    0.000001789   -0.000025618
     15        1           0.000007903   -0.000004390   -0.000002954
     16        8          -0.000001871   -0.000013060    0.000029174
     17        1           0.000001749   -0.000003946    0.000005135
     18        8          -0.000000598   -0.000017354    0.000015063
     19        1           0.000003920   -0.000003787    0.000002509
     20        8          -0.000017809    0.000046725   -0.000039808
     21        1           0.000007826   -0.000020377   -0.000015741
     22        1           0.000005765    0.000001984    0.000006085
     23        8          -0.000011692    0.000024592    0.000009527
     24        1          -0.000022406   -0.000000763   -0.000003660
     25        8           0.000009232    0.000129393   -0.000019200
     26        1           0.000085144   -0.000037827    0.000031695
     27        1          -0.000105481   -0.000112767   -0.000002264
     28        8          -0.000011544    0.000019819    0.000010442
     29        1           0.000024810   -0.000008788   -0.000012597
     30        1          -0.000006874   -0.000020048    0.000008800
 -------------------------------------------------------------------
 Cartesian Forces:  Max     0.000129393 RMS     0.000026480
 IRC-IRC-IRC-IRC-IRC-IRC-IRC-IRC-IRC-IRC-IRC-IRC-IRC-IRC-IRC-IRC-IRC-IRC
 Pt  1 Step number   1 out of a maximum of  20
 Modified Bulirsch-Stoer Extrapolation Cycles:
    EPS =    0.000010000000000
 Maximum DWI energy   std dev =  0.000000189 at pt  1536
 Maximum DWI gradient std dev =  1.509535736 at pt     5
 WARNING: Bulirsch-Stoer Method is not Converging
 CORRECTOR INTEGRATION CONVERGENCE:
   Recorrection delta-x convergence threshold:    0.010000
   Delta-x Convergence NOT Met
 IRC-IRC-IRC-IRC-IRC-IRC-IRC-IRC-IRC-IRC-IRC-IRC-IRC-IRC-IRC-IRC-IRC-IRC
                          Input orientation:                          
 ---------------------------------------------------------------------
 Center     Atomic      Atomic             Coordinates (Angstroms)
 Number     Number       Type             X           Y           Z
 ---------------------------------------------------------------------
      1          1           0       -1.323974    1.411915    1.461778
      2          6           0       -1.234576    0.898058    0.497704
      3          6           0        0.847897   -0.156829   -0.531290
      4          6           0       -1.296189   -1.490074   -0.219041
      5          6           0       -0.203429   -1.030045   -1.220183
      6          8           0       -1.503806   -0.467732    0.805570
      7          6           0        0.204364    1.137200   -0.028028
      8          1           0       -0.686198   -0.419182   -2.004456
      9          1           0        0.177832    1.858689   -0.852539
     10          6           0       -2.310765    1.508938   -0.406875
     11          1           0       -3.296411    1.249205    0.004141
     12          1           0       -2.248869    1.106654   -1.429130
     13          1           0        1.239044   -0.705242    0.336236
     14          8           0       -2.080599    2.915391   -0.390988
     15          1           0       -2.705566    3.334678   -1.000800
     16          8           0        0.404544   -2.161797   -1.795538
     17          1           0        1.238065   -1.818033   -2.167872
     18          8           0        1.873684    0.070996   -1.483455
     19          1           0        2.684251    0.334447   -0.987940
     20          8           0        1.053470    1.654792    1.025615
     21          1           0        0.724743    2.538538    1.258331
     22          1           0       -2.246476   -1.650106   -0.739361
     23          8           0       -1.025436   -2.670341    0.432136
     24          1           0       -0.173471   -2.587637    0.905518
     25          8           0        0.495426   -1.547267    2.571562
     26          1           0       -0.342261   -1.115620    2.315501
     27          1           0        1.129992   -0.815039    2.611739
     28          8           0        3.705794    1.166800    0.253365
     29          1           0        2.884738    1.500234    0.676254
     30          1           0        4.094724    1.940659   -0.181936
 ---------------------------------------------------------------------
                    Distance matrix (angstroms):
                    1          2          3          4          5
     1  H    0.000000
     2  C    1.096120   0.000000
     3  C    3.339207   2.551138   0.000000
     4  C    3.353724   2.494132   2.544042   0.000000
     5  C    3.796275   2.780644   1.530479   1.551785   0.000000
     6  O    1.999005   1.425710   2.722933   1.462230   2.472014
     7  C    2.151931   1.550526   1.530332   3.031619   2.506886
     8  H    3.971707   2.880390   2.143010   2.169472   1.105126
     9  H    2.794833   2.177352   2.148139   3.713257   2.936888
    10  C    2.115428   1.532847   3.573150   3.171549   3.398348
    11  H    2.457984   2.148970   4.408957   3.399169   4.032429
    12  H    3.050567   2.187462   3.463014   3.019091   2.965294
    13  H    3.509737   2.952191   1.098342   2.711402   2.146781
    14  O    2.503131   2.361178   4.246682   4.478057   4.447223
    15  H    3.416153   3.216589   5.003814   5.086819   5.035834
    16  O    5.135105   4.160335   2.411386   2.414343   1.407667
    17  H    5.492811   4.538326   2.364367   3.213712   1.896562
    18  O    4.549448   3.777605   1.418013   3.752836   2.365587
    19  H    4.819536   4.228712   1.955014   4.445671   3.202261
    20  O    2.429294   2.467081   2.397537   4.118283   3.719107
    21  H    2.346894   2.666207   3.237732   4.743049   4.442895
    22  H    3.882267   3.007891   3.442138   1.095166   2.188540
    23  O    4.220675   3.575123   3.279528   1.374906   2.469093
    24  H    4.198750   3.666378   3.002739   1.931262   2.635450
    25  O    3.646724   3.643269   3.418369   3.316718   3.890147
    26  H    2.842717   2.855786   3.231095   2.733879   3.539443
    27  H    3.507661   3.604861   3.223577   3.788844   4.062987
    28  O    5.178698   4.953703   3.245805   5.683483   4.720116
    29  H    4.282302   4.166923   2.890111   5.217629   4.419905
    30  H    5.687149   5.472693   3.881159   6.390091   5.327022
                    6          7          8          9         10
     6  O    0.000000
     7  C    2.487677   0.000000
     8  H    2.926959   2.668650   0.000000
     9  H    3.315036   1.095933   2.694839   0.000000
    10  C    2.455286   2.570523   2.984817   2.552265   0.000000
    11  H    2.608370   3.502714   3.692044   3.629839   1.099042
    12  H    2.833318   2.825309   2.258566   2.605167   1.100303
    13  H    2.792832   2.144257   3.044212   3.018791   4.249229
    14  O    3.634551   2.918006   3.958158   2.535775   1.425251
    15  H    4.377844   3.773975   4.379114   3.242608   1.960087
    16  O    3.643820   3.748005   2.066415   4.135814   4.772377
    17  H    4.264098   3.792212   2.384591   4.046293   5.173398
    18  O    4.115495   2.457984   2.657952   2.543583   4.553714
    19  H    4.626013   2.777712   3.600165   2.936628   5.164035
    20  O    3.330644   1.448808   4.063144   2.082252   3.659423
    21  H    3.769493   1.972121   4.624353   2.284092   3.612104
    22  H    2.082398   3.779112   2.355867   4.266348   3.177143
    23  O    2.284683   4.027595   3.334633   4.859049   4.452233
    24  H    2.504751   3.858585   3.665111   4.794163   4.803366
    25  O    2.877682   3.748192   4.858884   4.840028   5.107464
    26  H    2.012172   3.296381   4.389231   4.376470   4.263173
    27  H    3.212438   3.411215   4.976395   4.478465   5.133391
    28  O    5.487855   3.512843   5.186780   3.761416   6.062339
    29  H    4.811334   2.795033   4.860241   3.129383   5.307212
    30  H    6.174063   3.975441   5.634505   3.974729   6.423961
                   11         12         13         14         15
    11  H    0.000000
    12  H    1.780991   0.000000
    13  H    4.949798   4.308714   0.000000
    14  O    2.100120   2.092267   4.965669   0.000000
    15  H    2.389184   2.314331   5.802462   0.968636   0.000000
    16  O    5.345171   4.225829   2.713375   5.824649   6.365189
    17  H    5.889572   4.610666   2.740231   6.047822   6.592778
    18  O    5.507358   4.250998   2.077640   4.992035   5.643944
    19  H    6.131013   5.012647   2.218788   5.451735   6.168605
    20  O    4.486577   4.151105   2.465652   3.663094   4.588978
    21  H    4.405116   4.256184   3.411285   3.276006   4.183842
    22  H    3.171934   2.841745   3.768093   4.581773   5.012702
    23  O    4.550093   4.384836   2.999780   5.743806   6.398155
    24  H    5.028577   4.837938   2.421300   5.966690   6.717095
    25  O    5.365625   5.529917   2.501730   5.943730   6.844086
    26  H    4.434161   4.753516   2.566403   5.157127   6.032265
    27  H    5.536579   5.606980   2.280758   5.765446   6.706869
    28  O    7.007123   6.188087   3.097783   6.079071   6.883180
    29  H    6.222648   5.562506   2.772732   5.272214   6.117940
    30  H    7.425740   6.518607   3.927366   6.255271   6.989834
                   16         17         18         19         20
    16  O    0.000000
    17  H    0.975480   0.000000
    18  O    2.690935   2.107338   0.000000
    19  H    3.475703   2.849012   0.985881   0.000000
    20  O    4.790236   4.721541   3.078407   2.908120   0.000000
    21  H    5.614427   5.566155   3.863446   3.707212   0.971197
    22  H    2.899181   3.769731   4.526763   5.320932   4.992708
    23  O    2.695550   3.551043   4.425981   4.980677   4.835374
    24  H    2.794843   3.468494   4.119025   4.504480   4.417920
    25  O    4.411062   4.804900   4.578377   4.582779   3.599243
    26  H    4.307302   4.805356   4.555276   4.709055   3.359622
    27  H    4.665203   4.884912   4.255437   4.085918   2.936275
    28  O    5.116230   4.567418   2.752082   1.810303   2.805232
    29  H    5.066713   4.670277   2.780160   2.041763   1.870691
    30  H    5.749025   5.121740   3.181605   2.284512   3.284680
                   21         22         23         24         25
    21  H    0.000000
    22  H    5.510322   0.000000
    23  O    5.556810   1.975911   0.000000
    24  H    5.216218   2.807479   0.978148   0.000000
    25  O    4.297786   4.300095   2.855076   2.074969   0.000000
    26  H    3.950820   3.639216   2.535931   2.045330   0.976527
    27  H    3.639013   4.829880   3.583111   2.784297   0.969766
    28  O    3.431951   6.659578   6.094271   5.437812   4.800694
    29  H    2.466266   6.185302   5.722127   5.110371   4.311411
    30  H    3.713300   7.308566   6.917690   6.317081   5.718595
                   26         27         28         29         30
    26  H    0.000000
    27  H    1.531547   0.000000
    28  O    5.084151   4.015516   0.000000
    29  H    4.465798   3.490806   0.981909   0.000000
    30  H    5.938423   4.918143   0.969336   1.547427   0.000000
 Symmetry turned off by external request.
 Stoichiometry    C6H16O8
 Framework group  C1[X(C6H16O8)]
 Deg. of freedom    84
 Full point group                 C1      NOp   1
 Rotational constants (GHZ):      0.5901105      0.5694383      0.4301150
 Standard basis: 6-31G(d) (6D, 7F)
   242 basis functions,   456 primitive gaussians,   242 cartesian basis functions
    58 alpha electrons       58 beta electrons
       nuclear repulsion energy      1113.7927187799 Hartrees.
 NAtoms=   30 NActive=   30 NUniq=   30 SFac= 1.00D+00 NAtFMM=   60 NAOKFM=F Big=F
 Integral buffers will be    131072 words long.
 Raffenetti 2 integral format.
 Two-electron integral symmetry is turned off.
 One-electron integrals computed using PRISM.
 NBasis=   242 RedAO= T EigKep=  1.48D-03  NBF=   242
 NBsUse=   242 1.00D-06 EigRej= -1.00D+00 NBFU=   242
 Initial guess from the checkpoint file:  "/scratch/10502097.yak.local/Gau-17635.chk"
 B after Tr=     0.000002    0.000006   -0.000001
         Rot=    1.000000    0.000338    0.000124    0.000129 Ang=   0.04 deg.
 ExpMin= 1.61D-01 ExpMax= 5.48D+03 ExpMxC= 8.25D+02 IAcc=1 IRadAn=         1 AccDes= 0.00D+00
 Harris functional with IExCor=  402 and IRadAn=       1 diagonalized for initial guess.
 HarFok:  IExCor=  402 AccDes= 0.00D+00 IRadAn=         1 IDoV= 1 UseB2=F ITyADJ=14
 ICtDFT=  3500011 ScaDFX=  1.000000  1.000000  1.000000  1.000000
 FoFCou: FMM=F IPFlag=           0 FMFlag=      100000 FMFlg1=           0
         NFxFlg=           0 DoJE=T BraDBF=F KetDBF=T FulRan=T
         wScrn=  0.000000 ICntrl=     500 IOpCl=  0 I1Cent=   200000004 NGrid=           0
         NMat0=    1 NMatS0=      1 NMatT0=    0 NMatD0=    1 NMtDS0=    0 NMtDT0=    0
 Symmetry not used in FoFCou.
 Requested convergence on RMS density matrix=1.00D-08 within 128 cycles.
 Requested convergence on MAX density matrix=1.00D-06.
 Requested convergence on             energy=1.00D-06.
 No special actions if energy rises.
 Integral accuracy reduced to 1.0D-05 until final iterations.
 Initial convergence to 1.0D-05 achieved.  Increase integral accuracy.
 SCF Done:  E(RB3LYP) =  -839.985173945     A.U. after    8 cycles
            NFock=  8  Conv=0.94D-08     -V/T= 2.0085
 DoSCS=F DFT=T ScalE2(SS,OS)=  1.000000  1.000000
 Range of M.O.s used for correlation:     1   242
 NBasis=   242 NAE=    58 NBE=    58 NFC=     0 NFV=     0
 NROrb=    242 NOA=    58 NOB=    58 NVA=   184 NVB=   184
 Symmetrizing basis deriv contribution to polar:
 IMax=3 JMax=2 DiffMx= 0.00D+00
 Calling FoFJK, ICntrl=      2147 FMM=F ISym2X=0 I1Cent= 0 IOpClX= 0 NMat=1 NMatS=1 NMatT=0.
 -------------------------------------------------------------------
 Center     Atomic                   Forces (Hartrees/Bohr)
 Number     Number              X              Y              Z
 -------------------------------------------------------------------
      1        1          -0.000000205    0.000002146   -0.000002308
      2        6           0.000002445    0.000007892   -0.000006317
      3        6           0.000001880   -0.000002222    0.000005478
      4        6          -0.000003441    0.000005670    0.000005133
      5        6           0.000002026   -0.000006731    0.000007015
      6        8           0.000006315    0.000013997    0.000007118
      7        6           0.000001867    0.000003857   -0.000013650
      8        1           0.000001036   -0.000002903    0.000001322
      9        1           0.000001234   -0.000001895   -0.000001646
     10        6          -0.000000095    0.000001935   -0.000008368
     11        1          -0.000000105    0.000001562   -0.000002904
     12        1           0.000001240   -0.000000363   -0.000002279
     13        1          -0.000000985    0.000000885    0.000000720
     14        8           0.000002274    0.000000128   -0.000023687
     15        1           0.000001334    0.000000497   -0.000006529
     16        8           0.000003162   -0.000015021    0.000027109
     17        1          -0.000000459   -0.000003270    0.000003331
     18        8           0.000008465   -0.000019666    0.000012219
     19        1           0.000000606   -0.000002495    0.000001123
     20        8           0.000001168    0.000033594   -0.000030395
     21        1           0.000001876   -0.000002661   -0.000004425
     22        1          -0.000001664   -0.000000145    0.000000003
     23        8          -0.000024688    0.000004561    0.000010390
     24        1           0.000001508    0.000000985    0.000005476
     25        8          -0.000012712   -0.000027977    0.000006128
     26        1          -0.000006839    0.000007009   -0.000000641
     27        1           0.000007428    0.000010581    0.000003790
     28        8           0.000003388   -0.000004667    0.000007656
     29        1           0.000001886   -0.000000992   -0.000001523
     30        1           0.000000052   -0.000004291    0.000000658
 -------------------------------------------------------------------
 Cartesian Forces:  Max     0.000033594 RMS     0.000009058
 IRC-IRC-IRC-IRC-IRC-IRC-IRC-IRC-IRC-IRC-IRC-IRC-IRC-IRC-IRC-IRC-IRC-IRC
 Error in corrector energy =           0.0000001931
 Magnitude of corrector gradient =     0.0000796179
 Magnitude of analytic gradient =      0.0000859307
 Magnitude of difference =             0.0000260530
 Angle between gradients (degrees)=   17.5779
 Pt  1 Step number   2 out of a maximum of  20
 Modified Bulirsch-Stoer Extrapolation Cycles:
    EPS =    0.000010000000000
 Maximum DWI energy   std dev =  0.000000178 at pt     2
 Maximum DWI gradient std dev =  1.311116201 at pt     5
 WARNING: Bulirsch-Stoer Method is not Converging
 CORRECTOR INTEGRATION CONVERGENCE:
   Recorrection delta-x convergence threshold:    0.010000
   Delta-x Convergence NOT Met
 IRC-IRC-IRC-IRC-IRC-IRC-IRC-IRC-IRC-IRC-IRC-IRC-IRC-IRC-IRC-IRC-IRC-IRC
                          Input orientation:                          
 ---------------------------------------------------------------------
 Center     Atomic      Atomic             Coordinates (Angstroms)
 Number     Number       Type             X           Y           Z
 ---------------------------------------------------------------------
      1          1           0       -1.324143    1.412634    1.460988
      2          6           0       -1.234566    0.898385    0.497138
      3          6           0        0.847953   -0.157154   -0.531113
      4          6           0       -1.296318   -1.490033   -0.218697
      5          6           0       -0.203403   -1.030436   -1.219869
      6          8           0       -1.504075   -0.467249    0.805455
      7          6           0        0.204536    1.137119   -0.028334
      8          1           0       -0.686020   -0.419747   -2.004369
      9          1           0        0.178307    1.858380   -0.853056
     10          6           0       -2.310408    1.509130   -0.407949
     11          1           0       -3.296231    1.249506    0.002704
     12          1           0       -2.248106    1.106690   -1.430115
     13          1           0        1.238909   -0.705352    0.336637
     14          8           0       -2.080201    2.915580   -0.392183
     15          1           0       -2.704303    3.334708   -1.002992
     16          8           0        0.404474   -2.162427   -1.794845
     17          1           0        1.238134   -1.818916   -2.167094
     18          8           0        1.873899    0.070251   -1.483209
     19          1           0        2.684448    0.333681   -0.987654
     20          8           0        1.053518    1.654864    1.025337
     21          1           0        0.724910    2.538744    1.257705
     22          1           0       -2.246528   -1.650263   -0.739100
     23          8           0       -1.025684   -2.670036    0.433004
     24          1           0       -0.173946   -2.587035    0.906756
     25          8           0        0.494699   -1.546215    2.572224
     26          1           0       -0.342872   -1.114442    2.315944
     27          1           0        1.129419   -0.814094    2.612325
     28          8           0        3.705908    1.166337    0.253511
     29          1           0        2.884840    1.500015    0.676182
     30          1           0        4.094983    1.939987   -0.182030
 ---------------------------------------------------------------------
                    Distance matrix (angstroms):
                    1          2          3          4          5
     1  H    0.000000
     2  C    1.096121   0.000000
     3  C    3.339266   2.551147   0.000000
     4  C    3.353742   2.494148   2.544026   0.000000
     5  C    3.796266   2.780605   1.530476   1.551785   0.000000
     6  O    1.999014   1.425711   2.722979   1.462237   2.472017
     7  C    2.151939   1.550525   1.530332   3.031621   2.506884
     8  H    3.971588   2.880262   2.143015   2.169469   1.105125
     9  H    2.794788   2.177343   2.148127   3.713327   2.936922
    10  C    2.115409   1.532849   3.573082   3.171619   3.398246
    11  H    2.458116   2.149003   4.408845   3.399079   4.032171
    12  H    3.050539   2.187455   3.462816   3.019338   2.965185
    13  H    3.509881   2.952256   1.098343   2.711364   2.146778
    14  O    2.502941   2.361157   4.246773   4.478168   4.447300
    15  H    3.416198   3.216549   5.003429   5.086813   5.035477
    16  O    5.135136   4.160314   2.411392   2.414343   1.407663
    17  H    5.492827   4.538293   2.364345   3.213699   1.896566
    18  O    4.549479   3.777584   1.418015   3.752833   2.365596
    19  H    4.819625   4.228732   1.955010   4.445641   3.202253
    20  O    2.429349   2.467100   2.397541   4.118218   3.719091
    21  H    2.346927   2.666231   3.237727   4.743012   4.442880
    22  H    3.882334   3.007983   3.442158   1.095168   2.188534
    23  O    4.220666   3.575105   3.279423   1.374906   2.469093
    24  H    4.198508   3.666177   3.002677   1.931263   2.635603
    25  O    3.646617   3.643132   3.418330   3.316646   3.890160
    26  H    2.842526   2.855634   3.231129   2.733959   3.539559
    27  H    3.507685   3.604861   3.223661   3.788902   4.063118
    28  O    5.178810   4.953730   3.245792   5.683445   4.720103
    29  H    4.282416   4.166956   2.890099   5.217593   4.419891
    30  H    5.687225   5.472687   3.881116   6.390032   5.326974
                    6          7          8          9         10
     6  O    0.000000
     7  C    2.487681   0.000000
     8  H    2.926872   2.668640   0.000000
     9  H    3.315060   1.095934   2.694893   0.000000
    10  C    2.455320   2.570494   2.984587   2.552214   0.000000
    11  H    2.608348   3.502708   3.691605   3.629803   1.099040
    12  H    2.833486   2.825132   2.258294   2.604903   1.100302
    13  H    2.792928   2.144256   3.044213   3.018769   4.249234
    14  O    3.634528   2.918104   3.958193   2.535929   1.425253
    15  H    4.377889   3.773685   4.378602   3.242140   1.960094
    16  O    3.643865   3.748005   2.066400   4.135819   4.772252
    17  H    4.264125   3.792198   2.384643   4.046286   5.173261
    18  O    4.115532   2.457976   2.657987   2.543527   4.553568
    19  H    4.626063   2.777728   3.600197   2.936590   5.163945
    20  O    3.330615   1.448810   4.063142   2.082251   3.659445
    21  H    3.769470   1.972115   4.624340   2.284071   3.612155
    22  H    2.082405   3.779207   2.355898   4.266543   3.177343
    23  O    2.284699   4.027494   3.334660   4.859022   4.452319
    24  H    2.504595   3.858363   3.665243   4.794031   4.803278
    25  O    2.877627   3.747983   4.858830   4.839825   5.107366
    26  H    2.012170   3.296183   4.389243   4.376283   4.263088
    27  H    3.212533   3.411117   4.976463   4.478346   5.133403
    28  O    5.487912   3.512819   5.186783   3.761300   6.062268
    29  H    4.811384   2.795007   4.860234   3.129266   5.307166
    30  H    6.174088   3.975399   5.634471   3.974580   6.423839
                   11         12         13         14         15
    11  H    0.000000
    12  H    1.780992   0.000000
    13  H    4.949796   4.308618   0.000000
    14  O    2.100112   2.092267   4.965765   0.000000
    15  H    2.389534   2.314004   5.802208   0.968638   0.000000
    16  O    5.344874   4.225675   2.713405   5.824708   6.364748
    17  H    5.889287   4.610442   2.740199   6.047901   6.592252
    18  O    5.507162   4.250642   2.077646   4.992108   5.643335
    19  H    6.130911   5.012326   2.218766   5.451850   6.168066
    20  O    4.486692   4.150959   2.465624   3.663189   4.588814
[...]
 ICtDFT=  3500011 ScaDFX=  1.000000  1.000000  1.000000  1.000000
 FoFCou: FMM=F IPFlag=           0 FMFlag=      100000 FMFlg1=           0
         NFxFlg=           0 DoJE=T BraDBF=F KetDBF=T FulRan=T
         wScrn=  0.000000 ICntrl=     500 IOpCl=  0 I1Cent=   200000004 NGrid=           0
         NMat0=    1 NMatS0=      1 NMatT0=    0 NMatD0=    1 NMtDS0=    0 NMtDT0=    0
 Symmetry not used in FoFCou.
 Requested convergence on RMS density matrix=1.00D-08 within 128 cycles.
 Requested convergence on MAX density matrix=1.00D-06.
 Requested convergence on             energy=1.00D-06.
 No special actions if energy rises.
 Integral accuracy reduced to 1.0D-05 until final iterations.
 Initial convergence to 1.0D-05 achieved.  Increase integral accuracy.
 SCF Done:  E(RB3LYP) =  -839.985174264     A.U. after    8 cycles
            NFock=  8  Conv=0.32D-08     -V/T= 2.0085
 DoSCS=F DFT=T ScalE2(SS,OS)=  1.000000  1.000000
 Range of M.O.s used for correlation:     1   242
 NBasis=   242 NAE=    58 NBE=    58 NFC=     0 NFV=     0
 NROrb=    242 NOA=    58 NOB=    58 NVA=   184 NVB=   184
 Symmetrizing basis deriv contribution to polar:
 IMax=3 JMax=2 DiffMx= 0.00D+00
 Calling FoFJK, ICntrl=      2147 FMM=F ISym2X=0 I1Cent= 0 IOpClX= 0 NMat=1 NMatS=1 NMatT=0.
 -------------------------------------------------------------------
 Center     Atomic                   Forces (Hartrees/Bohr)
 Number     Number              X              Y              Z
 -------------------------------------------------------------------
      1        1           0.000000399    0.000001324   -0.000000992
      2        6           0.000002262    0.000008257   -0.000007952
      3        6           0.000001186   -0.000003549    0.000005135
      4        6          -0.000004211    0.000004908    0.000006791
      5        6           0.000002205   -0.000007032    0.000007649
      6        8           0.000003648    0.000013967    0.000003885
      7        6           0.000001496    0.000003225   -0.000012824
      8        1           0.000000650   -0.000001039   -0.000000002
      9        1          -0.000000001   -0.000000778   -0.000002001
     10        6           0.000001576    0.000001763   -0.000011311
     11        1           0.000000124    0.000000487   -0.000000757
     12        1           0.000000073   -0.000000502   -0.000000702
     13        1          -0.000000468    0.000000351    0.000001104
     14        8           0.000003734    0.000002352   -0.000029190
     15        1           0.000000692   -0.000000252   -0.000002583
     16        8           0.000002842   -0.000017950    0.000026934
     17        1           0.000000503   -0.000001606    0.000001978
     18        8           0.000009581   -0.000021548    0.000011320
     19        1           0.000000486   -0.000001298    0.000000873
     20        8           0.000001766    0.000026832   -0.000028446
     21        1           0.000000291    0.000002155   -0.000003280
     22        1          -0.000000388    0.000000963    0.000000457
     23        8          -0.000020651    0.000006827    0.000015030
     24        1          -0.000001306   -0.000000054    0.000001046
     25        8          -0.000012555   -0.000007416    0.000008892
     26        1           0.000000154    0.000001169    0.000000155
     27        1           0.000000566   -0.000001702    0.000001701
     28        8           0.000004219   -0.000008941    0.000007855
     29        1           0.000000120    0.000000425   -0.000000539
     30        1           0.000001006   -0.000001337   -0.000000227
 -------------------------------------------------------------------
 Cartesian Forces:  Max     0.000029190 RMS     0.000008343
 IRC-IRC-IRC-IRC-IRC-IRC-IRC-IRC-IRC-IRC-IRC-IRC-IRC-IRC-IRC-IRC-IRC-IRC
 Error in corrector energy =          -0.0000000000
 Magnitude of corrector gradient =     0.0000791508
 Magnitude of analytic gradient =      0.0000791509
 Magnitude of difference =             0.0000000007
 Angle between gradients (degrees)=    0.0005
 Pt  1 Step number  19 out of a maximum of  20
 Modified Bulirsch-Stoer Extrapolation Cycles:
    EPS =    0.000010000000000
 Maximum DWI energy   std dev =  0.000000258 at pt     2
 Maximum DWI gradient std dev =  1.311720252 at pt     5
 WARNING: Bulirsch-Stoer Method is not Converging
 CORRECTOR INTEGRATION CONVERGENCE:
   Recorrection delta-x convergence threshold:    0.010000
   Delta-x Convergence NOT Met
 IRC-IRC-IRC-IRC-IRC-IRC-IRC-IRC-IRC-IRC-IRC-IRC-IRC-IRC-IRC-IRC-IRC-IRC
                          Input orientation:                          
 ---------------------------------------------------------------------
 Center     Atomic      Atomic             Coordinates (Angstroms)
 Number     Number       Type             X           Y           Z
 ---------------------------------------------------------------------
      1          1           0       -1.324343    1.412652    1.460873
      2          6           0       -1.234617    0.898385    0.497046
      3          6           0        0.847948   -0.157225   -0.531120
      4          6           0       -1.296323   -1.490086   -0.218681
      5          6           0       -0.203442   -1.030470   -1.219865
      6          8           0       -1.504281   -0.467221    0.805339
      7          6           0        0.204586    1.137025   -0.028182
      8          1           0       -0.686079   -0.419766   -2.004337
      9          1           0        0.178552    1.858463   -0.852752
     10          6           0       -2.310273    1.509199   -0.408221
     11          1           0       -3.296177    1.249559    0.002231
     12          1           0       -2.247781    1.106819   -1.430398
     13          1           0        1.238952   -0.705489    0.336563
     14          8           0       -2.080056    2.915644   -0.392332
     15          1           0       -2.704018    3.334809   -1.003259
     16          8           0        0.404401   -2.162460   -1.794875
     17          1           0        1.238022   -1.818948   -2.167205
     18          8           0        1.873845    0.070234   -1.483253
     19          1           0        2.684406    0.333677   -0.987724
     20          8           0        1.053513    1.654444    1.025701
     21          1           0        0.724864    2.538219    1.258397
     22          1           0       -2.246484   -1.650528   -0.739110
     23          8           0       -1.025547   -2.669982    0.433172
     24          1           0       -0.173842   -2.586791    0.906954
     25          8           0        0.494557   -1.545556    2.572416
     26          1           0       -0.343336   -1.114406    2.316161
     27          1           0        1.128784   -0.812974    2.611997
     28          8           0        3.705888    1.166302    0.253470
     29          1           0        2.884856    1.499789    0.676349
     30          1           0        4.094779    1.940087   -0.181989
 ---------------------------------------------------------------------
                    Distance matrix (angstroms):
                    1          2          3          4          5
     1  H    0.000000
     2  C    1.096123   0.000000
     3  C    3.339371   2.551179   0.000000
     4  C    3.353741   2.494166   2.544020   0.000000
     5  C    3.796264   2.780573   1.530472   1.551775   0.000000
     6  O    1.999006   1.425707   2.723087   1.462231   2.472020
     7  C    2.151948   1.550522   1.530341   3.031622   2.506916
     8  H    3.971501   2.880161   2.143020   2.169458   1.105122
     9  H    2.794692   2.177326   2.148147   3.713500   2.937112
    10  C    2.115394   1.532853   3.573014   3.171708   3.398150
    11  H    2.458123   2.148999   4.408772   3.399099   4.032004
    12  H    3.050529   2.187461   3.462664   3.019511   2.965072
    13  H    3.510139   2.952407   1.098341   2.711366   2.146760
    14  O    2.502890   2.361164   4.246762   4.478264   4.447281
    15  H    3.416158   3.216554   5.003367   5.086923   5.035421
    16  O    5.135161   4.160295   2.411385   2.414319   1.407662
    17  H    5.492896   4.538289   2.364372   3.213689   1.896568
    18  O    4.549546   3.777559   1.418012   3.752827   2.365596
    19  H    4.819739   4.228732   1.955006   4.445643   3.202257
    20  O    2.429411   2.467112   2.397518   4.118045   3.719041
    21  H    2.346731   2.666136   3.237737   4.742805   4.442868
    22  H    3.882441   3.008141   3.442197   1.095168   2.188520
    23  O    4.220587   3.575057   3.279297   1.374914   2.469086
    24  H    4.198337   3.666022   3.002483   1.931264   2.635596
    25  O    3.646220   3.642808   3.418228   3.316708   3.890232
    26  H    2.842519   2.855676   3.231465   2.733999   3.539787
    27  H    3.506612   3.603807   3.223051   3.788451   4.062670
    28  O    5.178970   4.953756   3.245786   5.683436   4.720104
    29  H    4.282572   4.167000   2.890099   5.217537   4.419889
    30  H    5.687184   5.472540   3.881047   6.389947   5.326922
                    6          7          8          9         10
     6  O    0.000000
     7  C    2.487688   0.000000
     8  H    2.926770   2.668720   0.000000
     9  H    3.315117   1.095932   2.695193   0.000000
    10  C    2.455318   2.570498   2.984376   2.552223   0.000000
    11  H    2.608295   3.502704   3.691283   3.629807   1.099041
    12  H    2.833534   2.825107   2.258048   2.604945   1.100301
    13  H    2.793179   2.144250   3.044206   3.018736   4.249299
    14  O    3.634516   2.918164   3.958117   2.535927   1.425251
    15  H    4.377879   3.773726   4.378478   3.242138   1.960091
    16  O    3.643901   3.748030   2.066399   4.135992   4.772143
    17  H    4.264201   3.792253   2.384618   4.046432   5.173102
    18  O    4.115610   2.457986   2.657977   2.543484   4.553368
    19  H    4.626188   2.777695   3.600187   2.936408   5.163767
    20  O    3.330516   1.448817   4.063208   2.082250   3.659548
    21  H    3.769220   1.972136   4.624486   2.284179   3.612279
    22  H    2.082404   3.779367   2.355936   4.266935   3.177646
    23  O    2.284700   4.027329   3.334690   4.859040   4.452417
    24  H    2.504591   3.858042   3.665242   4.793854   4.803245
    25  O    2.877624   3.747457   4.858803   4.839316   5.107132
    26  H    2.012269   3.296226   4.389385   4.376337   4.263145
    27  H    3.211945   3.409865   4.975829   4.477053   5.132379
    28  O    5.488062   3.512734   5.186780   3.760973   6.062146
    29  H    4.811475   2.794961   4.860282   3.129038   5.307141
    30  H    6.174093   3.975194   5.634400   3.974093   6.423515
                   11         12         13         14         15
    11  H    0.000000
    12  H    1.780993   0.000000
    13  H    4.949887   4.308587   0.000000
    14  O    2.100112   2.092262   4.965854   0.000000
    15  H    2.389546   2.313988   5.802253   0.968638   0.000000
    16  O    5.344693   4.225529   2.713349   5.824671   6.364660
    17  H    5.889070   4.610186   2.740190   6.047824   6.592091
    18  O    5.506959   4.250306   2.077634   4.991973   5.643109
    19  H    6.130760   5.012003   2.218770   5.451710   6.167832
    20  O    4.486784   4.151007   2.465479   3.663427   4.589046
    21  H    4.405380   4.256189   3.411115   3.276421   4.184122
    22  H    3.172057   2.842682   3.768081   4.582344   5.013252
    23  O    4.550195   4.385314   2.999420   5.743924   6.398290
    24  H    5.028428   4.838098   2.420873   5.966455   6.716849
    25  O    5.365462   5.529741   2.501774   5.943119   6.843559
    26  H    4.434171   4.753678   2.567033   5.156882   6.032154
    27  H    5.535810   5.606046   2.280634   5.764134   6.705561
    28  O    7.007066   6.187498   3.097787   6.079014   6.882492
    29  H    6.222718   5.562083   2.772672   5.272293   6.117507
    30  H    7.425429   6.517740   3.927304   6.254961   6.988803
                   16         17         18         19         20
    16  O    0.000000
    17  H    0.975477   0.000000
    18  O    2.690966   2.107385   0.000000
    19  H    3.475718   2.849034   0.985880   0.000000
    20  O    4.790173   4.721561   3.078557   2.908284   0.000000
    21  H    5.614406   5.566236   3.863644   3.707407   0.971193
    22  H    2.898949   3.769563   4.526796   5.320954   4.992733
    23  O    2.695648   3.551051   4.425827   4.980428   4.834692
    24  H    2.795406   3.468918   4.118967   4.504278   4.416852
    25  O    4.411567   4.805360   4.578390   4.582744   3.597882
    26  H    4.307916   4.806001   4.555745   4.709546   3.359019
    27  H    4.665443   4.885149   4.255143   4.085677   2.934306
    28  O    5.116267   4.567466   2.752081   1.810318   2.805301
    29  H    5.066722   4.670318   2.780224   2.041846   1.870770
    30  H    5.749016   5.121766   3.181538   2.284494   3.284723
                   21         22         23         24         25
    21  H    0.000000
    22  H    5.510404   0.000000
    23  O    5.556104   1.975910   0.000000
    24  H    5.215066   2.807483   0.978157   0.000000
    25  O    4.296150   4.300062   2.855069   2.074775   0.000000
    26  H    3.949884   3.639242   2.535918   2.045119   0.976536
    27  H    3.636740   4.829477   3.582861   2.783960   0.969786
    28  O    3.431988   6.659616   6.093919   5.437375   4.800451
    29  H    2.466309   6.185360   5.721659   5.109692   4.310769
    30  H    3.713327   7.308524   6.917290   6.316609   5.718221
                   26         27         28         29         30
    26  H    0.000000
    27  H    1.531508   0.000000
    28  O    5.084539   4.015177   0.000000
    29  H    4.465896   3.489900   0.981903   0.000000
    30  H    5.938649   4.917605   0.969332   1.547424   0.000000
 Symmetry turned off by external request.
 Stoichiometry    C6H16O8
 Framework group  C1[X(C6H16O8)]
 Deg. of freedom    84
 Full point group                 C1      NOp   1
 Rotational constants (GHZ):      0.5901237      0.5694276      0.4301570
 Standard basis: 6-31G(d) (6D, 7F)
   242 basis functions,   456 primitive gaussians,   242 cartesian basis functions
    58 alpha electrons       58 beta electrons
       nuclear repulsion energy      1113.8041702836 Hartrees.
 NAtoms=   30 NActive=   30 NUniq=   30 SFac= 1.00D+00 NAtFMM=   60 NAOKFM=F Big=F
 Integral buffers will be    131072 words long.
 Raffenetti 2 integral format.
 Two-electron integral symmetry is turned off.
 One-electron integrals computed using PRISM.
 NBasis=   242 RedAO= T EigKep=  1.48D-03  NBF=   242
 NBsUse=   242 1.00D-06 EigRej= -1.00D+00 NBFU=   242
 Initial guess from the checkpoint file:  "/scratch/10502097.yak.local/Gau-17635.chk"
 B after Tr=    -0.000000    0.000000    0.000000
         Rot=    1.000000   -0.000000   -0.000000   -0.000000 Ang=   0.00 deg.
 ExpMin= 1.61D-01 ExpMax= 5.48D+03 ExpMxC= 8.25D+02 IAcc=1 IRadAn=         1 AccDes= 0.00D+00
 Harris functional with IExCor=  402 and IRadAn=       1 diagonalized for initial guess.
 HarFok:  IExCor=  402 AccDes= 0.00D+00 IRadAn=         1 IDoV= 1 UseB2=F ITyADJ=14
 ICtDFT=  3500011 ScaDFX=  1.000000  1.000000  1.000000  1.000000
 FoFCou: FMM=F IPFlag=           0 FMFlag=      100000 FMFlg1=           0
         NFxFlg=           0 DoJE=T BraDBF=F KetDBF=T FulRan=T
         wScrn=  0.000000 ICntrl=     500 IOpCl=  0 I1Cent=   200000004 NGrid=           0
         NMat0=    1 NMatS0=      1 NMatT0=    0 NMatD0=    1 NMtDS0=    0 NMtDT0=    0
 Symmetry not used in FoFCou.
 Requested convergence on RMS density matrix=1.00D-08 within 128 cycles.
 Requested convergence on MAX density matrix=1.00D-06.
 Requested convergence on             energy=1.00D-06.
 No special actions if energy rises.
 Integral accuracy reduced to 1.0D-05 until final iterations.
 Initial convergence to 1.0D-05 achieved.  Increase integral accuracy.
 SCF Done:  E(RB3LYP) =  -839.985174264     A.U. after    8 cycles
            NFock=  8  Conv=0.32D-08     -V/T= 2.0085
 DoSCS=F DFT=T ScalE2(SS,OS)=  1.000000  1.000000
 Range of M.O.s used for correlation:     1   242
 NBasis=   242 NAE=    58 NBE=    58 NFC=     0 NFV=     0
 NROrb=    242 NOA=    58 NOB=    58 NVA=   184 NVB=   184
 Symmetrizing basis deriv contribution to polar:
 IMax=3 JMax=2 DiffMx= 0.00D+00
 Calling FoFJK, ICntrl=      2147 FMM=F ISym2X=0 I1Cent= 0 IOpClX= 0 NMat=1 NMatS=1 NMatT=0.
 -------------------------------------------------------------------
 Center     Atomic                   Forces (Hartrees/Bohr)
 Number     Number              X              Y              Z
 -------------------------------------------------------------------
      1        1           0.000000399    0.000001324   -0.000000992
      2        6           0.000002262    0.000008257   -0.000007952
      3        6           0.000001186   -0.000003549    0.000005135
      4        6          -0.000004211    0.000004908    0.000006791
      5        6           0.000002205   -0.000007032    0.000007649
      6        8           0.000003648    0.000013967    0.000003885
      7        6           0.000001496    0.000003225   -0.000012824
      8        1           0.000000650   -0.000001039   -0.000000002
      9        1          -0.000000001   -0.000000778   -0.000002001
     10        6           0.000001576    0.000001763   -0.000011311
     11        1           0.000000124    0.000000487   -0.000000757
     12        1           0.000000073   -0.000000503   -0.000000702
     13        1          -0.000000468    0.000000351    0.000001105
     14        8           0.000003734    0.000002352   -0.000029190
     15        1           0.000000692   -0.000000252   -0.000002583
     16        8           0.000002841   -0.000017950    0.000026934
     17        1           0.000000503   -0.000001606    0.000001978
     18        8           0.000009581   -0.000021548    0.000011319
     19        1           0.000000486   -0.000001298    0.000000873
     20        8           0.000001767    0.000026831   -0.000028446
     21        1           0.000000291    0.000002155   -0.000003280
     22        1          -0.000000388    0.000000963    0.000000457
     23        8          -0.000020651    0.000006827    0.000015030
     24        1          -0.000001306   -0.000000054    0.000001046
     25        8          -0.000012555   -0.000007417    0.000008892
     26        1           0.000000153    0.000001169    0.000000155
     27        1           0.000000566   -0.000001702    0.000001701
     28        8           0.000004219   -0.000008941    0.000007855
     29        1           0.000000120    0.000000425   -0.000000539
     30        1           0.000001006   -0.000001337   -0.000000227
 -------------------------------------------------------------------
 Cartesian Forces:  Max     0.000029190 RMS     0.000008343
 IRC-IRC-IRC-IRC-IRC-IRC-IRC-IRC-IRC-IRC-IRC-IRC-IRC-IRC-IRC-IRC-IRC-IRC
 Error in corrector energy =           0.0000000000
 Magnitude of corrector gradient =     0.0000791504
 Magnitude of analytic gradient =      0.0000791502
 Magnitude of difference =             0.0000000008
 Angle between gradients (degrees)=    0.0006
 Pt  1 Step number  20 out of a maximum of  20
 Modified Bulirsch-Stoer Extrapolation Cycles:
    EPS =    0.000010000000000
 Maximum DWI energy   std dev =  0.000000258 at pt     2
 Maximum DWI gradient std dev =  1.311710560 at pt     5
 WARNING: Bulirsch-Stoer Method is not Converging
 CORRECTOR INTEGRATION CONVERGENCE:
   Recorrection delta-x convergence threshold:    0.010000
   Delta-x Convergence NOT Met
 Maximum number of corrector steps exceded.
 Error termination via Lnk1e in /global/software/gaussian/g09.e01/l123.exe at Tue Jan 31 13:47:11 2017.
 Job cpu time:       0 days  3 hours 45 minutes 50.3 seconds.
 File lengths (MBytes):  RWF=    220 Int=      0 D2E=      0 Chk=      8 Scr=      1
