 Entering Gaussian System, Link 0=g09
 Initial command:
 /global/software/gaussian/g09.e01/l1.exe "/scratch/10502191.yak.local/Gau-25630.inp" -scrdir="/scratch/10502191.yak.local/"
 Entering Link 1 = /global/software/gaussian/g09.e01/l1.exe PID=     25631.
  
 Copyright (c) 1988,1990,1992,1993,1995,1998,2003,2009,2015,
            Gaussian, Inc.  All Rights Reserved.
  
 This is part of the Gaussian(R) 09 program.  It is based on
 the Gaussian(R) 03 system (copyright 2003, Gaussian, Inc.),
 the Gaussian(R) 98 system (copyright 1998, Gaussian, Inc.),
 the Gaussian(R) 94 system (copyright 1995, Gaussian, Inc.),
 the Gaussian 92(TM) system (copyright 1992, Gaussian, Inc.),
 the Gaussian 90(TM) system (copyright 1990, Gaussian, Inc.),
 the Gaussian 88(TM) system (copyright 1988, Gaussian, Inc.),
 the Gaussian 86(TM) system (copyright 1986, Carnegie Mellon
 University), and the Gaussian 82(TM) system (copyright 1983,
 Carnegie Mellon University). Gaussian is a federally registered
 trademark of Gaussian, Inc.
  
 This software contains proprietary and confidential information,
 including trade secrets, belonging to Gaussian, Inc.
  
 This software is provided under written license and may be
 used, copied, transmitted, or stored only in accord with that
 written license.
  
 The following legend is applicable only to US Government
 contracts under FAR:
  
                    RESTRICTED RIGHTS LEGEND
  
 Use, reproduction and disclosure by the US Government is
 subject to restrictions as set forth in subparagraphs (a)
 and (c) of the Commercial Computer Software - Restricted
 Rights clause in FAR 52.227-19.
  
 Gaussian, Inc.
 340 Quinnipiac St., Bldg. 40, Wallingford CT 06492
  
  
 ---------------------------------------------------------------
 Warning -- This program may not be used in any manner that
 competes with the business of Gaussian, Inc. or will provide
 assistance to any competitor of Gaussian, Inc.  The licensee
 of this program is prohibited from giving any competitor of
 Gaussian, Inc. access to this program.  By using this program,
 the user acknowledges that Gaussian, Inc. is engaged in the
 business of creating and licensing software in the field of
 computational chemistry and represents and warrants to the
 licensee that it is not a competitor of Gaussian, Inc. and that
 it will not use this program in any manner prohibited above.
 ---------------------------------------------------------------
  

 Cite this work as:
 Gaussian 09, Revision E.01,
 M. J. Frisch, G. W. Trucks, H. B. Schlegel, G. E. Scuseria, 
 M. A. Robb, J. R. Cheeseman, G. Scalmani, V. Barone, B. Mennucci, 
 G. A. Petersson, H. Nakatsuji, M. Caricato, X. Li, H. P. Hratchian, 
 A. F. Izmaylov, J. Bloino, G. Zheng, J. L. Sonnenberg, M. Hada, 
 M. Ehara, K. Toyota, R. Fukuda, J. Hasegawa, M. Ishida, T. Nakajima, 
 Y. Honda, O. Kitao, H. Nakai, T. Vreven, J. A. Montgomery, Jr., 
 J. E. Peralta, F. Ogliaro, M. Bearpark, J. J. Heyd, E. Brothers, 
 K. N. Kudin, V. N. Staroverov, T. Keith, R. Kobayashi, J. Normand, 
 K. Raghavachari, A. Rendell, J. C. Burant, S. S. Iyengar, J. Tomasi, 
 M. Cossi, N. Rega, J. M. Millam, M. Klene, J. E. Knox, J. B. Cross, 
 V. Bakken, C. Adamo, J. Jaramillo, R. Gomperts, R. E. Stratmann, 
 O. Yazyev, A. J. Austin, R. Cammi, C. Pomelli, J. W. Ochterski, 
 R. L. Martin, K. Morokuma, V. G. Zakrzewski, G. A. Voth, 
 P. Salvador, J. J. Dannenberg, S. Dapprich, A. D. Daniels, 
 O. Farkas, J. B. Foresman, J. V. Ortiz, J. Cioslowski, 
 and D. J. Fox, Gaussian, Inc., Wallingford CT, 2013.
 
 ******************************************
 Gaussian 09:  ES64L-G09RevE.01 30-Nov-2015
                31-Jan-2017 
 ******************************************
 %NPROCS=4
 Will use up to    4 processors via shared memory.
 --------------------------------------------------
 # b3lyp/6-31g(d) irc=(calcfc,reverse,maxpoints=20)
 --------------------------------------------------
 1/10=4,14=-1,18=10,22=2,26=3,38=1,42=20,44=3/1,23;
 2/12=2,17=6,18=5,29=1,40=1/2;
 3/5=1,6=6,7=1,11=2,16=1,25=1,30=1,71=2,74=-5,140=1/1,2,3;
 4//1;
 5/5=2,38=5/2;
 8/6=4,10=90,11=11/1;
 11/6=1,8=1,9=11,15=111,16=1/1,2,10;
 10/6=1,13=1/2;
 6/7=2,8=2,9=2,10=2,28=1/1;
 7/10=1,18=20,25=1/1,2,3,16;
 1/10=4,14=-1,18=10,22=2,26=3,42=20,44=3/23(2);
 2/29=1/2;
 99/5=20/99;
 2/29=1/2;
 3/5=1,6=6,7=1,11=2,16=1,25=1,30=1,71=2,74=-5,140=1/1,2,3;
 4/5=5,16=3,69=1/1;
 5/5=2,38=5/2;
 8/6=4,10=90,11=11/1;
 11/6=1,8=1,9=11,15=111,16=1/1,2,10;
 10/6=1,13=1/2;
 7/10=1,18=20,25=1/1,2,3,16;
 1/14=-1,18=10,22=2,26=3,42=20,44=3/23(-8);
 2/29=1/2;
 6/7=2,8=2,9=2,10=2,19=2,28=1/1;
 99/5=20,9=1/99;
 ------------------------------------------
 ./1/glo_2w_beta_boat1_b3lyp_631Gd_iopt.out
 ------------------------------------------
 Symbolic Z-matrix:
 Charge =  0 Multiplicity = 1
 H                    -0.59847  -2.26414   0.20245 
 C                    -0.70639  -1.2319   -0.15735 
 C                    -1.34555   1.08694   0.72664 
 C                     0.93485   0.68537  -0.26941 
 C                    -0.34327   1.50974  -0.34995 
 O                     0.63252  -0.75349  -0.30525 
 C                    -1.49216  -0.44263   0.89672 
 H                     1.42155   0.86033   0.70108 
 H                    -0.78435   1.35485  -1.34515 
 H                    -2.5528   -0.71431   0.80441 
 C                    -1.43128  -1.35239  -1.5055 
 H                    -0.71334  -1.73874  -2.24245 
 H                    -1.79771  -0.38016  -1.8601 
 O                     1.7646    0.98836  -1.31444 
 H                     2.68478   0.73273  -1.04808 
 H                    -0.96882   1.47201   1.68372 
 O                    -2.51398  -2.25479  -1.28692 
 H                    -3.06136  -2.26691  -2.08586 
 O                    -0.00167   2.87315  -0.17579 
 H                    -0.84854   3.34934  -0.16193 
 O                    -2.56894   1.73967   0.37306 
 H                    -3.14872   1.73327   1.15047 
 O                    -1.00123  -0.73659   2.21115 
 H                    -1.14333  -1.68306   2.37295 
 O                     2.68753  -1.67235   1.25721 
 H                     1.88169  -1.4965    0.71541 
 H                     2.47541  -1.29694   2.1255 
 O                     4.14118   0.05362  -0.31067 
 H                     3.76358  -0.59552   0.33464 
 H                     4.57306  -0.49744  -0.98071 
 
 IRC-IRC-IRC-IRC-IRC-IRC-IRC-IRC-IRC-IRC-IRC-IRC-IRC-IRC-IRC-IRC-IRC-IRC
 ------------------------------------------------------------------------
 INPUT DATA FOR L123
 ------------------------------------------------------------------------
 GENERAL PARAMETERS:
 Rxn path following direction = Reverse
 Maximum points per path      =  20
 Step size                    =   0.100 bohr
 Integration scheme           = HPC                                 
    Redo corrector integration= Yes                                 
    DWI Weight Power          =  2
    DWI will use Hessian update vectors when possible.
    Max correction cycles     =  20
 Initial Hessian              = CalcFC
 Hessian evaluation           = All updating
 Hessian updating method      = Bofill                              
 ------------------------------------------------------------------------
 IRC-IRC-IRC-IRC-IRC-IRC-IRC-IRC-IRC-IRC-IRC-IRC-IRC-IRC-IRC-IRC-IRC-IRC
                          Input orientation:                          
 ---------------------------------------------------------------------
 Center     Atomic      Atomic             Coordinates (Angstroms)
 Number     Number       Type             X           Y           Z
 ---------------------------------------------------------------------
      1          1           0       -0.598470   -2.264140    0.202450
      2          6           0       -0.706390   -1.231900   -0.157350
      3          6           0       -1.345550    1.086940    0.726640
      4          6           0        0.934850    0.685370   -0.269410
      5          6           0       -0.343270    1.509740   -0.349950
      6          8           0        0.632520   -0.753490   -0.305250
      7          6           0       -1.492160   -0.442630    0.896720
      8          1           0        1.421550    0.860330    0.701080
      9          1           0       -0.784350    1.354850   -1.345150
     10          1           0       -2.552800   -0.714310    0.804410
     11          6           0       -1.431280   -1.352390   -1.505500
     12          1           0       -0.713340   -1.738740   -2.242450
     13          1           0       -1.797710   -0.380160   -1.860100
     14          8           0        1.764600    0.988360   -1.314440
     15          1           0        2.684780    0.732730   -1.048080
     16          1           0       -0.968820    1.472010    1.683720
     17          8           0       -2.513980   -2.254790   -1.286920
     18          1           0       -3.061360   -2.266910   -2.085860
     19          8           0       -0.001670    2.873150   -0.175790
     20          1           0       -0.848540    3.349340   -0.161930
     21          8           0       -2.568940    1.739670    0.373060
     22          1           0       -3.148720    1.733270    1.150470
     23          8           0       -1.001230   -0.736590    2.211150
     24          1           0       -1.143330   -1.683060    2.372950
     25          8           0        2.687530   -1.672350    1.257210
     26          1           0        1.881690   -1.496500    0.715410
     27          1           0        2.475410   -1.296940    2.125500
     28          8           0        4.141180    0.053620   -0.310670
     29          1           0        3.763580   -0.595520    0.334640
     30          1           0        4.573060   -0.497440   -0.980710
 ---------------------------------------------------------------------
                    Distance matrix (angstroms):
                    1          2          3          4          5
     1  H    0.000000
     2  C    1.098464   0.000000
     3  C    3.473131   2.562612   0.000000
     4  C    3.357578   2.526292   2.520634   0.000000
     5  C    3.822623   2.772281   1.530481   1.523044   0.000000
     6  O    2.013743   1.429486   2.892186   1.470716   2.465030
     7  C    2.144433   1.533442   1.545964   2.919353   2.585707
     8  H    3.753855   3.105231   2.776481   1.099699   2.154295
     9  H    3.940394   2.847494   2.163108   2.135666   1.099530
    10  H    2.565879   2.145253   2.169793   3.908439   3.340804
    11  C    2.107594   1.535413   3.307587   3.358416   3.272743
    12  H    2.503353   2.145828   4.147246   3.533515   3.777715
    13  H    3.040011   2.194493   3.007998   3.336545   2.822706
    14  O    4.296954   3.517699   3.721392   1.368348   2.375962
    15  H    4.617877   4.019105   4.417992   1.915940   3.203157
    16  H    4.036104   3.281697   1.098274   2.838570   2.128039
    17  O    2.426415   2.364236   4.072691   4.644814   4.445400
    18  H    3.361874   3.215009   4.701326   5.290099   4.966335
    19  O    5.185652   4.165142   2.410589   2.381641   1.416301
    20  H    5.630849   4.583447   2.480933   3.207611   1.916971
    21  O    4.465686   3.546922   1.430999   3.714951   2.351429
    22  H    4.835473   4.058029   1.961835   4.448561   3.189322
    23  O    2.555484   2.437633   2.376465   3.453050   3.469603
    24  H    2.312055   2.607083   3.228642   4.112221   4.271797
    25  O    3.501504   3.703197   4.915376   3.310785   4.679146
    26  H    2.646430   2.744063   4.133929   2.574283   3.888820
    27  H    3.752644   3.916566   4.715870   3.469650   4.685111
    28  O    5.300904   5.017470   5.678729   3.268235   4.715095
    29  H    4.672178   4.541769   5.393287   3.163427   4.665512
    30  H    5.591585   5.393510   6.360444   3.891216   5.347610
                    6          7          8          9         10
     6  O    0.000000
     7  C    2.460819   0.000000
     8  H    2.059049   3.197763   0.000000
     9  H    2.744815   2.959377   3.049197   0.000000
    10  H    3.373299   1.098767   4.276170   3.468349   0.000000
    11  C    2.461413   2.569442   4.231284   2.788078   2.645872
    12  H    2.556326   3.484372   4.469596   3.221877   3.703569
    13  H    2.909115   2.774404   4.296754   2.074206   2.789522
    14  O    2.309569   4.188490   2.048511   2.575345   5.101819
    15  H    2.640534   4.755055   2.161387   3.536969   5.740896
    16  H    3.387203   2.135205   2.655862   3.036743   2.839397
    17  O    3.621883   3.016011   5.398566   4.003063   2.597739
    18  H    4.371014   3.832254   6.135401   4.341724   3.320069
    19  O    3.683948   3.790282   2.616467   2.070079   4.509870
    20  H    4.364320   3.989238   3.477537   2.319940   4.511271
    21  O    4.114037   2.489198   4.099371   2.507009   2.491654
    22  H    4.754037   2.746474   4.674542   3.458550   2.542740
    23  O    3.000282   1.433580   3.271136   4.131395   2.094465
    24  H    3.345220   1.959491   3.980275   4.814772   2.320646
    25  O    2.740192   4.371724   2.885560   5.290574   5.346394
    26  H    1.776017   3.539263   2.401371   4.414054   4.503825
    27  H    3.098407   4.240443   2.791667   5.450086   5.231408
    28  O    3.600299   5.782610   3.011778   5.198480   6.829531
    29  H    3.199680   5.287921   2.781885   5.225831   6.334939
    30  H    4.006203   6.349381   3.821514   5.680285   7.349256
                   11         12         13         14         15
    11  C    0.000000
    12  H    1.098999   0.000000
    13  H    1.097836   1.779828   0.000000
    14  O    3.966014   3.799798   3.854951   0.000000
    15  H    4.636692   4.368284   4.689415   0.991476   0.000000
    16  H    4.285117   5.078287   4.083657   4.085886   4.621478
    17  O    1.426304   2.102772   2.087059   5.368894   6.000785
    18  H    1.957122   2.411780   2.282018   5.872117   6.564522
    19  O    4.654793   5.103635   4.080035   2.822883   3.543910
    20  H    4.924534   5.498673   4.206409   3.705537   4.485115
    21  O    3.792637   4.731118   3.174189   4.710806   5.534902
    22  H    4.418719   5.431191   3.918590   5.547196   6.313828
    23  O    3.791786   4.574029   4.163712   4.801568   5.134993
    24  H    3.903157   4.635721   4.477106   5.402720   5.673968
    25  O    4.969863   4.880363   5.612910   3.813733   3.331483
    26  H    3.991113   3.942309   4.627899   3.210690   2.953695
    27  H    5.333804   5.426076   5.914816   4.190589   3.772931
    28  O    5.869991   5.523649   6.152992   2.743980   1.768068
    29  H    5.562871   5.290667   5.982576   3.037114   2.199994
    30  H    6.087565   5.574840   6.432246   3.194750   2.254653
                   16         17         18         19         20
    16  H    0.000000
    17  O    5.010116   0.000000
    18  H    5.706836   0.968544   0.000000
    19  O    2.521180   5.817395   6.279354   0.000000
    20  H    2.635386   5.953618   6.335641   0.971668   0.000000
    21  O    2.085631   4.325999   4.726674   2.859526   2.415994
    22  H    2.259331   4.716820   5.146154   3.600308   3.102403
    23  O    2.270935   4.102418   5.005028   4.441489   4.727541
    24  H    3.234186   3.949709   4.888835   5.344017   5.642479
    25  O    4.841261   5.819582   6.676777   5.472372   6.303580
    26  H    4.227893   4.889401   5.733619   4.840984   5.630812
    27  H    4.441281   6.120139   7.023690   5.368567   6.153771
    28  O    5.665820   7.111468   7.772563   5.013098   5.981739
    29  H    5.337631   6.692563   7.431835   5.144834   6.089348
    30  H    6.456807   7.308090   7.914338   5.739070   6.697900
                   21         22         23         24         25
    21  O    0.000000
    22  H    0.969821   0.000000
    23  O    3.459502   3.440489   0.000000
    24  H    4.212719   4.145764   0.970658   0.000000
    25  O    6.328829   6.758066   3.923340   3.990047   0.000000
    26  H    5.513448   5.993806   3.335555   3.454416   0.986838
    27  H    6.143087   6.462484   3.522549   3.647684   0.969461
    28  O    6.952407   7.622257   5.781729   6.176076   2.747784
    29  H    6.749474   7.339532   5.122949   5.423580   1.780051
    30  H    7.605624   8.315280   6.427898   6.732744   3.153399
                   26         27         28         29         30
    26  H    0.000000
    27  H    1.542946   0.000000
    28  O    2.925920   3.245570   0.000000
    29  H    2.120910   2.314855   0.990146   0.000000
    30  H    3.334429   3.832477   0.969093   1.547586   0.000000
 Symmetry turned off by external request.
 Stoichiometry    C6H16O8
 Framework group  C1[X(C6H16O8)]
 Deg. of freedom    84
 Full point group                 C1      NOp   1
 Rotational constants (GHZ):      0.7089194      0.4636201      0.3832995
 Standard basis: 6-31G(d) (6D, 7F)
   242 basis functions,   456 primitive gaussians,   242 cartesian basis functions
    58 alpha electrons       58 beta electrons
       nuclear repulsion energy      1097.1276528505 Hartrees.
 NAtoms=   30 NActive=   30 NUniq=   30 SFac= 1.00D+00 NAtFMM=   60 NAOKFM=F Big=F
 Integral buffers will be    131072 words long.
 Raffenetti 2 integral format.
 Two-electron integral symmetry is turned off.
 One-electron integrals computed using PRISM.
 NBasis=   242 RedAO= T EigKep=  1.30D-03  NBF=   242
 NBsUse=   242 1.00D-06 EigRej= -1.00D+00 NBFU=   242
 ExpMin= 1.61D-01 ExpMax= 5.48D+03 ExpMxC= 8.25D+02 IAcc=1 IRadAn=         1 AccDes= 0.00D+00
 Harris functional with IExCor=  402 and IRadAn=       1 diagonalized for initial guess.
 HarFok:  IExCor=  402 AccDes= 0.00D+00 IRadAn=         1 IDoV= 1 UseB2=F ITyADJ=14
 ICtDFT=  3500011 ScaDFX=  1.000000  1.000000  1.000000  1.000000
 FoFCou: FMM=F IPFlag=           0 FMFlag=      100000 FMFlg1=           0
         NFxFlg=           0 DoJE=T BraDBF=F KetDBF=T FulRan=T
         wScrn=  0.000000 ICntrl=     500 IOpCl=  0 I1Cent=   200000004 NGrid=           0
         NMat0=    1 NMatS0=      1 NMatT0=    0 NMatD0=    1 NMtDS0=    0 NMtDT0=    0
 Symmetry not used in FoFCou.
 Requested convergence on RMS density matrix=1.00D-08 within 128 cycles.
 Requested convergence on MAX density matrix=1.00D-06.
 Requested convergence on             energy=1.00D-06.
 No special actions if energy rises.
 Integral accuracy reduced to 1.0D-05 until final iterations.
 Initial convergence to 1.0D-05 achieved.  Increase integral accuracy.
 SCF Done:  E(RB3LYP) =  -839.983652580     A.U. after   14 cycles
            NFock= 14  Conv=0.38D-08     -V/T= 2.0085
 DoSCS=F DFT=T ScalE2(SS,OS)=  1.000000  1.000000
 Range of M.O.s used for correlation:     1   242
 NBasis=   242 NAE=    58 NBE=    58 NFC=     0 NFV=     0
 NROrb=    242 NOA=    58 NOB=    58 NVA=   184 NVB=   184
 Symmetrizing basis deriv contribution to polar:
 IMax=3 JMax=2 DiffMx= 0.00D+00
 G2DrvN: will do    31 centers at a time, making    1 passes.
 Calling FoFCou, ICntrl=  3107 FMM=F I1Cent=   0 AccDes= 0.00D+00.
 End of G2Drv F.D. properties file   721 does not exist.
 End of G2Drv F.D. properties file   722 does not exist.
 End of G2Drv F.D. properties file   788 does not exist.
          IDoAtm=111111111111111111111111111111
          Differentiating once with respect to nuclear coordinates.
          There are    93 degrees of freedom in the 1st order CPHF.  IDoFFX=6 NUNeed=     0.
     87 vectors produced by pass  0 Test12= 1.15D-14 1.08D-09 XBig12= 1.24D-01 6.48D-02.
 AX will form    87 AO Fock derivatives at one time.
     87 vectors produced by pass  1 Test12= 1.15D-14 1.08D-09 XBig12= 1.76D-02 1.40D-02.
     87 vectors produced by pass  2 Test12= 1.15D-14 1.08D-09 XBig12= 1.06D-04 1.99D-03.
     87 vectors produced by pass  3 Test12= 1.15D-14 1.08D-09 XBig12= 2.11D-07 4.77D-05.
     87 vectors produced by pass  4 Test12= 1.15D-14 1.08D-09 XBig12= 3.16D-10 1.91D-06.
     62 vectors produced by pass  5 Test12= 1.15D-14 1.08D-09 XBig12= 2.78D-13 4.55D-08.
      4 vectors produced by pass  6 Test12= 1.15D-14 1.08D-09 XBig12= 2.22D-16 1.30D-09.
 InvSVY:  IOpt=1 It=  1 EMax= 5.55D-16
 Solved reduced A of dimension   501 with    93 vectors.
 End of Minotr F.D. properties file   721 does not exist.
 End of Minotr F.D. properties file   722 does not exist.
 End of Minotr F.D. properties file   788 does not exist.

 **********************************************************************

            Population analysis using the SCF density.

 **********************************************************************

 Alpha  occ. eigenvalues --  -19.16462 -19.16304 -19.16161 -19.15884 -19.14901
 Alpha  occ. eigenvalues --  -19.14049 -19.13766 -19.12544 -10.28181 -10.25036
 Alpha  occ. eigenvalues --  -10.24721 -10.24449 -10.24041 -10.23596  -1.06280
 Alpha  occ. eigenvalues --   -1.04059  -1.03229  -1.02863  -1.01221  -1.00766
 Alpha  occ. eigenvalues --   -0.99788  -0.98506  -0.78667  -0.76604  -0.69571
 Alpha  occ. eigenvalues --   -0.64454  -0.63041  -0.56428  -0.56207  -0.53568
 Alpha  occ. eigenvalues --   -0.52921  -0.52221  -0.51418  -0.50825  -0.50122
 Alpha  occ. eigenvalues --   -0.47161  -0.46483  -0.45037  -0.44207  -0.43206
 Alpha  occ. eigenvalues --   -0.41855  -0.40116  -0.39632  -0.37916  -0.37131
 Alpha  occ. eigenvalues --   -0.35911  -0.35479  -0.34085  -0.33794  -0.32362
 Alpha  occ. eigenvalues --   -0.30731  -0.29700  -0.29012  -0.28686  -0.28136
 Alpha  occ. eigenvalues --   -0.26986  -0.26665  -0.26062
 Alpha virt. eigenvalues --    0.04457   0.05868   0.05967   0.07087   0.09272
 Alpha virt. eigenvalues --    0.10081   0.10403   0.11005   0.13042   0.13551
 Alpha virt. eigenvalues --    0.15698   0.16413   0.16822   0.17698   0.19717
 Alpha virt. eigenvalues --    0.20087   0.21057   0.22364   0.22808   0.23652
 Alpha virt. eigenvalues --    0.25786   0.26055   0.26360   0.30113   0.30945
 Alpha virt. eigenvalues --    0.31710   0.33581   0.35390   0.51933   0.52575
 Alpha virt. eigenvalues --    0.54851   0.55587   0.56989   0.58093   0.59921
 Alpha virt. eigenvalues --    0.62762   0.64608   0.64776   0.65377   0.65910
 Alpha virt. eigenvalues --    0.68859   0.71638   0.73245   0.74473   0.75320
 Alpha virt. eigenvalues --    0.76781   0.78142   0.79332   0.79662   0.80537
 Alpha virt. eigenvalues --    0.82094   0.82712   0.84156   0.84790   0.85059
 Alpha virt. eigenvalues --    0.85963   0.86639   0.87497   0.89411   0.90576
 Alpha virt. eigenvalues --    0.91180   0.92585   0.94105   0.95142   0.96826
 Alpha virt. eigenvalues --    0.97973   0.98644   0.99370   1.00437   1.01455
 Alpha virt. eigenvalues --    1.02645   1.04163   1.05129   1.06108   1.06958
 Alpha virt. eigenvalues --    1.08271   1.10025   1.10957   1.12127   1.13307
 Alpha virt. eigenvalues --    1.14928   1.17937   1.22412   1.23313   1.25056
 Alpha virt. eigenvalues --    1.29063   1.33502   1.34044   1.35864   1.37481
 Alpha virt. eigenvalues --    1.38861   1.39658   1.40651   1.44573   1.51985
 Alpha virt. eigenvalues --    1.53382   1.53776   1.55010   1.56941   1.60594
 Alpha virt. eigenvalues --    1.61562   1.64888   1.67284   1.70019   1.70403
 Alpha virt. eigenvalues --    1.71800   1.72387   1.72614   1.73153   1.74387
 Alpha virt. eigenvalues --    1.75850   1.76738   1.77309   1.79528   1.81050
 Alpha virt. eigenvalues --    1.82656   1.83264   1.83888   1.86575   1.87156
 Alpha virt. eigenvalues --    1.87542   1.89513   1.91904   1.92868   1.95220
 Alpha virt. eigenvalues --    1.97804   1.98770   2.01737   2.04006   2.05459
 Alpha virt. eigenvalues --    2.07514   2.08695   2.11583   2.12114   2.15352
 Alpha virt. eigenvalues --    2.17412   2.18310   2.25962   2.28809   2.30305
 Alpha virt. eigenvalues --    2.32817   2.34144   2.36287   2.37969   2.40618
 Alpha virt. eigenvalues --    2.41710   2.41964   2.47174   2.48987   2.50525
 Alpha virt. eigenvalues --    2.50919   2.52416   2.54743   2.56904   2.59127
 Alpha virt. eigenvalues --    2.62149   2.63874   2.65271   2.67494   2.71590
 Alpha virt. eigenvalues --    2.72851   2.74071   2.81097   2.88682   2.90655
 Alpha virt. eigenvalues --    2.94853   2.98907   3.02269   3.03365   3.09631
 Alpha virt. eigenvalues --    3.72050   3.74149   3.77370   3.79911   3.85493
 Alpha virt. eigenvalues --    3.94503   3.97960   4.12032   4.33064   4.37646
 Alpha virt. eigenvalues --    4.40799   4.56436   4.63263   4.82189
          Condensed to atoms (all electrons):
               1          2          3          4          5          6
     1  H    0.621307   0.365724   0.004586   0.002922  -0.000246  -0.038445
     2  C    0.365724   4.941511  -0.031536  -0.020575   0.002569   0.204968
     3  C    0.004586  -0.031536   5.063493  -0.027634   0.311245  -0.007169
     4  C    0.002922  -0.020575  -0.027634   4.693131   0.309157   0.143724
     5  C   -0.000246   0.002569   0.311245   0.309157   4.972059  -0.026914
     6  O   -0.038445   0.204968  -0.007169   0.143724  -0.026914   8.421849
     7  C   -0.044198   0.299800   0.242580  -0.013141  -0.033983  -0.032594
     8  H   -0.000095   0.001894  -0.006555   0.357830  -0.053460  -0.057842
     9  H   -0.000006   0.000960  -0.052082  -0.039992   0.336277  -0.000486
    10  H   -0.001208  -0.050215  -0.042567   0.000611   0.001341   0.003023
    11  C   -0.058182   0.302912  -0.004596   0.000010  -0.002474  -0.042984
    12  H   -0.006609  -0.031981  -0.000127   0.000144   0.000008   0.005712
    13  H    0.006849  -0.033833   0.002623   0.000530  -0.002701   0.001930
    14  O   -0.000151   0.003111   0.003211   0.295354  -0.044923  -0.061691
    15  H    0.000003  -0.000213  -0.000161  -0.018988   0.005211   0.002677
    16  H   -0.000301   0.004010   0.343074  -0.006307  -0.031427   0.000151
    17  O    0.008207  -0.046279   0.000215  -0.000010   0.000054   0.001146
    18  H   -0.000320   0.004995  -0.000020   0.000001   0.000002  -0.000102
    19  O    0.000002  -0.000022  -0.036646  -0.038867   0.231310   0.001060
    20  H    0.000000  -0.000053  -0.007002   0.007329  -0.032358  -0.000081
    21  O   -0.000081   0.002063   0.212036   0.002489  -0.044883   0.000000
    22  H    0.000007   0.000009  -0.021111  -0.000243   0.006229   0.000005
    23  O   -0.003945  -0.031175  -0.035769   0.002959   0.000059   0.000193
    24  H    0.006898  -0.003716   0.006606   0.000009  -0.000288  -0.000157
    25  O    0.001005   0.000814  -0.000006   0.003211   0.000084  -0.025638
    26  H   -0.002825  -0.001618  -0.000021  -0.003307   0.000665   0.062927
    27  H   -0.000051   0.000103  -0.000001   0.000079  -0.000009   0.000933
    28  O    0.000000  -0.000002   0.000000   0.003843   0.000071  -0.000499
    29  H   -0.000005  -0.000021  -0.000003   0.001035   0.000063   0.000365
    30  H   -0.000000   0.000001  -0.000000  -0.000028   0.000001   0.000025
               7          8          9         10         11         12
     1  H   -0.044198  -0.000095  -0.000006  -0.001208  -0.058182  -0.006609
     2  C    0.299800   0.001894   0.000960  -0.050215   0.302912  -0.031981
     3  C    0.242580  -0.006555  -0.052082  -0.042567  -0.004596  -0.000127
     4  C   -0.013141   0.357830  -0.039992   0.000611   0.000010   0.000144
     5  C   -0.033983  -0.053460   0.336277   0.001341  -0.002474   0.000008
     6  O   -0.032594  -0.057842  -0.000486   0.003023  -0.042984   0.005712
     7  C    5.105422   0.000500  -0.000006   0.349706  -0.042704   0.005781
     8  H    0.000500   0.675880   0.007977   0.000013  -0.000296   0.000048
     9  H   -0.000006   0.007977   0.636684  -0.000130  -0.002602   0.000346
    10  H    0.349706   0.000013  -0.000130   0.604140   0.002753   0.000437
    11  C   -0.042704  -0.000296  -0.002602   0.002753   5.007307   0.351192
    12  H    0.005781   0.000048   0.000346   0.000437   0.351192   0.611621
    13  H   -0.011646   0.000028   0.008536  -0.000014   0.359968  -0.050409
    14  O   -0.000201  -0.050387  -0.000356   0.000005   0.000550   0.000062
    15  H    0.000028  -0.005992  -0.000213  -0.000000  -0.000014   0.000011
    16  H   -0.056608   0.005850   0.007312   0.003939  -0.000039   0.000008
    17  O    0.000449   0.000002   0.000034   0.011134   0.209066  -0.032807
    18  H    0.000091  -0.000000  -0.000021  -0.000275  -0.018292  -0.002679
    19  O    0.004787   0.002323  -0.036487  -0.000061   0.000027  -0.000004
    20  H    0.000690  -0.000461  -0.003307  -0.000020   0.000002  -0.000000
    21  O   -0.039502  -0.000089  -0.002073   0.003146   0.000285   0.000012
    22  H   -0.001237   0.000008  -0.000133   0.002542  -0.000019  -0.000001
    23  O    0.188701   0.000687  -0.000071  -0.032003   0.003842  -0.000076
    24  H   -0.022867  -0.000015   0.000013  -0.004800  -0.000189  -0.000004
    25  O   -0.000116   0.005855  -0.000000  -0.000000  -0.000022  -0.000002
    26  H   -0.000083  -0.004318  -0.000018  -0.000001   0.000823   0.000032
    27  H   -0.000099   0.001419   0.000000   0.000003   0.000008  -0.000000
    28  O    0.000000   0.001375   0.000000   0.000000   0.000000  -0.000000
    29  H    0.000006  -0.000354  -0.000001  -0.000000  -0.000002   0.000000
    30  H    0.000000  -0.000069   0.000000  -0.000000  -0.000000   0.000000
              13         14         15         16         17         18
     1  H    0.006849  -0.000151   0.000003  -0.000301   0.008207  -0.000320
     2  C   -0.033833   0.003111  -0.000213   0.004010  -0.046279   0.004995
     3  C    0.002623   0.003211  -0.000161   0.343074   0.000215  -0.000020
     4  C    0.000530   0.295354  -0.018988  -0.006307  -0.000010   0.000001
     5  C   -0.002701  -0.044923   0.005211  -0.031427   0.000054   0.000002
     6  O    0.001930  -0.061691   0.002677   0.000151   0.001146  -0.000102
     7  C   -0.011646  -0.000201   0.000028  -0.056608   0.000449   0.000091
     8  H    0.000028  -0.050387  -0.005992   0.005850   0.000002  -0.000000
     9  H    0.008536  -0.000356  -0.000213   0.007312   0.000034  -0.000021
    10  H   -0.000014   0.000005  -0.000000   0.003939   0.011134  -0.000275
    11  C    0.359968   0.000550  -0.000014  -0.000039   0.209066  -0.018292
    12  H   -0.050409   0.000062   0.000011   0.000008  -0.032807  -0.002679
    13  H    0.611527  -0.000141  -0.000002   0.000043  -0.033785  -0.004936
    14  O   -0.000141   8.304954   0.202841  -0.000107   0.000000  -0.000000
    15  H   -0.000002   0.202841   0.306392   0.000000  -0.000000   0.000000
    16  H    0.000043  -0.000107   0.000000   0.606940  -0.000004   0.000000
    17  O   -0.033785   0.000000  -0.000000  -0.000004   8.275405   0.233817
    18  H   -0.004936  -0.000000   0.000000   0.000000   0.233817   0.385851
    19  O    0.000019   0.002640  -0.000161   0.001854  -0.000000  -0.000000
    20  H   -0.000008  -0.000075   0.000026  -0.000973  -0.000000  -0.000000
    21  O    0.001514  -0.000010   0.000001  -0.034826  -0.000016   0.000002
    22  H   -0.000020   0.000001  -0.000000  -0.005995  -0.000004   0.000000
    23  O    0.000028   0.000006   0.000000   0.005503  -0.000025   0.000003
    24  H    0.000015  -0.000000   0.000000  -0.000032   0.000028  -0.000001
    25  O    0.000000  -0.000376   0.000283  -0.000001   0.000000  -0.000000
    26  H   -0.000018   0.001014   0.000357  -0.000002  -0.000007   0.000000
    27  H   -0.000000   0.000010  -0.000041   0.000005  -0.000000   0.000000
    28  O   -0.000000  -0.029307   0.079861  -0.000000   0.000000  -0.000000
    29  H    0.000000   0.002284  -0.005714  -0.000000   0.000000  -0.000000
    30  H    0.000000   0.001683  -0.004070   0.000000   0.000000  -0.000000
              19         20         21         22         23         24
     1  H    0.000002   0.000000  -0.000081   0.000007  -0.003945   0.006898
     2  C   -0.000022  -0.000053   0.002063   0.000009  -0.031175  -0.003716
     3  C   -0.036646  -0.007002   0.212036  -0.021111  -0.035769   0.006606
     4  C   -0.038867   0.007329   0.002489  -0.000243   0.002959   0.000009
     5  C    0.231310  -0.032358  -0.044883   0.006229   0.000059  -0.000288
     6  O    0.001060  -0.000081   0.000000   0.000005   0.000193  -0.000157
     7  C    0.004787   0.000690  -0.039502  -0.001237   0.188701  -0.022867
     8  H    0.002323  -0.000461  -0.000089   0.000008   0.000687  -0.000015
     9  H   -0.036487  -0.003307  -0.002073  -0.000133  -0.000071   0.000013
    10  H   -0.000061  -0.000020   0.003146   0.002542  -0.032003  -0.004800
    11  C    0.000027   0.000002   0.000285  -0.000019   0.003842  -0.000189
    12  H   -0.000004  -0.000000   0.000012  -0.000001  -0.000076  -0.000004
    13  H    0.000019  -0.000008   0.001514  -0.000020   0.000028   0.000015
    14  O    0.002640  -0.000075  -0.000010   0.000001   0.000006  -0.000000
    15  H   -0.000161   0.000026   0.000001  -0.000000   0.000000   0.000000
    16  H    0.001854  -0.000973  -0.034826  -0.005995   0.005503  -0.000032
    17  O   -0.000000  -0.000000  -0.000016  -0.000004  -0.000025   0.000028
    18  H   -0.000000  -0.000000   0.000002   0.000000   0.000003  -0.000001
    19  O    8.266814   0.235233  -0.003346  -0.000058  -0.000020   0.000002
    20  H    0.235233   0.382978   0.017538  -0.000896  -0.000008   0.000001
    21  O   -0.003346   0.017538   8.298584   0.232401   0.001086  -0.000147
    22  H   -0.000058  -0.000896   0.232401   0.387442   0.000094  -0.000043
    23  O   -0.000020  -0.000008   0.001086   0.000094   8.316147   0.229663
    24  H    0.000002   0.000001  -0.000147  -0.000043   0.229663   0.393611
    25  O    0.000000  -0.000000  -0.000000   0.000000  -0.000199   0.000076
    26  H   -0.000007   0.000001   0.000000  -0.000000   0.001499  -0.000061
    27  H   -0.000000   0.000000   0.000000   0.000000   0.000974  -0.000004
    28  O   -0.000000  -0.000000  -0.000000   0.000000   0.000000   0.000000
    29  H   -0.000001   0.000000   0.000000  -0.000000  -0.000002  -0.000000
    30  H   -0.000000   0.000000   0.000000  -0.000000   0.000000  -0.000000
              25         26         27         28         29         30
     1  H    0.001005  -0.002825  -0.000051   0.000000  -0.000005  -0.000000
     2  C    0.000814  -0.001618   0.000103  -0.000002  -0.000021   0.000001
     3  C   -0.000006  -0.000021  -0.000001   0.000000  -0.000003  -0.000000
     4  C    0.003211  -0.003307   0.000079   0.003843   0.001035  -0.000028
     5  C    0.000084   0.000665  -0.000009   0.000071   0.000063   0.000001
     6  O   -0.025638   0.062927   0.000933  -0.000499   0.000365   0.000025
     7  C   -0.000116  -0.000083  -0.000099   0.000000   0.000006   0.000000
     8  H    0.005855  -0.004318   0.001419   0.001375  -0.000354  -0.000069
     9  H   -0.000000  -0.000018   0.000000   0.000000  -0.000001   0.000000
    10  H   -0.000000  -0.000001   0.000003   0.000000  -0.000000  -0.000000
    11  C   -0.000022   0.000823   0.000008   0.000000  -0.000002  -0.000000
    12  H   -0.000002   0.000032  -0.000000  -0.000000   0.000000   0.000000
    13  H    0.000000  -0.000018  -0.000000  -0.000000   0.000000   0.000000
    14  O   -0.000376   0.001014   0.000010  -0.029307   0.002284   0.001683
    15  H    0.000283   0.000357  -0.000041   0.079861  -0.005714  -0.004070
    16  H   -0.000001  -0.000002   0.000005  -0.000000  -0.000000   0.000000
    17  O    0.000000  -0.000007  -0.000000   0.000000   0.000000   0.000000
    18  H   -0.000000   0.000000   0.000000  -0.000000  -0.000000  -0.000000
    19  O    0.000000  -0.000007  -0.000000  -0.000000  -0.000001  -0.000000
    20  H   -0.000000   0.000001   0.000000  -0.000000   0.000000   0.000000
    21  O   -0.000000   0.000000   0.000000  -0.000000   0.000000   0.000000
    22  H    0.000000  -0.000000   0.000000   0.000000  -0.000000  -0.000000
    23  O   -0.000199   0.001499   0.000974   0.000000  -0.000002   0.000000
    24  H    0.000076  -0.000061  -0.000004   0.000000  -0.000000  -0.000000
    25  O    8.336343   0.206196   0.243006  -0.027812   0.076555   0.001118
    26  H    0.206196   0.315835  -0.017121   0.003891  -0.006854  -0.000008
    27  H    0.243006  -0.017121   0.374549   0.001416  -0.004191  -0.000031
    28  O   -0.027812   0.003891   0.001416   8.343529   0.203185   0.239928
    29  H    0.076555  -0.006854  -0.004191   0.203185   0.317950  -0.014790
    30  H    0.001118  -0.000008  -0.000031   0.239928  -0.014790   0.381240
 Mulliken charges:
               1
     1  H    0.139156
     2  C    0.115793
     3  C    0.083339
     4  C    0.344722
     5  C    0.097261
     6  O   -0.556088
     7  C    0.100442
     8  H    0.118241
     9  H    0.139848
    10  H    0.148501
    11  C   -0.066332
    12  H    0.149285
    13  H    0.143902
    14  O   -0.630004
    15  H    0.437879
    16  H    0.157932
    17  O   -0.626622
    18  H    0.401887
    19  O   -0.630392
    20  H    0.401444
    21  O   -0.646183
    22  H    0.401022
    23  O   -0.648152
    24  H    0.395403
    25  O   -0.820372
    26  H    0.443027
    27  H    0.399045
    28  O   -0.819479
    29  H    0.430494
    30  H    0.395001
 Sum of Mulliken charges =  -0.00000
 Mulliken charges with hydrogens summed into heavy atoms:
               1
     2  C    0.254949
     3  C    0.241272
     4  C    0.462963
     5  C    0.237109
     6  O   -0.556088
     7  C    0.248943
    11  C    0.226855
    14  O   -0.192124
    17  O   -0.224735
    19  O   -0.228948
    21  O   -0.245161
    23  O   -0.252749
    25  O    0.021699
    28  O    0.006016
 APT charges:
               1
     1  H    0.438602
     2  C   -0.361055
     3  C   -0.167547
     4  C   -0.218752
     5  C   -0.176585
     6  O   -0.397683
     7  C   -0.357107
     8  H    0.312310
     9  H    0.335224
    10  H    0.480642
    11  C   -0.419211
    12  H    0.399114
    13  H    0.305136
    14  O   -0.631829
    15  H    0.605308
    16  H    0.373396
    17  O   -1.086607
    18  H    0.916481
    19  O   -0.881891
    20  H    0.740177
    21  O   -0.986995
    22  H    0.816685
    23  O   -0.852291
    24  H    0.722210
    25  O   -0.696205
    26  H    0.175738
    27  H    0.566469
    28  O   -1.062077
    29  H    0.271209
    30  H    0.837134
 Sum of APT charges =  -0.00000
 APT charges with hydrogens summed into heavy atoms:
               1
     2  C    0.077547
     3  C    0.205849
     4  C    0.093557
     5  C    0.158639
     6  O   -0.397683
     7  C    0.123535
    11  C    0.285039
    14  O   -0.026521
    17  O   -0.170126
    19  O   -0.141713
    21  O   -0.170310
    23  O   -0.130081
    25  O    0.046002
    28  O    0.046267
 Electronic spatial extent (au):  <R**2>=           3251.9912
 Charge=              0.0000 electrons
 Dipole moment (field-independent basis, Debye):
    X=             -3.9424    Y=             -2.3284    Z=              0.8927  Tot=              4.6649
 Quadrupole moment (field-independent basis, Debye-Ang):
   XX=            -78.4447   YY=            -87.1283   ZZ=            -75.2983
   XY=             -5.9930   XZ=             -0.1299   YZ=              4.8712
 Traceless Quadrupole moment (field-independent basis, Debye-Ang):
   XX=              1.8457   YY=             -6.8379   ZZ=              4.9921
   XY=             -5.9930   XZ=             -0.1299   YZ=              4.8712
 Octapole moment (field-independent basis, Debye-Ang**2):
  XXX=            -11.1672  YYY=              6.2962  ZZZ=             -0.9932  XYY=            -23.2884
  XXY=            -14.9369  XXZ=            -17.4288  XZZ=             -7.5384  YZZ=            -20.7492
  YYZ=              8.3367  XYZ=             -2.7448
 Hexadecapole moment (field-independent basis, Debye-Ang**3):
 XXXX=          -1820.7426 YYYY=          -1135.4112 ZZZZ=           -593.5556 XXXY=            -89.4306
 XXXZ=           -109.2763 YYYX=            -43.9370 YYYZ=              1.6603 ZZZX=             62.4606
 ZZZY=              6.2266 XXYY=           -528.5682 XXZZ=           -309.4390 YYZZ=           -249.0998
 XXYZ=             86.2683 YYXZ=            -15.3655 ZZXY=             15.7609
 N-N= 1.097127652850D+03 E-N=-4.167093968861D+03  KE= 8.329046267060D+02
  Exact polarizability:   0.000   0.000   0.000   0.000   0.000   0.000
 Approx polarizability: 131.594   2.508 126.143  -0.437  -4.839 124.997
 Calling FoFJK, ICntrl=    100147 FMM=F ISym2X=0 I1Cent= 0 IOpClX= 0 NMat=1 NMatS=1 NMatT=0.
 -------------------------------------------------------------------
 Center     Atomic                   Forces (Hartrees/Bohr)
 Number     Number              X              Y              Z
 -------------------------------------------------------------------
      1        1           0.000001436    0.000001641   -0.000000818
      2        6          -0.000000395   -0.000003276   -0.000005393
      3        6           0.000004786    0.000000405   -0.000000912
      4        6           0.000000303   -0.000000529   -0.000004990
      5        6          -0.000005747   -0.000000867   -0.000002204
      6        8           0.000001293    0.000003136    0.000000174
      7        6          -0.000002038   -0.000000163    0.000003231
      8        1           0.000001440    0.000000377   -0.000002100
      9        1           0.000000765    0.000000166    0.000002103
     10        1           0.000000938   -0.000001168   -0.000000488
     11        6           0.000006316   -0.000006209    0.000003222
     12        1          -0.000004021    0.000001892    0.000004418
     13        1          -0.000002139    0.000000793    0.000000348
     14        8           0.000001377   -0.000002309    0.000005557
     15        1          -0.000006209    0.000002426   -0.000003090
     16        1           0.000001034   -0.000000045    0.000002715
     17        8           0.000002950    0.000000647    0.000002685
     18        1          -0.000001705   -0.000001382    0.000000069
     19        8           0.000003620   -0.000002691    0.000000137
     20        1          -0.000006806    0.000002440    0.000000801
     21        8          -0.000001498    0.000000174   -0.000003461
     22        1          -0.000003719   -0.000000975    0.000006282
     23        8           0.000003492   -0.000007395    0.000004651
     24        1           0.000002430    0.000005169   -0.000000261
     25        8          -0.000003237    0.000006746    0.000001057
     26        1           0.000005614    0.000000092    0.000002519
     27        1           0.000001774   -0.000001902   -0.000008172
     28        8           0.000005293   -0.000014722   -0.000009235
     29        1           0.000003804    0.000004099   -0.000011531
     30        1          -0.000011151    0.000013432    0.000012684
 -------------------------------------------------------------------
 Cartesian Forces:  Max     0.000014722 RMS     0.000004497
 IRC-IRC-IRC-IRC-IRC-IRC-IRC-IRC-IRC-IRC-IRC-IRC-IRC-IRC-IRC-IRC-IRC-IRC
          ******** Start new reaction path calculation ********
 Supplied step size of   0.1000 bohr.
    Integration on MW PES will use step size of   0.2321 sqrt(amu)*bohr.
 Point Number:   0          Path Number:   1
 Calculating another point on the path.
 IRC-IRC-IRC-IRC-IRC-IRC-IRC-IRC-IRC-IRC-IRC-IRC-IRC-IRC-IRC-IRC-IRC-IRC
                          Input orientation:                          
 ---------------------------------------------------------------------
 Center     Atomic      Atomic             Coordinates (Angstroms)
 Number     Number       Type             X           Y           Z
 ---------------------------------------------------------------------
      1          1           0       -0.591958   -2.280575    0.199418
      2          6           0       -0.701308   -1.247680   -0.158250
      3          6           0       -1.341133    1.070400    0.726769
      4          6           0        0.940263    0.669542   -0.267295
      5          6           0       -0.337486    1.494338   -0.348303
      6          8           0        0.636958   -0.769076   -0.312642
      7          6           0       -1.481130   -0.459449    0.900775
      8          1           0        1.423827    0.839340    0.705716
      9          1           0       -0.777510    1.339853   -1.344044
     10          1           0       -2.541631   -0.735004    0.817979
     11          6           0       -1.432852   -1.365647   -1.503000
     12          1           0       -0.718137   -1.749444   -2.244434
     13          1           0       -1.802046   -0.392846   -1.853152
     14          8           0        1.773558    0.976934   -1.308066
     15          1           0        2.692837    0.719818   -1.040029
     16          1           0       -0.969023    1.459907    1.683871
     17          8           0       -2.513524   -2.269720   -1.281356
     18          1           0       -3.065101   -2.279986   -2.077448
     19          8           0        0.003798    2.857676   -0.173035
     20          1           0       -0.842799    3.334399   -0.162910
     21          8           0       -2.566363    1.716427    0.367380
     22          1           0       -3.149164    1.708608    1.142538
     23          8           0       -0.977844   -0.749744    2.211463
     24          1           0       -1.113948   -1.696779    2.375267
     25          8           0        2.684792   -1.688127    1.259892
     26          1           0        1.883079   -1.512959    0.711703
     27          1           0        2.465565   -1.310967    2.125723
     28          8           0        4.146872    0.036579   -0.302322
     29          1           0        3.766877   -0.611964    0.342138
     30          1           0        4.577455   -0.515222   -0.972594
 ---------------------------------------------------------------------
                    Distance matrix (angstroms):
                    1          2          3          4          5
     1  H    0.000000
     2  C    1.098524   0.000000
     3  C    3.473959   2.562446   0.000000
     4  C    3.356890   2.526339   2.520639   0.000000
     5  C    3.822920   2.772571   1.530624   1.522988   0.000000
     6  O    2.014216   1.429634   2.894286   1.470943   2.464519
     7  C    2.144534   1.533286   1.546064   2.915846   2.585614
     8  H    3.748812   3.101336   2.774677   1.099734   2.154576
     9  H    3.940076   2.847322   2.162993   2.135287   1.099539
    10  H    2.563714   2.145379   2.170023   3.908217   3.344912
    11  C    2.107706   1.535391   3.303726   3.361642   3.273021
    12  H    2.504084   2.145743   4.143391   3.537070   3.776550
    13  H    3.039881   2.194324   3.001586   3.341237   2.823290
    14  O    4.298782   3.520787   3.721637   1.368237   2.375996
    15  H    4.618275   4.021045   4.417850   1.916027   3.203314
    16  H    4.041903   3.285744   1.098284   2.842024   2.128322
    17  O    2.425949   2.364331   4.069824   4.647174   4.446781
    18  H    3.361630   3.215041   4.696890   5.293327   4.967429
    19  O    5.186064   4.165494   2.410983   2.381970   1.416292
    20  H    5.632241   4.584266   2.483054   3.208064   1.917169
    21  O    4.461223   3.541278   1.430979   3.714190   2.351472
    22  H    4.831393   4.052615   1.961925   4.448674   3.189679
    23  O    2.557474   2.437202   2.376809   3.440604   3.463865
    24  H    2.312490   2.605892   3.228999   4.099072   4.266609
    25  O    3.494666   3.697404   4.909355   3.306704   4.674242
    26  H    2.641491   2.739753   4.131526   2.571118   3.885660
    27  H    3.741555   3.905077   4.703077   3.460563   4.674145
    28  O    5.298816   5.017462   5.678557   3.268671   4.715574
    29  H    4.669483   4.540837   5.391665   3.162817   4.664655
    30  H    5.586851   5.391195   6.358593   3.889765   5.346467
                    6          7          8          9         10
     6  O    0.000000
     7  C    2.460599   0.000000
     8  H    2.059907   3.188052   0.000000
     9  H    2.740819   2.961719   3.049247   0.000000
    10  H    3.373854   1.098840   4.268023   3.477283   0.000000
    11  C    2.461090   2.569370   4.230958   2.788274   2.648404
    12  H    2.555235   3.484048   4.471375   3.218383   3.705751
    13  H    2.909202   2.773362   4.297945   2.076321   2.792668
    14  O    2.308956   4.187501   2.048551   2.577004   5.106041
    15  H    2.640557   4.751778   2.161550   3.538386   5.741808
    16  H    3.396116   2.135280   2.658499   3.036340   2.835578
    17  O    3.621585   3.017385   5.396058   4.005832   2.600644
    18  H    4.370655   3.833162   6.134057   4.344443   3.323324
    19  O    3.684252   3.789643   2.619612   2.070143   4.513166
    20  H    4.364701   3.991513   3.481009   2.318956   4.517546
    21  O    4.111134   2.489313   4.099435   2.504151   2.492623
    22  H    4.753018   2.746135   4.675327   3.455982   2.538833
    23  O    2.996509   1.433691   3.249690   4.128944   2.094623
    24  H    3.339335   1.959575   3.957221   4.813273   2.321301
    25  O    2.740647   4.358156   2.878409   5.285517   5.330969
    26  H    1.776362   3.530373   2.396718   4.409463   4.493837
    27  H    3.095654   4.219240   2.779471   5.439087   5.207105
    28  O    3.601206   5.776495   3.012564   5.199351   6.825429
    29  H    3.201533   5.279859   2.779992   5.225347   6.327625
    30  H    4.003435   6.341851   3.820593   5.679342   7.344102
                   11         12         13         14         15
    11  C    0.000000
    12  H    1.099019   0.000000
    13  H    1.097840   1.779977   0.000000
    14  O    3.975770   3.810310   3.867603   0.000000
    15  H    4.645947   4.379794   4.701400   0.991477   0.000000
    16  H    4.284278   5.078825   4.078866   4.087383   4.623482
    17  O    1.426298   2.102766   2.087058   5.377783   6.008476
    18  H    1.957100   2.411970   2.281867   5.883204   6.574870
    19  O    4.655022   5.102690   4.080411   2.820911   3.543028
    20  H    4.922849   5.494884   4.203502   3.703289   4.483982
    21  O    3.779200   4.716967   3.156576   4.710508   5.534728
    22  H    4.404048   5.416604   3.899358   5.547431   6.314292
    23  O    3.792572   4.574043   4.162664   4.789437   5.119152
    24  H    3.905420   4.636926   4.478085   5.390117   5.656483
    25  O    4.969162   4.885079   5.612532   3.811471   3.329851
    26  H    3.990240   3.944743   4.627448   3.207963   2.951198
    27  H    5.326188   5.424620   5.906513   4.183810   3.767988
    28  O    5.877175   5.534437   6.162718   2.743795   1.767836
    29  H    5.568641   5.300903   5.990009   3.036625   2.199453
    30  H    6.093303   5.584279   6.441147   3.193886   2.254253
                   16         17         18         19         20
    16  H    0.000000
    17  O    5.008810   0.000000
    18  H    5.703320   0.968558   0.000000
    19  O    2.519570   5.818546   6.280167   0.000000
    20  H    2.634436   5.953856   6.334462   0.971645   0.000000
    21  O    2.085773   4.313988   4.711395   2.863603   2.422749
    22  H    2.260068   4.701743   5.126817   3.604477   3.109133
    23  O    2.271781   4.107118   5.009295   4.434290   4.726110
    24  H    3.234764   3.957015   4.896304   5.337251   5.641685
    25  O    4.841512   5.815384   6.674534   5.468578   6.300321
    26  H    4.232910   4.886215   5.731682   4.839102   5.629586
    27  H    4.435016   6.108905   7.013837   5.359307   6.145123
    28  O    5.669497   7.116066   7.780109   5.014017   5.982631
    29  H    5.340565   6.695321   7.437245   5.144373   6.089168
    30  H    6.459207   7.311332   7.921095   5.738822   6.697337
                   21         22         23         24         25
    21  O    0.000000
    22  H    0.969839   0.000000
    23  O    3.464973   3.449743   0.000000
    24  H    4.217949   4.154321   0.970685   0.000000
    25  O    6.321567   6.751787   3.898840   3.959111   0.000000
    26  H    5.508632   5.990624   3.319135   3.432697   0.986884
    27  H    6.130023   6.450555   3.489898   3.608883   0.969522
    28  O    6.952547   7.623348   5.761955   6.152254   2.748236
    29  H    6.747738   7.338754   5.101542   5.397489   1.780816
    30  H    7.603284   8.313834   6.407383   6.707929   3.153074
                   26         27         28         29         30
    26  H    0.000000
    27  H    1.542577   0.000000
    28  O    2.924734   3.246240   0.000000
    29  H    2.120628   2.315857   0.990117   0.000000
    30  H    3.330464   3.833126   0.969098   1.547552   0.000000
 Symmetry turned off by external request.
 Stoichiometry    C6H16O8
 Framework group  C1[X(C6H16O8)]
 Deg. of freedom    84
 Full point group                 C1      NOp   1
 Rotational constants (GHZ):      0.7099621      0.4640173      0.3835615
 Standard basis: 6-31G(d) (6D, 7F)
   242 basis functions,   456 primitive gaussians,   242 cartesian basis functions
    58 alpha electrons       58 beta electrons
       nuclear repulsion energy      1097.4263647448 Hartrees.
 NAtoms=   30 NActive=   30 NUniq=   30 SFac= 1.00D+00 NAtFMM=   60 NAOKFM=F Big=F
 Integral buffers will be    131072 words long.
 Raffenetti 2 integral format.
 Two-electron integral symmetry is turned off.
 One-electron integrals computed using PRISM.
 NBasis=   242 RedAO= T EigKep=  1.30D-03  NBF=   242
 NBsUse=   242 1.00D-06 EigRej= -1.00D+00 NBFU=   242
 Initial guess from the checkpoint file:  "/scratch/10502191.yak.local/Gau-25631.chk"
 B after Tr=     0.010141   -0.029770    0.003330
         Rot=    1.000000   -0.000001   -0.000011   -0.000000 Ang=  -0.00 deg.
 ExpMin= 1.61D-01 ExpMax= 5.48D+03 ExpMxC= 8.25D+02 IAcc=1 IRadAn=         1 AccDes= 0.00D+00
 Harris functional with IExCor=  402 and IRadAn=       1 diagonalized for initial guess.
 HarFok:  IExCor=  402 AccDes= 0.00D+00 IRadAn=         1 IDoV= 1 UseB2=F ITyADJ=14
 ICtDFT=  3500011 ScaDFX=  1.000000  1.000000  1.000000  1.000000
 FoFCou: FMM=F IPFlag=           0 FMFlag=      100000 FMFlg1=           0
         NFxFlg=           0 DoJE=T BraDBF=F KetDBF=T FulRan=T
         wScrn=  0.000000 ICntrl=     500 IOpCl=  0 I1Cent=   200000004 NGrid=           0
         NMat0=    1 NMatS0=      1 NMatT0=    0 NMatD0=    1 NMtDS0=    0 NMtDT0=    0
 Symmetry not used in FoFCou.
 Requested convergence on RMS density matrix=1.00D-08 within 128 cycles.
 Requested convergence on MAX density matrix=1.00D-06.
 Requested convergence on             energy=1.00D-06.
 No special actions if energy rises.
 Integral accuracy reduced to 1.0D-05 until final iterations.
 Initial convergence to 1.0D-05 achieved.  Increase integral accuracy.
 SCF Done:  E(RB3LYP) =  -839.983655041     A.U. after    9 cycles
            NFock=  9  Conv=0.83D-08     -V/T= 2.0085
 DoSCS=F DFT=T ScalE2(SS,OS)=  1.000000  1.000000
 Range of M.O.s used for correlation:     1   242
 NBasis=   242 NAE=    58 NBE=    58 NFC=     0 NFV=     0
 NROrb=    242 NOA=    58 NOB=    58 NVA=   184 NVB=   184
 Symmetrizing basis deriv contribution to polar:
 IMax=3 JMax=2 DiffMx= 0.00D+00
 Calling FoFJK, ICntrl=      2147 FMM=F ISym2X=0 I1Cent= 0 IOpClX= 0 NMat=1 NMatS=1 NMatT=0.
 -------------------------------------------------------------------
 Center     Atomic                   Forces (Hartrees/Bohr)
 Number     Number              X              Y              Z
 -------------------------------------------------------------------
      1        1           0.000000110    0.000003520   -0.000003683
      2        6          -0.000001896   -0.000006627   -0.000010279
      3        6          -0.000005039   -0.000002185    0.000009968
      4        6           0.000012695   -0.000005012   -0.000004689
      5        6          -0.000006957    0.000000703   -0.000003761
      6        8          -0.000008659    0.000021086   -0.000021667
      7        6          -0.000000815   -0.000012113    0.000022358
      8        1          -0.000003340   -0.000003572   -0.000014460
      9        1           0.000001138    0.000000414    0.000002621
     10        1           0.000033540    0.000005178    0.000005050
     11        6          -0.000004520    0.000002138    0.000004870
     12        1          -0.000012961    0.000005816    0.000011404
     13        1           0.000000855   -0.000005467    0.000004782
     14        8           0.000003635    0.000003090    0.000032406
     15        1          -0.000007809    0.000002924   -0.000002023
     16        1          -0.000005275   -0.000004731   -0.000006984
     17        8          -0.000015758    0.000005406   -0.000000822
     18        1           0.000004740   -0.000000804    0.000012973
     19        8          -0.000001933    0.000001105    0.000004055
     20        1          -0.000000665   -0.000000368    0.000000413
     21        8           0.000001244   -0.000030002   -0.000014810
     22        1           0.000002017   -0.000003765   -0.000000407
     23        8           0.000036681   -0.000003520   -0.000029189
     24        1           0.000005923    0.000024437   -0.000009687
     25        8          -0.000052285    0.000019751    0.000015441
     26        1           0.000024358   -0.000003250    0.000016640
     27        1           0.000003929   -0.000011822   -0.000035599
     28        8           0.000004859   -0.000022300    0.000012353
     29        1           0.000003897    0.000006158   -0.000011745
     30        1          -0.000011710    0.000013811    0.000014472
 -------------------------------------------------------------------
 Cartesian Forces:  Max     0.000052285 RMS     0.000013723
 IRC-IRC-IRC-IRC-IRC-IRC-IRC-IRC-IRC-IRC-IRC-IRC-IRC-IRC-IRC-IRC-IRC-IRC
 Pt  1 Step number   1 out of a maximum of  20
 Modified Bulirsch-Stoer Extrapolation Cycles:
    EPS =    0.000010000000000
 Maximum DWI energy   std dev =  0.000000060 at pt     2
 Maximum DWI gradient std dev =  1.231965795 at pt     2
 WARNING: Bulirsch-Stoer Method is not Converging
 CORRECTOR INTEGRATION CONVERGENCE:
   Recorrection delta-x convergence threshold:    0.010000
   Delta-x Convergence NOT Met
 IRC-IRC-IRC-IRC-IRC-IRC-IRC-IRC-IRC-IRC-IRC-IRC-IRC-IRC-IRC-IRC-IRC-IRC
                          Input orientation:                          
 ---------------------------------------------------------------------
 Center     Atomic      Atomic             Coordinates (Angstroms)
 Number     Number       Type             X           Y           Z
 ---------------------------------------------------------------------
      1          1           0       -0.591826   -2.280498    0.200148
      2          6           0       -0.701110   -1.247715   -0.157818
      3          6           0       -1.340928    1.070383    0.727212
      4          6           0        0.940200    0.669676   -0.267475
      5          6           0       -0.337694    1.494297   -0.348218
      6          8           0        0.637174   -0.768974   -0.311297
      7          6           0       -1.481855   -0.459428    0.900505
      8          1           0        1.424373    0.840322    0.705056
      9          1           0       -0.778000    1.339759   -1.343820
     10          1           0       -2.542323   -0.734431    0.816233
     11          6           0       -1.431721   -1.366123   -1.503008
     12          1           0       -0.716571   -1.750275   -2.243799
     13          1           0       -1.800564   -0.393435   -1.853811
     14          8           0        1.772786    0.976441   -1.308990
     15          1           0        2.692243    0.719633   -1.041313
     16          1           0       -0.967972    1.459119    1.684281
     17          8           0       -2.512636   -2.269988   -1.281745
     18          1           0       -3.063633   -2.280591   -2.078215
     19          8           0        0.003537    2.857668   -0.173094
     20          1           0       -0.843152    3.334216   -0.162154
     21          8           0       -2.565957    1.717405    0.368993
     22          1           0       -3.148161    1.709649    1.144595
     23          8           0       -0.980465   -0.750320    2.211707
     24          1           0       -1.117391   -1.697275    2.375115
     25          8           0        2.686267   -1.688010    1.259381
     26          1           0        1.883878   -1.512707    0.712301
     27          1           0        2.468362   -1.310906    2.125516
     28          8           0        4.146754    0.037025   -0.303802
     29          1           0        3.767247   -0.611821    0.340626
     30          1           0        4.577496   -0.514387   -0.974246
 ---------------------------------------------------------------------
                    Distance matrix (angstroms):
                    1          2          3          4          5
     1  H    0.000000
     2  C    1.098509   0.000000
     3  C    3.473809   2.562464   0.000000
     4  C    3.356978   2.526324   2.520617   0.000000
     5  C    3.822874   2.772536   1.530598   1.523001   0.000000
     6  O    2.014130   1.429598   2.893893   1.470870   2.464574
     7  C    2.144515   1.533300   1.546031   2.916403   2.585625
     8  H    3.749601   3.101956   2.774943   1.099709   2.154518
     9  H    3.940147   2.847374   2.163012   2.135355   1.099534
    10  H    2.564044   2.145298   2.169938   3.908185   3.344184
    11  C    2.107664   1.535367   3.304343   3.361105   3.272986
    12  H    2.503912   2.145722   4.144012   3.536511   3.776774
    13  H    3.039869   2.194308   3.002616   3.340427   2.823177
    14  O    4.298435   3.520260   3.721580   1.368232   2.376002
    15  H    4.618130   4.020680   4.417824   1.915979   3.203280
    16  H    4.040900   3.285041   1.098268   2.841424   2.128271
    17  O    2.426031   2.364293   4.070244   4.646768   4.446537
    18  H    3.361662   3.215008   4.697569   5.292782   4.967234
    19  O    5.185992   4.165445   2.410918   2.381922   1.416294
    20  H    5.632001   4.584134   2.482678   3.207991   1.917135
    21  O    4.461942   3.542192   1.430963   3.714292   2.351452
    22  H    4.831988   4.053436   1.961877   4.448616   3.189607
    23  O    2.557118   2.437230   2.376682   3.442628   3.464776
    24  H    2.312325   2.605982   3.228852   4.101149   4.267388
    25  O    3.495556   3.698193   4.910217   3.307374   4.675018
    26  H    2.642142   2.740345   4.131821   2.571631   3.886149
    27  H    3.743247   3.906809   4.704942   3.461848   4.675732
    28  O    5.298964   5.017335   5.678510   3.268571   4.715495
    29  H    4.669661   4.540817   5.391912   3.162944   4.664845
    30  H    5.587507   5.391475   6.358788   3.889916   5.346570
                    6          7          8          9         10
     6  O    0.000000
     7  C    2.460603   0.000000
     8  H    2.059730   3.189626   0.000000
     9  H    2.741455   2.961331   3.049225   0.000000
    10  H    3.373680   1.098781   4.269296   3.475763   0.000000
    11  C    2.461115   2.569336   4.230983   2.788277   2.647896
    12  H    2.555414   3.484048   4.471082   3.219014   3.705281
    13  H    2.909114   2.773479   4.297694   2.075979   2.792064
    14  O    2.309000   4.187634   2.048488   2.576766   5.105274
    15  H    2.640490   4.752256   2.161450   3.538171   5.741556
    16  H    3.394587   2.135229   2.658027   3.036400   2.836150
    17  O    3.621618   3.017093   5.396429   4.005383   2.600063
    18  H    4.370693   3.832940   6.134240   4.344007   3.322681
    19  O    3.684173   3.789740   2.619085   2.070132   4.512577
    20  H    4.364604   3.991105   3.480406   2.319145   4.516449
    21  O    4.111559   2.489254   4.099383   2.504623   2.492405
    22  H    4.753099   2.746098   4.675146   3.456398   2.539368
    23  O    2.997107   1.433618   3.253212   4.129309   2.094517
    24  H    3.340217   1.959483   3.960942   4.813443   2.321123
    25  O    2.740518   4.360212   2.879604   5.286321   5.333277
    26  H    1.776278   3.531710   2.397487   4.410192   4.495306
    27  H    3.095964   4.222544   2.781259   5.440697   5.210903
    28  O    3.600951   5.777375   3.012381   5.199227   6.825934
    29  H    3.201103   5.281076   2.780394   5.225447   6.328658
    30  H    4.003805   6.342984   3.820664   5.679417   7.344798
                   11         12         13         14         15
    11  C    0.000000
    12  H    1.098992   0.000000
    13  H    1.097830   1.779929   0.000000
    14  O    3.974181   3.808641   3.865517   0.000000
    15  H    4.644418   4.377948   4.699403   0.991465   0.000000
    16  H    4.284375   5.078703   4.079614   4.087102   4.623081
    17  O    1.426292   2.102737   2.087046   5.376327   6.007197
    18  H    1.957103   2.411919   2.281899   5.881404   6.573174
    19  O    4.655003   5.102893   4.080351   2.821262   3.543182
    20  H    4.923158   5.495572   4.204012   3.703709   4.484192
    21  O    3.781405   4.719292   3.159482   4.710557   5.534725
    22  H    4.406398   5.418941   3.902488   5.547377   6.314162
    23  O    3.792355   4.573957   4.162735   4.791389   5.121688
    24  H    3.904908   4.636575   4.477783   5.392079   5.659217
    25  O    4.969128   4.884204   5.612445   3.811861   3.330162
    26  H    3.990273   3.944274   4.627398   3.208398   2.951603
    27  H    5.327277   5.424735   5.907666   4.184688   3.768557
    28  O    5.875909   5.532627   6.161040   2.743835   1.767903
    29  H    5.567515   5.299052   5.988636   3.036723   2.199582
    30  H    6.092268   5.582681   6.439558   3.193903   2.254214
                   16         17         18         19         20
    16  H    0.000000
    17  O    5.008946   0.000000
    18  H    5.703823   0.968543   0.000000
    19  O    2.519843   5.818342   6.280026   0.000000
    20  H    2.634556   5.953802   6.334657   0.971648   0.000000
    21  O    2.085724   4.315910   4.713861   2.862929   2.421622
    22  H    2.259922   4.704097   5.129880   3.603811   3.108034
    23  O    2.271554   4.106232   5.008468   4.435438   4.726257
    24  H    3.234564   3.955671   4.894922   5.338291   5.641705
    25  O    4.841325   5.815893   6.674732   5.469206   6.300819
    26  H    4.231967   4.886618   5.731884   4.839399   5.629744
    27  H    4.435777   6.110614   7.015312   5.360595   6.146276
    28  O    5.668796   7.115206   7.778790   5.013916   5.982532
    29  H    5.340085   6.694665   7.436163   5.144587   6.089316
    30  H    6.458692   7.310722   7.919916   5.738789   6.697362
                   21         22         23         24         25
    21  O    0.000000
    22  H    0.969835   0.000000
    23  O    3.463964   3.448055   0.000000
    24  H    4.216978   4.152751   0.970657   0.000000
    25  O    6.322618   6.752616   3.902706   3.963933   0.000000
    26  H    5.509312   5.990983   3.321734   3.436078   0.986841
    27  H    6.131917   6.452231   3.495153   3.615135   0.969474
    28  O    6.952469   7.623078   5.765074   6.155942   2.748147
    29  H    6.748005   7.338833   5.104988   5.401578   1.780678
    30  H    7.603559   8.313940   6.410686   6.711869   3.153289
                   26         27         28         29         30
    26  H    0.000000
    27  H    1.542569   0.000000
    28  O    2.924849   3.245845   0.000000
    29  H    2.120570   2.315525   0.990108   0.000000
    30  H    3.331165   3.832938   0.969066   1.547541   0.000000
 Symmetry turned off by external request.
 Stoichiometry    C6H16O8
 Framework group  C1[X(C6H16O8)]
 Deg. of freedom    84
 Full point group                 C1      NOp   1
 Rotational constants (GHZ):      0.7097973      0.4639690      0.3835270
 Standard basis: 6-31G(d) (6D, 7F)
   242 basis functions,   456 primitive gaussians,   242 cartesian basis functions
    58 alpha electrons       58 beta electrons
       nuclear repulsion energy      1097.3900501648 Hartrees.
 NAtoms=   30 NActive=   30 NUniq=   30 SFac= 1.00D+00 NAtFMM=   60 NAOKFM=F Big=F
 Integral buffers will be    131072 words long.
 Raffenetti 2 integral format.
 Two-electron integral symmetry is turned off.
 One-electron integrals computed using PRISM.
 NBasis=   242 RedAO= T EigKep=  1.30D-03  NBF=   242
 NBsUse=   242 1.00D-06 EigRej= -1.00D+00 NBFU=   242
 Initial guess from the checkpoint file:  "/scratch/10502191.yak.local/Gau-25631.chk"
 B after Tr=     0.000040    0.000001   -0.000022
         Rot=    1.000000   -0.000021   -0.000053   -0.000037 Ang=  -0.01 deg.
 ExpMin= 1.61D-01 ExpMax= 5.48D+03 ExpMxC= 8.25D+02 IAcc=1 IRadAn=         1 AccDes= 0.00D+00
 Harris functional with IExCor=  402 and IRadAn=       1 diagonalized for initial guess.
 HarFok:  IExCor=  402 AccDes= 0.00D+00 IRadAn=         1 IDoV= 1 UseB2=F ITyADJ=14
 ICtDFT=  3500011 ScaDFX=  1.000000  1.000000  1.000000  1.000000
 FoFCou: FMM=F IPFlag=           0 FMFlag=      100000 FMFlg1=           0
         NFxFlg=           0 DoJE=T BraDBF=F KetDBF=T FulRan=T
         wScrn=  0.000000 ICntrl=     500 IOpCl=  0 I1Cent=   200000004 NGrid=           0
         NMat0=    1 NMatS0=      1 NMatT0=    0 NMatD0=    1 NMtDS0=    0 NMtDT0=    0
 Symmetry not used in FoFCou.
 Requested convergence on RMS density matrix=1.00D-08 within 128 cycles.
 Requested convergence on MAX density matrix=1.00D-06.
 Requested convergence on             energy=1.00D-06.
 No special actions if energy rises.
 Integral accuracy reduced to 1.0D-05 until final iterations.
 Initial convergence to 1.0D-05 achieved.  Increase integral accuracy.
 SCF Done:  E(RB3LYP) =  -839.983654365     A.U. after    9 cycles
            NFock=  9  Conv=0.31D-08     -V/T= 2.0085
 DoSCS=F DFT=T ScalE2(SS,OS)=  1.000000  1.000000
 Range of M.O.s used for correlation:     1   242
 NBasis=   242 NAE=    58 NBE=    58 NFC=     0 NFV=     0
 NROrb=    242 NOA=    58 NOB=    58 NVA=   184 NVB=   184
 Symmetrizing basis deriv contribution to polar:
 IMax=3 JMax=2 DiffMx= 0.00D+00
 Calling FoFJK, ICntrl=      2147 FMM=F ISym2X=0 I1Cent= 0 IOpClX= 0 NMat=1 NMatS=1 NMatT=0.
 -------------------------------------------------------------------
 Center     Atomic                   Forces (Hartrees/Bohr)
 Number     Number              X              Y              Z
 -------------------------------------------------------------------
      1        1           0.000000636   -0.000000080   -0.000000627
      2        6           0.000000030   -0.000000377   -0.000004848
      3        6          -0.000000614   -0.000002424   -0.000002798
      4        6          -0.000002173    0.000000974   -0.000000347
      5        6          -0.000000964    0.000000350    0.000000386
      6        8          -0.000001858   -0.000000227   -0.000022225
      7        6           0.000011335   -0.000002134    0.000003829
      8        1           0.000000318   -0.000000231    0.000001642
      9        1          -0.000000118    0.000000107    0.000000088
     10        1          -0.000001766   -0.000001793    0.000001725
     11        6          -0.000012175    0.000002925    0.000002572
     12        1          -0.000001418    0.000000573   -0.000000695
     13        1          -0.000002048    0.000000791    0.000000783
     14        8           0.000006874    0.000012581    0.000007904
     15        1          -0.000000008    0.000000849    0.000000325
     16        1           0.000000025    0.000001005    0.000001478
     17        8          -0.000010230    0.000000312    0.000012146
     18        1          -0.000002067    0.000000007    0.000000484
     19        8          -0.000001160    0.000000028    0.000003184
     20        1          -0.000002037    0.000000843   -0.000000094
     21        8          -0.000008700   -0.000018034   -0.000014610
     22        1          -0.000001908   -0.000001495    0.000000369
     23        8           0.000045373    0.000004164    0.000000393
     24        1           0.000004129   -0.000000869    0.000000915
     25        8          -0.000013861   -0.000000820   -0.000004281
     26        1          -0.000001962    0.000000326   -0.000002778
     27        1          -0.000002832    0.000002551    0.000004355
     28        8          -0.000004402    0.000003108    0.000017424
     29        1           0.000000272    0.000001165   -0.000000985
     30        1           0.000003310   -0.000004172   -0.000005716
 -------------------------------------------------------------------
 Cartesian Forces:  Max     0.000045373 RMS     0.000007293
 IRC-IRC-IRC-IRC-IRC-IRC-IRC-IRC-IRC-IRC-IRC-IRC-IRC-IRC-IRC-IRC-IRC-IRC
 Error in corrector energy =          -0.0000000003
 Magnitude of corrector gradient =     0.0000685525
 Magnitude of analytic gradient =      0.0000691898
 Magnitude of difference =             0.0000097278
 Angle between gradients (degrees)=    8.0823
 Pt  1 Step number   2 out of a maximum of  20
 Modified Bulirsch-Stoer Extrapolation Cycles:
    EPS =    0.000010000000000
 Maximum DWI energy   std dev =  0.000000073 at pt     2
 Maximum DWI gradient std dev =  1.204283168 at pt     2
 WARNING: Bulirsch-Stoer Method is not Converging
 CORRECTOR INTEGRATION CONVERGENCE:
   Recorrection delta-x convergence threshold:    0.010000
   Delta-x Convergence NOT Met
 IRC-IRC-IRC-IRC-IRC-IRC-IRC-IRC-IRC-IRC-IRC-IRC-IRC-IRC-IRC-IRC-IRC-IRC
                          Input orientation:                          
 ---------------------------------------------------------------------
 Center     Atomic      Atomic             Coordinates (Angstroms)
 Number     Number       Type             X           Y           Z
 ---------------------------------------------------------------------
      1          1           0       -0.591715   -2.280516    0.200186
      2          6           0       -0.701064   -1.247739   -0.157775
      3          6           0       -1.340929    1.070334    0.727296
      4          6           0        0.940158    0.669724   -0.267523
      5          6           0       -0.337779    1.494287   -0.348195
      6          8           0        0.637193   -0.768941   -0.311321
      7          6           0       -1.481793   -0.459486    0.900591
      8          1           0        1.424380    0.840397    0.704981
      9          1           0       -0.778138    1.339727   -1.343770
     10          1           0       -2.542258   -0.734534    0.816370
     11          6           0       -1.431738   -1.366181   -1.502929
     12          1           0       -0.716605   -1.750291   -2.243758
     13          1           0       -1.800655   -0.393511   -1.853708
     14          8           0        1.772670    0.976525   -1.309089
     15          1           0        2.692153    0.719751   -1.041468
     16          1           0       -0.967923    1.459077    1.684346
     17          8           0       -2.512593   -2.270105   -1.281611
     18          1           0       -3.063634   -2.280737   -2.078052
     19          8           0        0.003401    2.857675   -0.173095
     20          1           0       -0.843314    3.334179   -0.162084
     21          8           0       -2.566004    1.717323    0.369162
     22          1           0       -3.148157    1.709543    1.144804
     23          8           0       -0.980326   -0.750361    2.211773
     24          1           0       -1.117165   -1.697331    2.375176
     25          8           0        2.686421   -1.687923    1.259215
     26          1           0        1.883989   -1.512635    0.712189
     27          1           0        2.468591   -1.310770    2.125351
     28          8           0        4.146738    0.037162   -0.304081
     29          1           0        3.767303   -0.611726    0.340346
     30          1           0        4.577423   -0.514200   -0.974601
 ---------------------------------------------------------------------
                    Distance matrix (angstroms):
                    1          2          3          4          5
     1  H    0.000000
     2  C    1.098509   0.000000
     3  C    3.473811   2.562467   0.000000
     4  C    3.356978   2.526325   2.520617   0.000000
     5  C    3.822872   2.772534   1.530597   1.523001   0.000000
     6  O    2.014128   1.429600   2.893894   1.470872   2.464576
     7  C    2.144518   1.533303   1.546034   2.916410   2.585626
     8  H    3.749608   3.101962   2.774942   1.099711   2.154520
     9  H    3.940141   2.847368   2.163012   2.135357   1.099534
    10  H    2.564052   2.145304   2.169948   3.908194   3.344187
    11  C    2.107664   1.535367   3.304354   3.361105   3.272985
    12  H    2.503917   2.145723   4.144016   3.536502   3.776766
    13  H    3.039870   2.194310   3.002628   3.340435   2.823182
    14  O    4.298435   3.520261   3.721581   1.368234   2.376003
    15  H    4.618127   4.020678   4.417826   1.915980   3.203282
    16  H    4.040894   3.285038   1.098271   2.841415   2.128272
    17  O    2.426026   2.364292   4.070262   4.646768   4.446541
    18  H    3.361659   3.215009   4.697591   5.292786   4.967243
    19  O    5.185992   4.165444   2.410915   2.381923   1.416294
    20  H    5.631993   4.584127   2.482661   3.207991   1.917134
    21  O    4.461961   3.542211   1.430967   3.714297   2.351454
    22  H    4.832006   4.053454   1.961880   4.448618   3.189609
    23  O    2.557123   2.437238   2.376686   3.442645   3.464787
    24  H    2.312312   2.605976   3.228862   4.101144   4.267390
    25  O    3.495553   3.698200   4.910241   3.307396   4.675042
    26  H    2.642139   2.740348   4.131834   2.571643   3.886161
    27  H    3.743279   3.906834   4.704961   3.461837   4.675734
    28  O    5.298948   5.017326   5.678527   3.268582   4.715512
    29  H    4.669641   4.540808   5.391947   3.162969   4.664877
    30  H    5.587484   5.391448   6.358781   3.889902   5.346552
                    6          7          8          9         10
     6  O    0.000000
     7  C    2.460608   0.000000
     8  H    2.059734   3.189639   0.000000
     9  H    2.741458   2.961326   3.049228   0.000000
    10  H    3.373689   1.098786   4.269313   3.475756   0.000000
    11  C    2.461117   2.569340   4.230988   2.788272   2.647901
    12  H    2.555412   3.484052   4.471079   3.219003   3.705287
    13  H    2.909125   2.773480   4.297705   2.075980   2.792058
    14  O    2.309005   4.187641   2.048490   2.576769   5.105282
    15  H    2.640488   4.752264   2.161455   3.538174   5.741564
    16  H    3.394577   2.135233   2.658014   3.036403   2.836167
    17  O    3.621616   3.017100   5.396436   4.005382   2.600073
    18  H    4.370696   3.832948   6.134249   4.344010   3.322688
    19  O    3.684175   3.789743   2.619085   2.070132   4.512581
    20  H    4.364604   3.991093   3.480400   2.319152   4.516437
    21  O    4.111574   2.489263   4.099383   2.504632   2.492421
    22  H    4.753111   2.746106   4.675143   3.456408   2.539389
    23  O    2.997118   1.433624   3.253236   4.129314   2.094525
    24  H    3.340202   1.959494   3.960943   4.813441   2.321151
    25  O    2.740520   4.360238   2.879640   5.286337   5.333306
    26  H    1.776275   3.531728   2.397509   4.410199   4.495326
    27  H    3.095960   4.222588   2.781250   5.440697   5.210958
    28  O    3.600939   5.777391   3.012412   5.199234   6.825950
    29  H    3.201090   5.281104   2.780451   5.225461   6.328684
    30  H    4.003779   6.342983   3.820681   5.679381   7.344793
                   11         12         13         14         15
    11  C    0.000000
    12  H    1.098992   0.000000
    13  H    1.097831   1.779932   0.000000
    14  O    3.974176   3.808626   3.865522   0.000000
    15  H    4.644408   4.377926   4.699405   0.991464   0.000000
    16  H    4.284382   5.078701   4.079626   4.087097   4.623075
    17  O    1.426292   2.102738   2.087045   5.376322   6.007186
    18  H    1.957106   2.411923   2.281900   5.881403   6.573166
    19  O    4.655001   5.102882   4.080354   2.821262   3.543188
    20  H    4.923158   5.495567   4.204017   3.703718   4.484203
[...]
 ICtDFT=  3500011 ScaDFX=  1.000000  1.000000  1.000000  1.000000
 FoFCou: FMM=F IPFlag=           0 FMFlag=      100000 FMFlg1=           0
         NFxFlg=           0 DoJE=T BraDBF=F KetDBF=T FulRan=T
         wScrn=  0.000000 ICntrl=     500 IOpCl=  0 I1Cent=   200000004 NGrid=           0
         NMat0=    1 NMatS0=      1 NMatT0=    0 NMatD0=    1 NMtDS0=    0 NMtDT0=    0
 Symmetry not used in FoFCou.
 Requested convergence on RMS density matrix=1.00D-08 within 128 cycles.
 Requested convergence on MAX density matrix=1.00D-06.
 Requested convergence on             energy=1.00D-06.
 No special actions if energy rises.
 Integral accuracy reduced to 1.0D-05 until final iterations.
 Initial convergence to 1.0D-05 achieved.  Increase integral accuracy.
 SCF Done:  E(RB3LYP) =  -839.983654368     A.U. after    7 cycles
            NFock=  7  Conv=0.85D-08     -V/T= 2.0085
 DoSCS=F DFT=T ScalE2(SS,OS)=  1.000000  1.000000
 Range of M.O.s used for correlation:     1   242
 NBasis=   242 NAE=    58 NBE=    58 NFC=     0 NFV=     0
 NROrb=    242 NOA=    58 NOB=    58 NVA=   184 NVB=   184
 Symmetrizing basis deriv contribution to polar:
 IMax=3 JMax=2 DiffMx= 0.00D+00
 Calling FoFJK, ICntrl=      2147 FMM=F ISym2X=0 I1Cent= 0 IOpClX= 0 NMat=1 NMatS=1 NMatT=0.
 -------------------------------------------------------------------
 Center     Atomic                   Forces (Hartrees/Bohr)
 Number     Number              X              Y              Z
 -------------------------------------------------------------------
      1        1           0.000000314   -0.000000128   -0.000000681
      2        6           0.000000115   -0.000000425   -0.000004098
      3        6          -0.000001771   -0.000002423   -0.000001092
      4        6          -0.000000835    0.000000763   -0.000000116
      5        6          -0.000000897    0.000000566    0.000000550
      6        8          -0.000002017    0.000001327   -0.000021920
      7        6           0.000010754   -0.000003022    0.000005298
      8        1          -0.000000455   -0.000000667    0.000000316
      9        1          -0.000000002    0.000000096    0.000000005
     10        1           0.000000942   -0.000000870    0.000001888
     11        6          -0.000012564    0.000003628    0.000002478
     12        1          -0.000001564    0.000000732   -0.000000506
     13        1          -0.000001545    0.000000368    0.000000902
     14        8           0.000005452    0.000012103    0.000008686
     15        1           0.000000155    0.000000634    0.000000694
     16        1          -0.000000748    0.000000426   -0.000000114
     17        8          -0.000010867   -0.000000145    0.000011590
     18        1          -0.000001364    0.000000236    0.000001193
     19        8          -0.000003066    0.000000869    0.000003222
     20        1          -0.000000190    0.000000077   -0.000000232
     21        8          -0.000007611   -0.000019485   -0.000012594
     22        1          -0.000000849   -0.000001504   -0.000001063
     23        8           0.000044295    0.000004405   -0.000002269
     24        1           0.000003751    0.000000173    0.000000124
     25        8          -0.000015998    0.000001128   -0.000002988
     26        1          -0.000000412   -0.000000035   -0.000000972
     27        1          -0.000002251    0.000000959    0.000000907
     28        8          -0.000005051    0.000004577    0.000017269
     29        1           0.000000065    0.000001026   -0.000000105
     30        1           0.000004215   -0.000005389   -0.000006374
 -------------------------------------------------------------------
 Cartesian Forces:  Max     0.000044295 RMS     0.000007224
 IRC-IRC-IRC-IRC-IRC-IRC-IRC-IRC-IRC-IRC-IRC-IRC-IRC-IRC-IRC-IRC-IRC-IRC
 Error in corrector energy =          -0.0000000000
 Magnitude of corrector gradient =     0.0000685370
 Magnitude of analytic gradient =      0.0000685370
 Magnitude of difference =             0.0000000000
 Angle between gradients (degrees)=    0.0000
 Pt  1 Step number  19 out of a maximum of  20
 Modified Bulirsch-Stoer Extrapolation Cycles:
    EPS =    0.000010000000000
 Maximum DWI energy   std dev =  0.000000077 at pt     2
 Maximum DWI gradient std dev =  1.203864388 at pt     2
 WARNING: Bulirsch-Stoer Method is not Converging
 CORRECTOR INTEGRATION CONVERGENCE:
   Recorrection delta-x convergence threshold:    0.010000
   Delta-x Convergence NOT Met
 IRC-IRC-IRC-IRC-IRC-IRC-IRC-IRC-IRC-IRC-IRC-IRC-IRC-IRC-IRC-IRC-IRC-IRC
                          Input orientation:                          
 ---------------------------------------------------------------------
 Center     Atomic      Atomic             Coordinates (Angstroms)
 Number     Number       Type             X           Y           Z
 ---------------------------------------------------------------------
      1          1           0       -0.591712   -2.280515    0.200195
      2          6           0       -0.701060   -1.247740   -0.157771
      3          6           0       -1.340925    1.070335    0.727298
      4          6           0        0.940159    0.669726   -0.267525
      5          6           0       -0.337779    1.494287   -0.348196
      6          8           0        0.637196   -0.768941   -0.311310
      7          6           0       -1.481799   -0.459485    0.900586
      8          1           0        1.424386    0.840406    0.704975
      9          1           0       -0.778140    1.339725   -1.343770
     10          1           0       -2.542264   -0.734527    0.816349
     11          6           0       -1.431723   -1.366189   -1.502930
     12          1           0       -0.716586   -1.750311   -2.243749
     13          1           0       -1.800630   -0.393520   -1.853722
     14          8           0        1.772666    0.976522   -1.309097
     15          1           0        2.692150    0.719749   -1.041479
     16          1           0       -0.967911    1.459070    1.684348
     17          8           0       -2.512586   -2.270104   -1.281614
     18          1           0       -3.063613   -2.280749   -2.078064
     19          8           0        0.003399    2.857675   -0.173098
     20          1           0       -0.843318    3.334176   -0.162078
     21          8           0       -2.565999    1.717334    0.369175
     22          1           0       -3.148143    1.709561    1.144824
     23          8           0       -0.980352   -0.750365    2.211774
     24          1           0       -1.117210   -1.697332    2.375177
     25          8           0        2.686436   -1.687924    1.259211
     26          1           0        1.883995   -1.512631    0.712199
     27          1           0        2.468623   -1.310776    2.125354
     28          8           0        4.146739    0.037164   -0.304094
     29          1           0        3.767308   -0.611726    0.340333
     30          1           0        4.577425   -0.514194   -0.974615
 ---------------------------------------------------------------------
                    Distance matrix (angstroms):
                    1          2          3          4          5
     1  H    0.000000
     2  C    1.098509   0.000000
     3  C    3.473810   2.562468   0.000000
     4  C    3.356980   2.526326   2.520616   0.000000
     5  C    3.822871   2.772534   1.530597   1.523001   0.000000
     6  O    2.014127   1.429599   2.893891   1.470872   2.464576
     7  C    2.144517   1.533303   1.546034   2.916415   2.585626
     8  H    3.749614   3.101968   2.774944   1.099711   2.154520
     9  H    3.940143   2.847369   2.163012   2.135358   1.099534
    10  H    2.564055   2.145303   2.169947   3.908193   3.344178
    11  C    2.107664   1.535367   3.304362   3.361101   3.272988
    12  H    2.503911   2.145722   4.144028   3.536502   3.776776
    13  H    3.039870   2.194310   3.002643   3.340425   2.823182
    14  O    4.298434   3.520257   3.721580   1.368234   2.376003
    15  H    4.618126   4.020675   4.417825   1.915980   3.203283
    16  H    4.040883   3.285031   1.098271   2.841408   2.128272
    17  O    2.426030   2.364292   4.070264   4.646765   4.446537
    18  H    3.361660   3.215010   4.697602   5.292782   4.967243
    19  O    5.185991   4.165444   2.410914   2.381923   1.416294
    20  H    5.631990   4.584126   2.482656   3.207990   1.917134
    21  O    4.461968   3.542221   1.430967   3.714298   2.351454
    22  H    4.832016   4.053467   1.961881   4.448618   3.189608
    23  O    2.557117   2.437237   2.376685   3.442665   3.464796
    24  H    2.312314   2.605981   3.228859   4.101171   4.267400
    25  O    3.495559   3.698207   4.910251   3.307404   4.675051
    26  H    2.642143   2.740352   4.131834   2.571647   3.886164
    27  H    3.743298   3.906856   4.704988   3.461859   4.675759
    28  O    5.298949   5.017325   5.678527   3.268582   4.715512
    29  H    4.669641   4.540808   5.391949   3.162971   4.664879
    30  H    5.587490   5.391450   6.358782   3.889904   5.346553
                    6          7          8          9         10
     6  O    0.000000
     7  C    2.460608   0.000000
     8  H    2.059733   3.189654   0.000000
     9  H    2.741464   2.961321   3.049229   0.000000
    10  H    3.373687   1.098786   4.269324   3.475740   0.000000
    11  C    2.461116   2.569340   4.230989   2.788275   2.647896
    12  H    2.555414   3.484053   4.471080   3.219018   3.705282
    13  H    2.909119   2.773485   4.297701   2.075976   2.792058
    14  O    2.309006   4.187643   2.048490   2.576768   5.105274
    15  H    2.640488   4.752268   2.161455   3.538172   5.741562
    16  H    3.394562   2.135232   2.658006   3.036404   2.836173
    17  O    3.621617   3.017095   5.396440   4.005376   2.600063
    18  H    4.370695   3.832948   6.134252   4.344008   3.322685
    19  O    3.684175   3.789744   2.619082   2.070132   4.512574
    20  H    4.364603   3.991087   3.480395   2.319154   4.516424
    21  O    4.111579   2.489262   4.099383   2.504638   2.492418
    22  H    4.753114   2.746109   4.675139   3.456413   2.539400
    23  O    2.997125   1.433623   3.253269   4.129317   2.094524
    24  H    3.340219   1.959492   3.960985   4.813445   2.321146
    25  O    2.740520   4.360259   2.879653   5.286346   5.333329
    26  H    1.776275   3.531738   2.397515   4.410205   4.495338
    27  H    3.095971   4.222628   2.781276   5.440722   5.211002
    28  O    3.600937   5.777400   3.012412   5.199233   6.825955
    29  H    3.201086   5.281115   2.780456   5.225463   6.328694
    30  H    4.003782   6.342993   3.820683   5.679381   7.344799
                   11         12         13         14         15
    11  C    0.000000
    12  H    1.098992   0.000000
    13  H    1.097831   1.779931   0.000000
    14  O    3.974164   3.808618   3.865498   0.000000
    15  H    4.644395   4.377914   4.699381   0.991465   0.000000
    16  H    4.284385   5.078704   4.079639   4.087092   4.623069
    17  O    1.426291   2.102737   2.087045   5.376311   6.007176
    18  H    1.957105   2.411918   2.281904   5.881387   6.573150
    19  O    4.655004   5.102893   4.080354   2.821265   3.543190
    20  H    4.923164   5.495583   4.204025   3.703722   4.484206
    21  O    3.781465   4.719350   3.159552   4.710564   5.534732
    22  H    4.406466   5.419005   3.902567   5.547381   6.314165
    23  O    3.792361   4.573964   4.162746   4.791427   5.121734
    24  H    3.904906   4.636570   4.477787   5.392101   5.659244
    25  O    4.969122   4.884177   5.612451   3.811883   3.330179
    26  H    3.990267   3.944255   4.627399   3.208413   2.951614
    27  H    5.327309   5.424741   5.907701   4.184679   3.768531
    28  O    5.875870   5.532564   6.161010   2.743838   1.767905
    29  H    5.567473   5.298978   5.988608   3.036733   2.199590
    30  H    6.092198   5.582584   6.439486   3.193867   2.254185
                   16         17         18         19         20
    16  H    0.000000
    17  O    5.008961   0.000000
    18  H    5.703854   0.968544   0.000000
    19  O    2.519850   5.818342   6.280036   0.000000
    20  H    2.634546   5.953803   6.334674   0.971650   0.000000
    21  O    2.085729   4.315973   4.713944   2.862909   2.421578
    22  H    2.259922   4.704176   5.129983   3.603790   3.107988
    23  O    2.271550   4.106228   5.008469   4.435463   4.726249
    24  H    3.234565   3.955662   4.894917   5.338311   5.641698
    25  O    4.841339   5.815888   6.674722   5.469247   6.300850
    26  H    4.231955   4.886612   5.731875   4.839418   5.629754
    27  H    4.435797   6.110661   7.015355   5.360615   6.146290
    28  O    5.668805   7.115170   7.778744   5.013951   5.982568
    29  H    5.340118   6.694624   7.436112   5.144644   6.089370
    30  H    6.458684   7.310658   7.919834   5.738784   6.697359
                   21         22         23         24         25
    21  O    0.000000
    22  H    0.969837   0.000000
    23  O    3.463955   3.448034   0.000000
    24  H    4.216987   4.152756   0.970658   0.000000
    25  O    6.322659   6.752652   3.902784   3.963987   0.000000
    26  H    5.509336   5.991002   3.321785   3.436108   0.986844
    27  H    6.131968   6.452282   3.495276   3.615250   0.969477
    28  O    6.952490   7.623095   5.765141   6.155983   2.748151
    29  H    6.748046   7.338872   5.105074   5.401633   1.780680
    30  H    7.603552   8.313935   6.410751   6.711914   3.153325
                   26         27         28         29         30
    26  H    0.000000
    27  H    1.542576   0.000000
    28  O    2.924847   3.245803   0.000000
    29  H    2.120562   2.315503   0.990107   0.000000
    30  H    3.331184   3.832936   0.969064   1.547544   0.000000
 Symmetry turned off by external request.
 Stoichiometry    C6H16O8
 Framework group  C1[X(C6H16O8)]
 Deg. of freedom    84
 Full point group                 C1      NOp   1
 Rotational constants (GHZ):      0.7097896      0.4639680      0.3835253
 Standard basis: 6-31G(d) (6D, 7F)
   242 basis functions,   456 primitive gaussians,   242 cartesian basis functions
    58 alpha electrons       58 beta electrons
       nuclear repulsion energy      1097.3879009468 Hartrees.
 NAtoms=   30 NActive=   30 NUniq=   30 SFac= 1.00D+00 NAtFMM=   60 NAOKFM=F Big=F
 Integral buffers will be    131072 words long.
 Raffenetti 2 integral format.
 Two-electron integral symmetry is turned off.
 One-electron integrals computed using PRISM.
 NBasis=   242 RedAO= T EigKep=  1.30D-03  NBF=   242
 NBsUse=   242 1.00D-06 EigRej= -1.00D+00 NBFU=   242
 Initial guess from the checkpoint file:  "/scratch/10502191.yak.local/Gau-25631.chk"
 B after Tr=     0.000000    0.000000   -0.000000
         Rot=    1.000000    0.000000    0.000000    0.000000 Ang=   0.00 deg.
 ExpMin= 1.61D-01 ExpMax= 5.48D+03 ExpMxC= 8.25D+02 IAcc=1 IRadAn=         1 AccDes= 0.00D+00
 Harris functional with IExCor=  402 and IRadAn=       1 diagonalized for initial guess.
 HarFok:  IExCor=  402 AccDes= 0.00D+00 IRadAn=         1 IDoV= 1 UseB2=F ITyADJ=14
 ICtDFT=  3500011 ScaDFX=  1.000000  1.000000  1.000000  1.000000
 FoFCou: FMM=F IPFlag=           0 FMFlag=      100000 FMFlg1=           0
         NFxFlg=           0 DoJE=T BraDBF=F KetDBF=T FulRan=T
         wScrn=  0.000000 ICntrl=     500 IOpCl=  0 I1Cent=   200000004 NGrid=           0
         NMat0=    1 NMatS0=      1 NMatT0=    0 NMatD0=    1 NMtDS0=    0 NMtDT0=    0
 Symmetry not used in FoFCou.
 Requested convergence on RMS density matrix=1.00D-08 within 128 cycles.
 Requested convergence on MAX density matrix=1.00D-06.
 Requested convergence on             energy=1.00D-06.
 No special actions if energy rises.
 Integral accuracy reduced to 1.0D-05 until final iterations.
 Initial convergence to 1.0D-05 achieved.  Increase integral accuracy.
 SCF Done:  E(RB3LYP) =  -839.983654368     A.U. after    7 cycles
            NFock=  7  Conv=0.85D-08     -V/T= 2.0085
 DoSCS=F DFT=T ScalE2(SS,OS)=  1.000000  1.000000
 Range of M.O.s used for correlation:     1   242
 NBasis=   242 NAE=    58 NBE=    58 NFC=     0 NFV=     0
 NROrb=    242 NOA=    58 NOB=    58 NVA=   184 NVB=   184
 Symmetrizing basis deriv contribution to polar:
 IMax=3 JMax=2 DiffMx= 0.00D+00
 Calling FoFJK, ICntrl=      2147 FMM=F ISym2X=0 I1Cent= 0 IOpClX= 0 NMat=1 NMatS=1 NMatT=0.
 -------------------------------------------------------------------
 Center     Atomic                   Forces (Hartrees/Bohr)
 Number     Number              X              Y              Z
 -------------------------------------------------------------------
      1        1           0.000000314   -0.000000128   -0.000000681
      2        6           0.000000115   -0.000000425   -0.000004098
      3        6          -0.000001771   -0.000002423   -0.000001092
      4        6          -0.000000835    0.000000763   -0.000000116
      5        6          -0.000000897    0.000000566    0.000000550
      6        8          -0.000002017    0.000001327   -0.000021920
      7        6           0.000010754   -0.000003022    0.000005298
      8        1          -0.000000455   -0.000000667    0.000000316
      9        1          -0.000000002    0.000000096    0.000000005
     10        1           0.000000942   -0.000000870    0.000001888
     11        6          -0.000012564    0.000003628    0.000002478
     12        1          -0.000001564    0.000000732   -0.000000506
     13        1          -0.000001545    0.000000368    0.000000902
     14        8           0.000005452    0.000012103    0.000008686
     15        1           0.000000155    0.000000634    0.000000694
     16        1          -0.000000748    0.000000426   -0.000000114
     17        8          -0.000010867   -0.000000145    0.000011590
     18        1          -0.000001364    0.000000236    0.000001193
     19        8          -0.000003066    0.000000869    0.000003222
     20        1          -0.000000190    0.000000077   -0.000000232
     21        8          -0.000007611   -0.000019485   -0.000012594
     22        1          -0.000000849   -0.000001504   -0.000001063
     23        8           0.000044295    0.000004405   -0.000002269
     24        1           0.000003751    0.000000173    0.000000124
     25        8          -0.000015998    0.000001128   -0.000002988
     26        1          -0.000000412   -0.000000035   -0.000000972
     27        1          -0.000002251    0.000000959    0.000000907
     28        8          -0.000005051    0.000004577    0.000017269
     29        1           0.000000065    0.000001026   -0.000000105
     30        1           0.000004215   -0.000005389   -0.000006374
 -------------------------------------------------------------------
 Cartesian Forces:  Max     0.000044295 RMS     0.000007224
 IRC-IRC-IRC-IRC-IRC-IRC-IRC-IRC-IRC-IRC-IRC-IRC-IRC-IRC-IRC-IRC-IRC-IRC
 Error in corrector energy =          -0.0000000000
 Magnitude of corrector gradient =     0.0000685370
 Magnitude of analytic gradient =      0.0000685370
 Magnitude of difference =             0.0000000000
 Angle between gradients (degrees)=    0.0000
 Pt  1 Step number  20 out of a maximum of  20
 Modified Bulirsch-Stoer Extrapolation Cycles:
    EPS =    0.000010000000000
 Maximum DWI energy   std dev =  0.000000077 at pt     2
 Maximum DWI gradient std dev =  1.203863301 at pt     2
 WARNING: Bulirsch-Stoer Method is not Converging
 CORRECTOR INTEGRATION CONVERGENCE:
   Recorrection delta-x convergence threshold:    0.010000
   Delta-x Convergence NOT Met
 Maximum number of corrector steps exceded.
 Error termination via Lnk1e in /global/software/gaussian/g09.e01/l123.exe at Tue Jan 31 15:38:16 2017.
 Job cpu time:       0 days  3 hours 41 minutes 50.8 seconds.
 File lengths (MBytes):  RWF=    220 Int=      0 D2E=      0 Chk=      8 Scr=      1
