 Entering Gaussian System, Link 0=g09
 Initial command:
 /global/software/gaussian/g09.e01/l1.exe "/scratch/10502193.yak.local/Gau-13091.inp" -scrdir="/scratch/10502193.yak.local/"
 Entering Link 1 = /global/software/gaussian/g09.e01/l1.exe PID=     13092.
  
 Copyright (c) 1988,1990,1992,1993,1995,1998,2003,2009,2015,
            Gaussian, Inc.  All Rights Reserved.
  
 This is part of the Gaussian(R) 09 program.  It is based on
 the Gaussian(R) 03 system (copyright 2003, Gaussian, Inc.),
 the Gaussian(R) 98 system (copyright 1998, Gaussian, Inc.),
 the Gaussian(R) 94 system (copyright 1995, Gaussian, Inc.),
 the Gaussian 92(TM) system (copyright 1992, Gaussian, Inc.),
 the Gaussian 90(TM) system (copyright 1990, Gaussian, Inc.),
 the Gaussian 88(TM) system (copyright 1988, Gaussian, Inc.),
 the Gaussian 86(TM) system (copyright 1986, Carnegie Mellon
 University), and the Gaussian 82(TM) system (copyright 1983,
 Carnegie Mellon University). Gaussian is a federally registered
 trademark of Gaussian, Inc.
  
 This software contains proprietary and confidential information,
 including trade secrets, belonging to Gaussian, Inc.
  
 This software is provided under written license and may be
 used, copied, transmitted, or stored only in accord with that
 written license.
  
 The following legend is applicable only to US Government
 contracts under FAR:
  
                    RESTRICTED RIGHTS LEGEND
  
 Use, reproduction and disclosure by the US Government is
 subject to restrictions as set forth in subparagraphs (a)
 and (c) of the Commercial Computer Software - Restricted
 Rights clause in FAR 52.227-19.
  
 Gaussian, Inc.
 340 Quinnipiac St., Bldg. 40, Wallingford CT 06492
  
  
 ---------------------------------------------------------------
 Warning -- This program may not be used in any manner that
 competes with the business of Gaussian, Inc. or will provide
 assistance to any competitor of Gaussian, Inc.  The licensee
 of this program is prohibited from giving any competitor of
 Gaussian, Inc. access to this program.  By using this program,
 the user acknowledges that Gaussian, Inc. is engaged in the
 business of creating and licensing software in the field of
 computational chemistry and represents and warrants to the
 licensee that it is not a competitor of Gaussian, Inc. and that
 it will not use this program in any manner prohibited above.
 ---------------------------------------------------------------
  

 Cite this work as:
 Gaussian 09, Revision E.01,
 M. J. Frisch, G. W. Trucks, H. B. Schlegel, G. E. Scuseria, 
 M. A. Robb, J. R. Cheeseman, G. Scalmani, V. Barone, B. Mennucci, 
 G. A. Petersson, H. Nakatsuji, M. Caricato, X. Li, H. P. Hratchian, 
 A. F. Izmaylov, J. Bloino, G. Zheng, J. L. Sonnenberg, M. Hada, 
 M. Ehara, K. Toyota, R. Fukuda, J. Hasegawa, M. Ishida, T. Nakajima, 
 Y. Honda, O. Kitao, H. Nakai, T. Vreven, J. A. Montgomery, Jr., 
 J. E. Peralta, F. Ogliaro, M. Bearpark, J. J. Heyd, E. Brothers, 
 K. N. Kudin, V. N. Staroverov, T. Keith, R. Kobayashi, J. Normand, 
 K. Raghavachari, A. Rendell, J. C. Burant, S. S. Iyengar, J. Tomasi, 
 M. Cossi, N. Rega, J. M. Millam, M. Klene, J. E. Knox, J. B. Cross, 
 V. Bakken, C. Adamo, J. Jaramillo, R. Gomperts, R. E. Stratmann, 
 O. Yazyev, A. J. Austin, R. Cammi, C. Pomelli, J. W. Ochterski, 
 R. L. Martin, K. Morokuma, V. G. Zakrzewski, G. A. Voth, 
 P. Salvador, J. J. Dannenberg, S. Dapprich, A. D. Daniels, 
 O. Farkas, J. B. Foresman, J. V. Ortiz, J. Cioslowski, 
 and D. J. Fox, Gaussian, Inc., Wallingford CT, 2013.
 
 ******************************************
 Gaussian 09:  ES64L-G09RevE.01 30-Nov-2015
                31-Jan-2017 
 ******************************************
 %NPROCS=4
 Will use up to    4 processors via shared memory.
 --------------------------------------------------
 # b3lyp/6-31g(d) irc=(calcfc,reverse,maxpoints=20)
 --------------------------------------------------
 1/10=4,14=-1,18=10,22=2,26=3,38=1,42=20,44=3/1,23;
 2/12=2,17=6,18=5,29=1,40=1/2;
 3/5=1,6=6,7=1,11=2,16=1,25=1,30=1,71=2,74=-5,140=1/1,2,3;
 4//1;
 5/5=2,38=5/2;
 8/6=4,10=90,11=11/1;
 11/6=1,8=1,9=11,15=111,16=1/1,2,10;
 10/6=1,13=1/2;
 6/7=2,8=2,9=2,10=2,28=1/1;
 7/10=1,18=20,25=1/1,2,3,16;
 1/10=4,14=-1,18=10,22=2,26=3,42=20,44=3/23(2);
 2/29=1/2;
 99/5=20/99;
 2/29=1/2;
 3/5=1,6=6,7=1,11=2,16=1,25=1,30=1,71=2,74=-5,140=1/1,2,3;
 4/5=5,16=3,69=1/1;
 5/5=2,38=5/2;
 8/6=4,10=90,11=11/1;
 11/6=1,8=1,9=11,15=111,16=1/1,2,10;
 10/6=1,13=1/2;
 7/10=1,18=20,25=1/1,2,3,16;
 1/14=-1,18=10,22=2,26=3,42=20,44=3/23(-8);
 2/29=1/2;
 6/7=2,8=2,9=2,10=2,19=2,28=1/1;
 99/5=20,9=1/99;
 -------------------------------------------
 ./1/glo_1w_alpha_boat1_b3lyp_631Gd_iopt.out
 -------------------------------------------
 Symbolic Z-matrix:
 Charge =  0 Multiplicity = 1
 H                    -1.33213   1.38188   1.46188 
 C                    -1.24056   0.86942   0.49721 
 C                     0.84267  -0.18386  -0.53381 
 C                    -1.2998   -1.51895  -0.22106 
 C                    -0.20956  -1.05555  -1.22305 
 O                    -1.51217  -0.49647   0.8023 
 C                     0.19983   1.10832  -0.0244 
 H                    -0.6943   -0.4429   -2.00466 
 H                     0.17606   1.83477  -0.84461 
 C                    -2.31423   1.48292  -0.40871 
 H                    -3.30085   1.22249  -0.00049 
 H                    -2.25016   1.08299  -1.43172 
 H                     1.23607  -0.73492   0.331 
 O                    -2.08374   2.88925  -0.38905 
 H                    -2.70754   3.31014  -0.99896 
 O                     0.39764  -2.18551  -1.80267 
 H                     1.2301   -1.8405   -2.17616 
 O                     1.86635   0.04763  -1.48734 
 H                     2.67751   0.31077  -0.99263 
 O                     1.04825   1.61813   1.03385 
 H                     0.71939   2.50006   1.27323 
 H                    -2.24935  -1.68409  -0.74108 
 O                    -1.02354  -2.69737   0.43151 
 H                    -0.17292  -2.60942   0.90637 
 O                     0.49074  -1.56238   2.57215 
 H                    -0.35248  -1.1413    2.31681 
 H                     1.11714  -0.8226    2.60339 
 O                     3.69998   1.14062   0.24989 
 H                     2.87982   1.46962   0.67785 
 H                     4.08543   1.9179   -0.1824 
 
 IRC-IRC-IRC-IRC-IRC-IRC-IRC-IRC-IRC-IRC-IRC-IRC-IRC-IRC-IRC-IRC-IRC-IRC
 ------------------------------------------------------------------------
 INPUT DATA FOR L123
 ------------------------------------------------------------------------
 GENERAL PARAMETERS:
 Rxn path following direction = Reverse
 Maximum points per path      =  20
 Step size                    =   0.100 bohr
 Integration scheme           = HPC                                 
    Redo corrector integration= Yes                                 
    DWI Weight Power          =  2
    DWI will use Hessian update vectors when possible.
    Max correction cycles     =  20
 Initial Hessian              = CalcFC
 Hessian evaluation           = All updating
 Hessian updating method      = Bofill                              
 ------------------------------------------------------------------------
 IRC-IRC-IRC-IRC-IRC-IRC-IRC-IRC-IRC-IRC-IRC-IRC-IRC-IRC-IRC-IRC-IRC-IRC
                          Input orientation:                          
 ---------------------------------------------------------------------
 Center     Atomic      Atomic             Coordinates (Angstroms)
 Number     Number       Type             X           Y           Z
 ---------------------------------------------------------------------
      1          1           0       -1.332130    1.381880    1.461880
      2          6           0       -1.240560    0.869420    0.497210
      3          6           0        0.842670   -0.183860   -0.533810
      4          6           0       -1.299800   -1.518950   -0.221060
      5          6           0       -0.209560   -1.055550   -1.223050
      6          8           0       -1.512170   -0.496470    0.802300
      7          6           0        0.199830    1.108320   -0.024400
      8          1           0       -0.694300   -0.442900   -2.004660
      9          1           0        0.176060    1.834770   -0.844610
     10          6           0       -2.314230    1.482920   -0.408710
     11          1           0       -3.300850    1.222490   -0.000490
     12          1           0       -2.250160    1.082990   -1.431720
     13          1           0        1.236070   -0.734920    0.331000
     14          8           0       -2.083740    2.889250   -0.389050
     15          1           0       -2.707540    3.310140   -0.998960
     16          8           0        0.397640   -2.185510   -1.802670
     17          1           0        1.230100   -1.840500   -2.176160
     18          8           0        1.866350    0.047630   -1.487340
     19          1           0        2.677510    0.310770   -0.992630
     20          8           0        1.048250    1.618130    1.033850
     21          1           0        0.719390    2.500060    1.273230
     22          1           0       -2.249350   -1.684090   -0.741080
     23          8           0       -1.023540   -2.697370    0.431510
     24          1           0       -0.172920   -2.609420    0.906370
     25          8           0        0.490740   -1.562380    2.572150
     26          1           0       -0.352480   -1.141300    2.316810
     27          1           0        1.117140   -0.822600    2.603390
     28          8           0        3.699980    1.140620    0.249890
     29          1           0        2.879820    1.469620    0.677850
     30          1           0        4.085430    1.917900   -0.182400
 ---------------------------------------------------------------------
                    Distance matrix (angstroms):
                    1          2          3          4          5
     1  H    0.000000
     2  C    1.096170   0.000000
     3  C    3.341269   2.551911   0.000000
     4  C    3.353826   2.494741   2.543709   0.000000
     5  C    3.796061   2.779886   1.530387   1.551563   0.000000
     6  O    1.998914   1.425660   2.725470   1.462133   2.472126
     7  C    2.151921   1.550443   1.530513   3.031520   2.507328
     8  H    3.969074   2.877488   2.143077   2.169272   1.105091
     9  H    2.792784   2.176969   2.148449   3.716775   2.940386
    10  C    2.115145   1.532919   3.572089   3.174193   3.396559
    11  H    2.457598   2.148757   4.408062   3.401227   4.029912
    12  H    3.050416   2.187619   3.460744   3.023074   2.963266
    13  H    3.515022   2.955542   1.098329   2.711109   2.146560
    14  O    2.502603   2.361381   4.246038   4.480514   4.446297
    15  H    3.415505   3.216779   5.002838   5.089889   5.034816
    16  O    5.135724   4.160017   2.411361   2.413938   1.407644
    17  H    5.494005   4.538142   2.364714   3.213441   1.896625
    18  O    4.550648   3.777124   1.418001   3.752618   2.365641
    19  H    4.821733   4.228828   1.954946   4.445469   3.202358
    20  O    2.430068   2.467225   2.397288   4.114536   3.718097
    21  H    2.344067   2.665070   3.237903   4.739459   4.442603
    22  H    3.885164   3.011882   3.442998   1.095143   2.188173
    23  O    4.218669   3.573990   3.276021   1.375079   2.468948
    24  H    4.193189   3.661911   2.998147   1.931342   2.636339
    25  O    3.636512   3.635440   3.416308   3.318123   3.892408
    26  H    2.838496   2.853529   3.235909   2.735109   3.543782
    27  H    3.487363   3.585760   3.213308   3.782066   4.056605
    28  O    5.181627   4.954155   3.245405   5.682685   4.719875
    29  H    4.285198   4.167781   2.889999   5.216207   4.419748
    30  H    5.686909   5.470590   3.880255   6.388594   5.326471
                    6          7          8          9         10
     6  O    0.000000
     7  C    2.487916   0.000000
     8  H    2.924176   2.669678   0.000000
     9  H    3.316190   1.095919   2.700189   0.000000
    10  C    2.455164   2.570704   2.979935   2.552519   0.000000
    11  H    2.607426   3.502623   3.685692   3.629921   1.099039
    12  H    2.833755   2.825534   2.253287   2.606993   1.100272
    13  H    2.798536   2.144210   3.044160   3.018110   4.250955
    14  O    3.634434   2.918797   3.955245   2.534987   1.425228
    15  H    4.377639   3.774994   4.376057   3.242790   1.960056
    16  O    3.645010   3.748425   2.066355   4.138795   4.770193
    17  H    4.265875   3.793029   2.384536   4.048658   5.170230
    18  O    4.117389   2.458159   2.658038   2.542450   4.549808
    19  H    4.628912   2.777130   3.600184   2.932872   5.160656
    20  O    3.328798   1.449005   4.064095   2.082369   3.661357
    21  H    3.765744   1.972492   4.626456   2.285402   3.614740
    22  H    2.082282   3.782812   2.356983   4.275010   3.185064
    23  O    2.284777   4.023402   3.335560   4.858787   4.454961
    24  H    2.503793   3.850567   3.666025   4.789420   4.802280
    25  O    2.877530   3.736220   4.858471   4.828447   5.101689
    26  H    2.013561   3.293494   4.390866   4.373891   4.261860
    27  H    3.203679   3.387505   4.965845   4.453757   5.114926
    28  O    5.491059   3.511030   5.186543   3.754702   6.059839
    29  H    4.813582   2.793929   4.860857   3.124346   5.306500
    30  H    6.175107   3.972187   5.633811   3.965931   6.418417
                   11         12         13         14         15
    11  H    0.000000
    12  H    1.780963   0.000000
    13  H    4.952270   4.308802   0.000000
    14  O    2.100101   2.092231   4.967315   0.000000
    15  H    2.388983   2.314449   5.803737   0.968641   0.000000
    16  O    5.342391   4.222741   2.712881   5.823123   6.363196
    17  H    5.885997   4.605778   2.740108   6.045315   6.589378
    18  O    5.503724   4.245082   2.077498   4.988412   5.639411
    19  H    6.128325   5.007100   2.218832   5.448153   6.164010
    20  O    4.487879   4.152700   2.462949   3.667390   4.593601
    21  H    4.406459   4.259468   3.408790   3.282100   4.190815
    22  H    3.178417   2.851967   3.768081   4.589857   5.021830
    23  O    4.553907   4.389458   2.994520   5.745230   6.400959
    24  H    5.028904   4.838955   2.414550   5.963616   6.715339
    25  O    5.361915   5.526436   2.502591   5.934110   6.835442
    26  H    4.432862   4.753960   2.575282   5.154054   6.029590
    27  H    5.520980   5.590357   2.277189   5.742661   6.684657
    28  O    7.005784   6.183470   3.097593   6.075966   6.879154
    29  H    6.222692   5.560257   2.771681   5.271675   6.117009
    30  H    7.421174   6.511342   3.926816   6.248591   6.982087
                   16         17         18         19         20
    16  O    0.000000
    17  H    0.975457   0.000000
    18  O    2.691367   2.108156   0.000000
    19  H    3.476404   2.850211   0.985881   0.000000
    20  O    4.789240   4.722219   3.080934   2.910378   0.000000
    21  H    5.614201   5.567726   3.866611   3.709629   0.971212
    22  H    2.895678   3.767027   4.527112   5.321343   4.992915
    23  O    2.696908   3.551487   4.423627   4.977434   4.824797
    24  H    2.800738   3.472995   4.116842   4.500962   4.402237
    25  O    4.419956   4.813570   4.578635   4.582391   3.576706
    26  H    4.315457   4.814584   4.561614   4.716115   3.349998
    27  H    4.667823   4.888044   4.248845   4.080520   2.902648
    28  O    5.116795   4.568709   2.752234   1.810511   2.806115
    29  H    5.066969   4.671600   2.781587   2.043127   1.871748
    30  H    5.750047   5.123823   3.181995   2.285077   3.285360
                   21         22         23         24         25
    21  H    0.000000
    22  H    5.511622   0.000000
    23  O    5.546132   1.975934   0.000000
    24  H    5.199768   2.807470   0.978152   0.000000
    25  O    4.271170   4.301209   2.857199   2.076430   0.000000
    26  H    3.936682   3.639152   2.534962   2.043761   0.976487
    27  H    3.601055   4.822955   3.579712   2.781521   0.969859
    28  O    3.432087   6.659995   6.088907   5.430757   4.795657
    29  H    2.466524   6.186084   5.714955   5.100001   4.299895
    30  H    3.713219   7.308618   6.912248   6.309960   5.711540
                   26         27         28         29         30
    26  H    0.000000
    27  H    1.530843   0.000000
    28  O    5.089376   4.008024   0.000000
    29  H    4.466638   3.474049   0.981862   0.000000
    30  H    5.941364   4.907312   0.969335   1.547411   0.000000
 Symmetry turned off by external request.
 Stoichiometry    C6H16O8
 Framework group  C1[X(C6H16O8)]
 Deg. of freedom    84
 Full point group                 C1      NOp   1
 Rotational constants (GHZ):      0.5903383      0.5692485      0.4308130
 Standard basis: 6-31G(d) (6D, 7F)
   242 basis functions,   456 primitive gaussians,   242 cartesian basis functions
    58 alpha electrons       58 beta electrons
       nuclear repulsion energy      1113.9662326889 Hartrees.
 NAtoms=   30 NActive=   30 NUniq=   30 SFac= 1.00D+00 NAtFMM=   60 NAOKFM=F Big=F
 Integral buffers will be    131072 words long.
 Raffenetti 2 integral format.
 Two-electron integral symmetry is turned off.
 One-electron integrals computed using PRISM.
 NBasis=   242 RedAO= T EigKep=  1.48D-03  NBF=   242
 NBsUse=   242 1.00D-06 EigRej= -1.00D+00 NBFU=   242
 ExpMin= 1.61D-01 ExpMax= 5.48D+03 ExpMxC= 8.25D+02 IAcc=1 IRadAn=         1 AccDes= 0.00D+00
 Harris functional with IExCor=  402 and IRadAn=       1 diagonalized for initial guess.
 HarFok:  IExCor=  402 AccDes= 0.00D+00 IRadAn=         1 IDoV= 1 UseB2=F ITyADJ=14
 ICtDFT=  3500011 ScaDFX=  1.000000  1.000000  1.000000  1.000000
 FoFCou: FMM=F IPFlag=           0 FMFlag=      100000 FMFlg1=           0
         NFxFlg=           0 DoJE=T BraDBF=F KetDBF=T FulRan=T
         wScrn=  0.000000 ICntrl=     500 IOpCl=  0 I1Cent=   200000004 NGrid=           0
         NMat0=    1 NMatS0=      1 NMatT0=    0 NMatD0=    1 NMtDS0=    0 NMtDT0=    0
 Symmetry not used in FoFCou.
 Requested convergence on RMS density matrix=1.00D-08 within 128 cycles.
 Requested convergence on MAX density matrix=1.00D-06.
 Requested convergence on             energy=1.00D-06.
 No special actions if energy rises.
 Integral accuracy reduced to 1.0D-05 until final iterations.
 Initial convergence to 1.0D-05 achieved.  Increase integral accuracy.
 SCF Done:  E(RB3LYP) =  -839.985172006     A.U. after   14 cycles
            NFock= 14  Conv=0.36D-08     -V/T= 2.0085
 DoSCS=F DFT=T ScalE2(SS,OS)=  1.000000  1.000000
 Range of M.O.s used for correlation:     1   242
 NBasis=   242 NAE=    58 NBE=    58 NFC=     0 NFV=     0
 NROrb=    242 NOA=    58 NOB=    58 NVA=   184 NVB=   184
 Symmetrizing basis deriv contribution to polar:
 IMax=3 JMax=2 DiffMx= 0.00D+00
 G2DrvN: will do    31 centers at a time, making    1 passes.
 Calling FoFCou, ICntrl=  3107 FMM=F I1Cent=   0 AccDes= 0.00D+00.
 End of G2Drv F.D. properties file   721 does not exist.
 End of G2Drv F.D. properties file   722 does not exist.
 End of G2Drv F.D. properties file   788 does not exist.
          IDoAtm=111111111111111111111111111111
          Differentiating once with respect to nuclear coordinates.
          There are    93 degrees of freedom in the 1st order CPHF.  IDoFFX=6 NUNeed=     0.
     87 vectors produced by pass  0 Test12= 1.15D-14 1.08D-09 XBig12= 1.23D-01 8.17D-02.
 AX will form    87 AO Fock derivatives at one time.
     87 vectors produced by pass  1 Test12= 1.15D-14 1.08D-09 XBig12= 1.78D-02 1.94D-02.
     87 vectors produced by pass  2 Test12= 1.15D-14 1.08D-09 XBig12= 1.60D-04 2.00D-03.
     87 vectors produced by pass  3 Test12= 1.15D-14 1.08D-09 XBig12= 3.23D-07 5.98D-05.
     87 vectors produced by pass  4 Test12= 1.15D-14 1.08D-09 XBig12= 4.07D-10 1.69D-06.
     68 vectors produced by pass  5 Test12= 1.15D-14 1.08D-09 XBig12= 3.40D-13 4.69D-08.
      2 vectors produced by pass  6 Test12= 1.15D-14 1.08D-09 XBig12= 2.71D-16 1.54D-09.
 InvSVY:  IOpt=1 It=  1 EMax= 5.55D-16
 Solved reduced A of dimension   505 with    93 vectors.
 End of Minotr F.D. properties file   721 does not exist.
 End of Minotr F.D. properties file   722 does not exist.
 End of Minotr F.D. properties file   788 does not exist.

 **********************************************************************

            Population analysis using the SCF density.

 **********************************************************************

 Alpha  occ. eigenvalues --  -19.19051 -19.17212 -19.16818 -19.16058 -19.14174
 Alpha  occ. eigenvalues --  -19.14126 -19.13923 -19.13597 -10.28776 -10.25844
 Alpha  occ. eigenvalues --  -10.25537 -10.25288 -10.24093 -10.23806  -1.07226
 Alpha  occ. eigenvalues --   -1.05512  -1.04282  -1.03044  -1.01767  -1.00611
 Alpha  occ. eigenvalues --   -0.99782  -0.99503  -0.79339  -0.76583  -0.70625
 Alpha  occ. eigenvalues --   -0.64884  -0.63359  -0.57314  -0.56854  -0.54683
 Alpha  occ. eigenvalues --   -0.54012  -0.53335  -0.51586  -0.50389  -0.49097
 Alpha  occ. eigenvalues --   -0.48328  -0.47253  -0.46082  -0.45026  -0.44493
 Alpha  occ. eigenvalues --   -0.42547  -0.40569  -0.39397  -0.38295  -0.37866
 Alpha  occ. eigenvalues --   -0.36717  -0.35668  -0.35296  -0.34404  -0.32333
 Alpha  occ. eigenvalues --   -0.31512  -0.30973  -0.30116  -0.29512  -0.28553
 Alpha  occ. eigenvalues --   -0.27277  -0.26480  -0.25994
 Alpha virt. eigenvalues --    0.03470   0.04538   0.06567   0.07243   0.07908
 Alpha virt. eigenvalues --    0.09445   0.10401   0.12190   0.13994   0.14451
 Alpha virt. eigenvalues --    0.15355   0.15432   0.17292   0.18045   0.18783
 Alpha virt. eigenvalues --    0.19975   0.20226   0.20832   0.21439   0.23010
 Alpha virt. eigenvalues --    0.23437   0.25010   0.26302   0.27057   0.30320
 Alpha virt. eigenvalues --    0.31609   0.32908   0.35476   0.50820   0.52224
 Alpha virt. eigenvalues --    0.54540   0.55002   0.56505   0.56832   0.58735
 Alpha virt. eigenvalues --    0.61032   0.61948   0.64136   0.66020   0.66709
 Alpha virt. eigenvalues --    0.67961   0.69714   0.73267   0.74484   0.76368
 Alpha virt. eigenvalues --    0.76952   0.77470   0.78271   0.80747   0.81595
 Alpha virt. eigenvalues --    0.82211   0.82394   0.83239   0.84977   0.85430
 Alpha virt. eigenvalues --    0.86352   0.86497   0.87982   0.88348   0.88646
 Alpha virt. eigenvalues --    0.89944   0.90503   0.91957   0.94136   0.95476
 Alpha virt. eigenvalues --    0.97031   0.98110   0.99167   0.99732   1.01521
 Alpha virt. eigenvalues --    1.03444   1.05354   1.05939   1.06635   1.08183
 Alpha virt. eigenvalues --    1.08464   1.09519   1.11591   1.14227   1.17018
 Alpha virt. eigenvalues --    1.17894   1.20116   1.20702   1.24032   1.25818
 Alpha virt. eigenvalues --    1.27439   1.29208   1.29924   1.30970   1.34182
 Alpha virt. eigenvalues --    1.38044   1.39556   1.40542   1.46805   1.46868
 Alpha virt. eigenvalues --    1.48733   1.52743   1.55386   1.56714   1.59042
 Alpha virt. eigenvalues --    1.62676   1.63976   1.66964   1.68427   1.69194
 Alpha virt. eigenvalues --    1.70541   1.71201   1.71627   1.73110   1.73366
 Alpha virt. eigenvalues --    1.75051   1.76200   1.76569   1.78414   1.79969
 Alpha virt. eigenvalues --    1.80558   1.81893   1.83804   1.84629   1.86012
 Alpha virt. eigenvalues --    1.86605   1.88845   1.90725   1.92144   1.95854
 Alpha virt. eigenvalues --    1.97577   2.00275   2.01356   2.03616   2.05066
 Alpha virt. eigenvalues --    2.07204   2.10152   2.10647   2.13358   2.15730
 Alpha virt. eigenvalues --    2.20469   2.22397   2.25094   2.27369   2.29890
 Alpha virt. eigenvalues --    2.31014   2.31727   2.33472   2.35284   2.37878
 Alpha virt. eigenvalues --    2.39411   2.42287   2.44596   2.45202   2.46743
 Alpha virt. eigenvalues --    2.48888   2.50526   2.54211   2.57634   2.58017
 Alpha virt. eigenvalues --    2.59663   2.61112   2.64076   2.66589   2.69496
 Alpha virt. eigenvalues --    2.71882   2.75183   2.79881   2.87025   2.89629
 Alpha virt. eigenvalues --    2.93486   2.95178   2.98726   3.05129   3.10491
 Alpha virt. eigenvalues --    3.67393   3.71364   3.73834   3.79822   3.88814
 Alpha virt. eigenvalues --    3.93813   4.04007   4.13229   4.29500   4.34738
 Alpha virt. eigenvalues --    4.41164   4.56181   4.68480   4.78159
          Condensed to atoms (all electrons):
               1          2          3          4          5          6
     1  H    0.601038   0.360724   0.001707   0.004377  -0.000078  -0.033774
     2  C    0.360724   4.990106  -0.032761  -0.018487   0.002038   0.219824
     3  C    0.001707  -0.032761   5.025653  -0.013281   0.309062  -0.002041
     4  C    0.004377  -0.018487  -0.013281   4.665261   0.265752   0.178057
     5  C   -0.000078   0.002038   0.309062   0.265752   5.055123  -0.045377
     6  O   -0.033774   0.219824  -0.002041   0.178057  -0.045377   8.354162
     7  C   -0.048587   0.244779   0.273085  -0.016434  -0.030142  -0.040155
     8  H    0.000070  -0.002169  -0.059789  -0.050899   0.338208   0.003871
     9  H    0.003830  -0.053469  -0.034604   0.000788  -0.003758   0.002755
    10  C   -0.046655   0.314188   0.001141  -0.005129  -0.005192  -0.040358
    11  H   -0.008406  -0.031037  -0.000091  -0.000352   0.000425   0.004841
    12  H    0.006739  -0.034984   0.000272   0.002118  -0.001042   0.000968
    13  H   -0.000120  -0.001033   0.317830  -0.002297  -0.045987   0.000133
    14  O    0.005806  -0.048881   0.000391   0.000021   0.000073   0.001128
    15  H   -0.000234   0.005221  -0.000015  -0.000007  -0.000003  -0.000097
    16  O    0.000001  -0.000030  -0.030550  -0.048351   0.258290   0.001027
    17  H    0.000001  -0.000112  -0.014889   0.006167  -0.037978  -0.000082
    18  O   -0.000067   0.003791   0.223627   0.002040  -0.046259   0.000073
    19  H    0.000006  -0.000047  -0.020966  -0.000093   0.004887   0.000009
    20  O    0.000549  -0.028900  -0.030384   0.000035   0.001806   0.001285
    21  H    0.005035  -0.003854   0.005188   0.000010  -0.000206  -0.000055
    22  H   -0.000300   0.000071   0.006066   0.390383  -0.066330  -0.045044
    23  O   -0.000100   0.002486  -0.005196   0.320533  -0.031244  -0.056468
    24  H   -0.000032  -0.000265  -0.000285  -0.029452  -0.009338   0.002032
    25  O    0.000386   0.001007  -0.008420   0.002529  -0.000833  -0.012124
    26  H   -0.001462  -0.000673   0.002024  -0.001503   0.000301   0.037793
    27  H    0.000110   0.000386   0.000113   0.000055   0.000048   0.000527
    28  O    0.000001   0.000004   0.003201   0.000000   0.000046   0.000000
    29  H   -0.000017   0.000538  -0.001771  -0.000002   0.000109  -0.000010
    30  H   -0.000000   0.000003  -0.000279  -0.000000  -0.000002  -0.000000
               7          8          9         10         11         12
     1  H   -0.048587   0.000070   0.003830  -0.046655  -0.008406   0.006739
     2  C    0.244779  -0.002169  -0.053469   0.314188  -0.031037  -0.034984
     3  C    0.273085  -0.059789  -0.034604   0.001141  -0.000091   0.000272
     4  C   -0.016434  -0.050899   0.000788  -0.005129  -0.000352   0.002118
     5  C   -0.030142   0.338208  -0.003758  -0.005192   0.000425  -0.001042
     6  O   -0.040155   0.003871   0.002755  -0.040358   0.004841   0.000968
     7  C    5.157158  -0.002746   0.351375  -0.042362   0.006219  -0.009709
     8  H   -0.002746   0.687477   0.004348  -0.001626  -0.000026   0.007485
     9  H    0.351375   0.004348   0.590599  -0.000603   0.000581   0.000179
    10  C   -0.042362  -0.001626  -0.000603   4.981533   0.355235   0.356719
    11  H    0.006219  -0.000026   0.000581   0.355235   0.609847  -0.051401
    12  H   -0.009709   0.007485   0.000179   0.356719  -0.051401   0.625088
    13  H   -0.048191   0.008132   0.006248  -0.000030   0.000007   0.000013
    14  O    0.003401  -0.000092   0.009158   0.216776  -0.033091  -0.035411
    15  H   -0.000065   0.000005  -0.000235  -0.018464  -0.002887  -0.004670
    16  O    0.003871  -0.042462  -0.000058   0.000026  -0.000002   0.000000
    17  H    0.001264   0.000077  -0.000030  -0.000001   0.000000   0.000002
    18  O   -0.046488  -0.000728   0.002757  -0.000039   0.000001  -0.000069
    19  H   -0.000357  -0.000296  -0.000224   0.000002  -0.000000   0.000001
    20  O    0.166101  -0.000056  -0.036345   0.002977  -0.000092  -0.000001
    21  H   -0.015717   0.000016  -0.003180  -0.000579  -0.000000   0.000053
    22  H   -0.000671  -0.004743   0.000042   0.003114  -0.000157  -0.000606
    23  O    0.000544   0.003545  -0.000003  -0.000107   0.000002   0.000021
    24  H    0.000122   0.000318   0.000002   0.000019   0.000000   0.000001
    25  O    0.000402  -0.000009  -0.000008  -0.000004   0.000000   0.000000
    26  H   -0.000368  -0.000015  -0.000002   0.000447  -0.000006  -0.000009
    27  H   -0.001070   0.000002   0.000059   0.000019   0.000000  -0.000000
    28  O    0.000583   0.000000  -0.000006   0.000000  -0.000000  -0.000000
    29  H   -0.003033  -0.000002   0.000244  -0.000015   0.000000  -0.000000
    30  H    0.000225   0.000000   0.000032  -0.000000   0.000000   0.000000
              13         14         15         16         17         18
     1  H   -0.000120   0.005806  -0.000234   0.000001   0.000001  -0.000067
     2  C   -0.001033  -0.048881   0.005221  -0.000030  -0.000112   0.003791
     3  C    0.317830   0.000391  -0.000015  -0.030550  -0.014889   0.223627
     4  C   -0.002297   0.000021  -0.000007  -0.048351   0.006167   0.002040
     5  C   -0.045987   0.000073  -0.000003   0.258290  -0.037978  -0.046259
     6  O    0.000133   0.001128  -0.000097   0.001027  -0.000082   0.000073
     7  C   -0.048191   0.003401  -0.000065   0.003871   0.001264  -0.046488
     8  H    0.008132  -0.000092   0.000005  -0.042462   0.000077  -0.000728
     9  H    0.006248   0.009158  -0.000235  -0.000058  -0.000030   0.002757
    10  C   -0.000030   0.216776  -0.018464   0.000026  -0.000001  -0.000039
    11  H    0.000007  -0.033091  -0.002887  -0.000002   0.000000   0.000001
    12  H    0.000013  -0.035411  -0.004670   0.000000   0.000002  -0.000069
    13  H    0.639233  -0.000005   0.000000   0.001155   0.000048  -0.034123
    14  O   -0.000005   8.273685   0.235203  -0.000000   0.000000  -0.000000
    15  H    0.000000   0.235203   0.380807  -0.000000  -0.000000   0.000000
    16  O    0.001155  -0.000000  -0.000000   8.263360   0.233711  -0.010902
    17  H    0.000048   0.000000  -0.000000   0.233711   0.365158   0.036057
    18  O   -0.034123  -0.000000   0.000000  -0.010902   0.036057   8.377101
    19  H   -0.004954  -0.000000   0.000000  -0.000029  -0.000561   0.205734
    20  O   -0.003308  -0.000360   0.000013  -0.000011  -0.000009   0.001177
    21  H    0.000053   0.001277  -0.000039   0.000001   0.000001  -0.000236
    22  H    0.000031  -0.000018   0.000002   0.001642  -0.000400  -0.000049
    23  O    0.001002   0.000000  -0.000000  -0.001128   0.000181  -0.000007
    24  H    0.006448  -0.000000   0.000000   0.004202  -0.000288  -0.000053
    25  O    0.024004   0.000000  -0.000000  -0.000005   0.000001   0.000032
    26  H   -0.003385  -0.000002   0.000000  -0.000007   0.000002  -0.000002
    27  H    0.002627  -0.000000   0.000000  -0.000004  -0.000002  -0.000021
    28  O    0.000875  -0.000000   0.000000  -0.000001   0.000014  -0.026663
    29  H    0.000063  -0.000000  -0.000000  -0.000001  -0.000008   0.004988
    30  H   -0.000029   0.000000  -0.000000   0.000000  -0.000001   0.001741
              19         20         21         22         23         24
     1  H    0.000006   0.000549   0.005035  -0.000300  -0.000100  -0.000032
     2  C   -0.000047  -0.028900  -0.003854   0.000071   0.002486  -0.000265
     3  C   -0.020966  -0.030384   0.005188   0.006066  -0.005196  -0.000285
     4  C   -0.000093   0.000035   0.000010   0.390383   0.320533  -0.029452
     5  C    0.004887   0.001806  -0.000206  -0.066330  -0.031244  -0.009338
     6  O    0.000009   0.001285  -0.000055  -0.045044  -0.056468   0.002032
     7  C   -0.000357   0.166101  -0.015717  -0.000671   0.000544   0.000122
     8  H   -0.000296  -0.000056   0.000016  -0.004743   0.003545   0.000318
     9  H   -0.000224  -0.036345  -0.003180   0.000042  -0.000003   0.000002
    10  C    0.000002   0.002977  -0.000579   0.003114  -0.000107   0.000019
    11  H   -0.000000  -0.000092  -0.000000  -0.000157   0.000002   0.000000
    12  H    0.000001  -0.000001   0.000053  -0.000606   0.000021   0.000001
    13  H   -0.004954  -0.003308   0.000053   0.000031   0.001002   0.006448
    14  O   -0.000000  -0.000360   0.001277  -0.000018   0.000000  -0.000000
    15  H    0.000000   0.000013  -0.000039   0.000002  -0.000000   0.000000
    16  O   -0.000029  -0.000011   0.000001   0.001642  -0.001128   0.004202
    17  H   -0.000561  -0.000009   0.000001  -0.000400   0.000181  -0.000288
    18  O    0.205734   0.001177  -0.000236  -0.000049  -0.000007  -0.000053
    19  H    0.322501   0.001160  -0.000036   0.000004   0.000002   0.000004
    20  O    0.001160   8.317279   0.228181   0.000004   0.000001  -0.000010
    21  H   -0.000036   0.228181   0.375107  -0.000001   0.000000  -0.000000
    22  H    0.000004   0.000004  -0.000001   0.620145  -0.051731   0.007052
    23  O    0.000002   0.000001   0.000000  -0.051731   8.204256   0.222736
    24  H    0.000004  -0.000010  -0.000000   0.007052   0.222736   0.344084
    25  O   -0.000001  -0.000813   0.000027  -0.000066  -0.010325   0.037111
    26  H   -0.000001   0.000750  -0.000022   0.000424   0.005264  -0.006968
    27  H   -0.000007   0.006382  -0.000166   0.000008   0.000583  -0.001998
    28  O    0.077435  -0.018707   0.000817  -0.000000  -0.000000  -0.000000
    29  H   -0.009358   0.054904  -0.002702  -0.000000   0.000000  -0.000000
    30  H   -0.003675   0.000686  -0.000041   0.000000   0.000000   0.000000
              25         26         27         28         29         30
     1  H    0.000386  -0.001462   0.000110   0.000001  -0.000017  -0.000000
     2  C    0.001007  -0.000673   0.000386   0.000004   0.000538   0.000003
     3  C   -0.008420   0.002024   0.000113   0.003201  -0.001771  -0.000279
     4  C    0.002529  -0.001503   0.000055   0.000000  -0.000002  -0.000000
     5  C   -0.000833   0.000301   0.000048   0.000046   0.000109  -0.000002
     6  O   -0.012124   0.037793   0.000527   0.000000  -0.000010  -0.000000
     7  C    0.000402  -0.000368  -0.001070   0.000583  -0.003033   0.000225
     8  H   -0.000009  -0.000015   0.000002   0.000000  -0.000002   0.000000
     9  H   -0.000008  -0.000002   0.000059  -0.000006   0.000244   0.000032
    10  C   -0.000004   0.000447   0.000019   0.000000  -0.000015  -0.000000
    11  H    0.000000  -0.000006   0.000000  -0.000000   0.000000   0.000000
    12  H    0.000000  -0.000009  -0.000000  -0.000000  -0.000000   0.000000
    13  H    0.024004  -0.003385   0.002627   0.000875   0.000063  -0.000029
    14  O    0.000000  -0.000002  -0.000000  -0.000000  -0.000000   0.000000
    15  H   -0.000000   0.000000   0.000000   0.000000  -0.000000  -0.000000
    16  O   -0.000005  -0.000007  -0.000004  -0.000001  -0.000001   0.000000
    17  H    0.000001   0.000002  -0.000002   0.000014  -0.000008  -0.000001
    18  O    0.000032  -0.000002  -0.000021  -0.026663   0.004988   0.001741
    19  H   -0.000001  -0.000001  -0.000007   0.077435  -0.009358  -0.003675
    20  O   -0.000813   0.000750   0.006382  -0.018707   0.054904   0.000686
    21  H    0.000027  -0.000022  -0.000166   0.000817  -0.002702  -0.000041
    22  H   -0.000066   0.000424   0.000008  -0.000000  -0.000000   0.000000
    23  O   -0.010325   0.005264   0.000583  -0.000000   0.000000   0.000000
    24  H    0.037111  -0.006968  -0.001998  -0.000000  -0.000000   0.000000
    25  O    8.314963   0.217859   0.236207  -0.000001  -0.000002   0.000000
    26  H    0.217859   0.347741  -0.016368   0.000000  -0.000007  -0.000000
    27  H    0.236207  -0.016368   0.377307   0.000019   0.000087  -0.000001
    28  O   -0.000001   0.000000   0.000019   8.314999   0.209739   0.239593
    29  H   -0.000002  -0.000007   0.000087   0.209739   0.334971  -0.013439
    30  H    0.000000  -0.000000  -0.000001   0.239593  -0.013439   0.378301
 Mulliken charges:
               1
     1  H    0.149454
     2  C    0.111534
     3  C    0.085963
     4  C    0.348159
     5  C    0.087599
     6  O   -0.532900
     7  C    0.096965
     8  H    0.112104
     9  H    0.159529
    10  C   -0.071034
    11  H    0.150388
    12  H    0.138243
    13  H    0.135559
    14  O   -0.629059
    15  H    0.405463
    16  O   -0.633744
    17  H    0.411677
    18  O   -0.693411
    19  H    0.428862
    20  O   -0.664292
    21  H    0.411067
    22  H    0.141128
    23  O   -0.604848
    24  H    0.424560
    25  O   -0.801918
    26  H    0.418194
    27  H    0.395096
    28  O   -0.801949
    29  H    0.424723
    30  H    0.396886
 Sum of Mulliken charges =  -0.00000
 Mulliken charges with hydrogens summed into heavy atoms:
               1
     2  C    0.260989
     3  C    0.221522
     4  C    0.489287
     5  C    0.199703
     6  O   -0.532900
     7  C    0.256494
    10  C    0.217597
    14  O   -0.223596
    16  O   -0.222067
    18  O   -0.264549
    20  O   -0.253225
    23  O   -0.180288
    25  O    0.011372
    28  O    0.019660
 APT charges:
               1
     1  H    0.447629
     2  C   -0.343330
     3  C   -0.141866
     4  C   -0.390908
     5  C   -0.210073
     6  O   -0.388563
     7  C   -0.207594
     8  H    0.334415
     9  H    0.400289
    10  C   -0.547458
    11  H    0.528554
    12  H    0.299425
    13  H    0.247774
    14  O   -1.129320
    15  H    0.965916
    16  O   -0.682098
    17  H    0.580306
    18  O   -0.802423
    19  H    0.575476
    20  O   -0.961052
    21  H    0.751464
    22  H    0.548264
    23  O   -0.423104
    24  H    0.423707
    25  O   -0.686976
    26  H    0.297749
    27  H    0.442002
    28  O   -1.013878
    29  H    0.202414
    30  H    0.883259
 Sum of APT charges =  -0.00000
 APT charges with hydrogens summed into heavy atoms:
               1
     2  C    0.104299
     3  C    0.105908
     4  C    0.157356
     5  C    0.124342
     6  O   -0.388563
     7  C    0.192695
    10  C    0.280521
    14  O   -0.163404
    16  O   -0.101792
    18  O   -0.226947
    20  O   -0.209589
    23  O    0.000603
    25  O    0.052775
    28  O    0.071795
 Electronic spatial extent (au):  <R**2>=           3048.5668
 Charge=              0.0000 electrons
 Dipole moment (field-independent basis, Debye):
    X=             -0.8010    Y=              7.6666    Z=             -1.1850  Tot=              7.7989
 Quadrupole moment (field-independent basis, Debye-Ang):
   XX=            -75.8443   YY=            -85.9438   ZZ=            -86.9444
   XY=             -0.8987   XZ=              3.7781   YZ=              1.5351
 Traceless Quadrupole moment (field-independent basis, Debye-Ang):
   XX=              7.0665   YY=             -3.0330   ZZ=             -4.0335
   XY=             -0.8987   XZ=              3.7781   YZ=              1.5351
 Octapole moment (field-independent basis, Debye-Ang**2):
  XXX=             -3.2197  YYY=             72.7494  ZZZ=              0.0462  XYY=             23.6727
  XXY=             43.6520  XXZ=            -25.1226  XZZ=             -0.3435  YZZ=             25.7552
  YYZ=             -5.6584  XYZ=             10.6621
 Hexadecapole moment (field-independent basis, Debye-Ang**3):
 XXXX=          -1357.0901 YYYY=          -1347.2849 ZZZZ=           -759.1500 XXXY=             35.4875
 XXXZ=            -22.6066 YYYX=            -15.1842 YYYZ=            -29.6950 ZZZX=              0.5736
 ZZZY=             41.1974 XXYY=           -331.5630 XXZZ=           -342.2526 YYZZ=           -357.4093
 XXYZ=            -39.7366 YYXZ=             31.9289 ZZXY=            -15.5073
 N-N= 1.113966232689D+03 E-N=-4.200089631759D+03  KE= 8.328861032322D+02
  Exact polarizability:   0.000   0.000   0.000   0.000   0.000   0.000
 Approx polarizability: 129.445   1.224 136.041   3.108   2.554 121.862
 Calling FoFJK, ICntrl=    100147 FMM=F ISym2X=0 I1Cent= 0 IOpClX= 0 NMat=1 NMatS=1 NMatT=0.
 -------------------------------------------------------------------
 Center     Atomic                   Forces (Hartrees/Bohr)
 Number     Number              X              Y              Z
 -------------------------------------------------------------------
      1        1          -0.000000654    0.000002011   -0.000002777
      2        6          -0.000002524    0.000005433   -0.000010741
      3        6          -0.000003652   -0.000002992   -0.000002681
      4        6           0.000011630   -0.000002595    0.000004204
      5        6           0.000004132   -0.000002050    0.000010432
      6        8          -0.000004604    0.000013916    0.000001638
      7        6           0.000000040   -0.000001932   -0.000002491
      8        1           0.000000668   -0.000006084    0.000000258
      9        1           0.000003216   -0.000002452   -0.000002991
     10        6           0.000008396    0.000004540   -0.000011831
     11        1          -0.000001011    0.000000837   -0.000003511
     12        1           0.000001103   -0.000000001   -0.000003794
     13        1           0.000000669    0.000001222    0.000003297
     14        8           0.000004440    0.000004641   -0.000022092
     15        1           0.000005725   -0.000002240   -0.000006000
     16        8          -0.000004704   -0.000013533    0.000015053
     17        1           0.000003098   -0.000003656    0.000002893
     18        8          -0.000002160   -0.000012645    0.000005294
     19        1           0.000004467   -0.000003532    0.000001831
     20        8          -0.000002167    0.000003664   -0.000006071
     21        1           0.000001979    0.000000948   -0.000004510
     22        1          -0.000005226   -0.000001537   -0.000001077
     23        8          -0.000011764    0.000008150    0.000009664
     24        1          -0.000001709   -0.000000213    0.000007500
     25        8          -0.000006954    0.000016245    0.000010280
     26        1          -0.000002236    0.000003059    0.000003896
     27        1          -0.000004811    0.000001408    0.000002704
     28        8           0.000000486   -0.000003873    0.000002927
     29        1           0.000003895   -0.000001361   -0.000001804
     30        1           0.000000232   -0.000005378    0.000000500
 -------------------------------------------------------------------
 Cartesian Forces:  Max     0.000022092 RMS     0.000006113
 IRC-IRC-IRC-IRC-IRC-IRC-IRC-IRC-IRC-IRC-IRC-IRC-IRC-IRC-IRC-IRC-IRC-IRC
          ******** Start new reaction path calculation ********
 Supplied step size of   0.1000 bohr.
    Integration on MW PES will use step size of   0.2230 sqrt(amu)*bohr.
 Point Number:   0          Path Number:   1
 Calculating another point on the path.
 IRC-IRC-IRC-IRC-IRC-IRC-IRC-IRC-IRC-IRC-IRC-IRC-IRC-IRC-IRC-IRC-IRC-IRC
                          Input orientation:                          
 ---------------------------------------------------------------------
 Center     Atomic      Atomic             Coordinates (Angstroms)
 Number     Number       Type             X           Y           Z
 ---------------------------------------------------------------------
      1          1           0       -1.331097    1.405383    1.462511
      2          6           0       -1.236782    0.893830    0.497553
      3          6           0        0.847383   -0.158955   -0.534466
      4          6           0       -1.293544   -1.495447   -0.220577
      5          6           0       -0.205984   -1.029067   -1.223668
      6          8           0       -1.511893   -0.471836    0.800243
      7          6           0        0.205604    1.131532   -0.018773
      8          1           0       -0.692764   -0.414777   -2.002670
      9          1           0        0.185680    1.863327   -0.834340
     10          6           0       -2.306832    1.510254   -0.410808
     11          1           0       -3.294887    1.249555   -0.006231
     12          1           0       -2.239826    1.112507   -1.434447
     13          1           0        1.243204   -0.712638    0.327563
     14          8           0       -2.075524    2.916375   -0.387364
     15          1           0       -2.697038    3.338935   -0.998460
     16          8           0        0.400091   -2.157487   -1.807410
     17          1           0        1.231510   -1.811530   -2.182280
     18          8           0        1.868768    0.076006   -1.489600
     19          1           0        2.680640    0.338820   -0.995878
     20          8           0        1.053003    1.632493    1.044896
     21          1           0        0.724336    2.512623    1.291270
     22          1           0       -2.242039   -1.667100   -0.740415
     23          8           0       -1.011048   -2.671065    0.434838
     24          1           0       -0.162364   -2.576391    0.911934
     25          8           0        0.494676   -1.520286    2.576509
     26          1           0       -0.355160   -1.112196    2.321849
     27          1           0        1.111127   -0.771477    2.596391
     28          8           0        3.704154    1.166286    0.247741
     29          1           0        2.885115    1.490526    0.681369
     30          1           0        4.085796    1.947206   -0.181395
 ---------------------------------------------------------------------
                    Distance matrix (angstroms):
                    1          2          3          4          5
     1  H    0.000000
     2  C    1.096233   0.000000
     3  C    3.343777   2.552873   0.000000
     4  C    3.353954   2.495511   2.543287   0.000000
     5  C    3.795785   2.778970   1.530254   1.551287   0.000000
     6  O    1.998809   1.425605   2.728649   1.462029   2.472271
     7  C    2.151894   1.550345   1.530744   3.031368   2.507861
     8  H    3.965845   2.873937   2.143157   2.169018   1.105056
     9  H    2.790314   2.176525   2.148814   3.721045   2.944643
    10  C    2.114801   1.533006   3.570801   3.177606   3.394474
    11  H    2.457226   2.148520   4.406965   3.403873   4.026859
    12  H    3.050235   2.187816   3.457954   3.028259   2.960959
    13  H    3.521525   2.959723   1.098331   2.710782   2.146297
    14  O    2.501861   2.361622   4.245313   4.483691   4.445345
    15  H    3.414792   3.216977   5.001344   5.093736   5.033439
    16  O    5.136481   4.159656   2.411346   2.413450   1.407627
    17  H    5.495451   4.537944   2.365132   3.213112   1.896728
    18  O    4.552070   3.776513   1.417997   3.752347   2.365693
    19  H    4.824444   4.229014   1.954869   4.445196   3.202437
    20  O    2.431031   2.467453   2.397071   4.109953   3.716898
    21  H    2.340963   2.663919   3.238175   4.735203   4.442294
    22  H    3.888811   3.016864   3.444046   1.095144   2.187725
    23  O    4.216156   3.572585   3.271699   1.375300   2.468791
    24  H    4.186119   3.656298   2.992601   1.931473   2.637596
    25  O    3.624082   3.626011   3.414057   3.319945   3.895326
    26  H    2.833570   2.851220   3.242424   2.737037   3.549628
    27  H    3.462493   3.562449   3.201095   3.773842   4.048949
    28  O    5.185227   4.954743   3.244880   5.681649   4.719513
    29  H    4.288808   4.168917   2.889877   5.214474   4.419549
    30  H    5.686715   5.468126   3.879161   6.386759   5.325778
                    6          7          8          9         10
     6  O    0.000000
     7  C    2.488247   0.000000
     8  H    2.920710   2.670952   0.000000
     9  H    3.317620   1.095934   2.706735   0.000000
    10  C    2.455046   2.570886   2.974051   2.552774   0.000000
    11  H    2.606272   3.502503   3.677882   3.629990   1.099045
    12  H    2.834407   2.825708   2.246970   2.609011   1.100240
    13  H    2.805703   2.144183   3.044121   3.017279   4.253139
    14  O    3.634290   2.919772   3.951937   2.534115   1.425212
    15  H    4.377428   3.775943   4.372174   3.242594   1.960018
    16  O    3.646500   3.748959   2.066276   4.142437   4.767625
    17  H    4.268078   3.794056   2.384536   4.051578   5.166452
    18  O    4.119755   2.458370   2.658111   2.540998   4.544942
    19  H    4.632553   2.776496   3.600193   2.928317   5.156494
    20  O    3.326672   1.449289   4.065301   2.082562   3.663674
    21  H    3.761492   1.972994   4.629026   2.286909   3.617982
    22  H    2.082162   3.787357   2.358359   4.285622   3.195062
    23  O    2.284946   4.018178   3.336703   4.858363   4.458431
    24  H    2.502570   3.840613   3.667263   4.783483   4.800943
    25  O    2.877618   3.721718   4.858090   4.814375   5.094770
    26  H    2.015782   3.290483   4.393385   4.371244   4.260714
    27  H    3.193144   3.358645   4.953041   4.423637   5.092346
    28  O    5.495075   3.508858   5.186231   3.746522   6.056727
    29  H    4.816501   2.792643   4.861631   3.118222   5.305615
    30  H    6.176528   3.968332   5.632995   3.955285   6.411649
                   11         12         13         14         15
    11  H    0.000000
    12  H    1.780936   0.000000
    13  H    4.955390   4.308982   0.000000
    14  O    2.100095   2.092204   4.969387   0.000000
    15  H    2.389027   2.314327   5.805091   0.968646   0.000000
    16  O    5.339011   4.219138   2.712294   5.821449   6.360602
    17  H    5.881641   4.599938   2.739893   6.042457   6.584999
    18  O    5.499176   4.237679   2.077348   4.983981   5.633339
    19  H    6.125011   5.000192   2.218847   5.443819   6.157931
    20  O    4.489506   4.154546   2.459752   3.672520   4.598919
    21  H    4.408289   4.263346   3.405915   3.289384   4.198983
    22  H    3.186596   2.864943   3.768089   4.600067   5.033289
    23  O    4.558698   4.395400   2.988076   5.747053   6.404452
    24  H    5.029274   4.840384   2.406385   5.959768   6.713066
    25  O    5.357551   5.522396   2.504065   5.922367   6.824915
    26  H    4.431684   4.755105   2.586810   5.150619   6.026725
    27  H    5.501925   5.570093   2.273431   5.714700   6.657369
    28  O    7.004142   6.177665   3.097257   6.072137   6.873767
    29  H    6.222804   5.557391   2.770376   5.270975   6.115462
    30  H    7.415651   6.502335   3.926084   6.240478   6.972183
                   16         17         18         19         20
    16  O    0.000000
    17  H    0.975434   0.000000
    18  O    2.691933   2.109193   0.000000
    19  H    3.477217   2.851584   0.985885   0.000000
    20  O    4.788099   4.723116   3.084120   2.913340   0.000000
    21  H    5.613990   5.569657   3.870409   3.712625   0.971263
    22  H    2.891334   3.763692   4.527520   5.321818   4.993191
    23  O    2.698658   3.552066   4.420770   4.973422   4.811766
    24  H    2.808322   3.478801   4.114374   4.496763   4.382865
    25  O    4.430995   4.824294   4.579248   4.582211   3.549307
    26  H    4.325947   4.826361   4.569992   4.725340   3.338690
    27  H    4.671195   4.892024   4.241176   4.074375   2.861746
    28  O    5.117416   4.570159   2.752400   1.810765   2.807384
    29  H    5.067284   4.673165   2.783332   2.044846   1.873217
    30  H    5.751247   5.126264   3.182452   2.285771   3.286436
                   21         22         23         24         25
    21  H    0.000000
    22  H    5.513367   0.000000
    23  O    5.533142   1.975982   0.000000
    24  H    5.179595   2.807511   0.978187   0.000000
    25  O    4.238978   4.302691   2.859765   2.077948   0.000000
    26  H    3.920041   3.639463   2.533984   2.041788   0.976529
    27  H    3.555033   4.814576   3.575525   2.777930   0.970114
    28  O    3.432330   6.660461   6.082220   5.422061   4.789736
    29  H    2.466906   6.187066   5.706112   5.087249   4.286110
    30  H    3.713199   7.308708   6.905505   6.301203   5.703128
                   26         27         28         29         30
    26  H    0.000000
    27  H    1.530183   0.000000
    28  O    5.096217   3.999359   0.000000
    29  H    4.468190   3.454128   0.981829   0.000000
    30  H    5.945440   4.894485   0.969352   1.547434   0.000000
 Symmetry turned off by external request.
 Stoichiometry    C6H16O8
 Framework group  C1[X(C6H16O8)]
 Deg. of freedom    84
 Full point group                 C1      NOp   1
 Rotational constants (GHZ):      0.5905805      0.5690157      0.4316605
 Standard basis: 6-31G(d) (6D, 7F)
   242 basis functions,   456 primitive gaussians,   242 cartesian basis functions
    58 alpha electrons       58 beta electrons
       nuclear repulsion energy      1114.1647093876 Hartrees.
 NAtoms=   30 NActive=   30 NUniq=   30 SFac= 1.00D+00 NAtFMM=   60 NAOKFM=F Big=F
 Integral buffers will be    131072 words long.
 Raffenetti 2 integral format.
 Two-electron integral symmetry is turned off.
 One-electron integrals computed using PRISM.
 NBasis=   242 RedAO= T EigKep=  1.48D-03  NBF=   242
 NBsUse=   242 1.00D-06 EigRej= -1.00D+00 NBFU=   242
 Initial guess from the checkpoint file:  "/scratch/10502193.yak.local/Gau-13092.chk"
 B after Tr=     0.009272    0.050007    0.001810
         Rot=    1.000000   -0.000009    0.000033    0.000001 Ang=  -0.00 deg.
 ExpMin= 1.61D-01 ExpMax= 5.48D+03 ExpMxC= 8.25D+02 IAcc=1 IRadAn=         1 AccDes= 0.00D+00
 Harris functional with IExCor=  402 and IRadAn=       1 diagonalized for initial guess.
 HarFok:  IExCor=  402 AccDes= 0.00D+00 IRadAn=         1 IDoV= 1 UseB2=F ITyADJ=14
 ICtDFT=  3500011 ScaDFX=  1.000000  1.000000  1.000000  1.000000
 FoFCou: FMM=F IPFlag=           0 FMFlag=      100000 FMFlg1=           0
         NFxFlg=           0 DoJE=T BraDBF=F KetDBF=T FulRan=T
         wScrn=  0.000000 ICntrl=     500 IOpCl=  0 I1Cent=   200000004 NGrid=           0
         NMat0=    1 NMatS0=      1 NMatT0=    0 NMatD0=    1 NMtDS0=    0 NMtDT0=    0
 Symmetry not used in FoFCou.
 Requested convergence on RMS density matrix=1.00D-08 within 128 cycles.
 Requested convergence on MAX density matrix=1.00D-06.
 Requested convergence on             energy=1.00D-06.
 No special actions if energy rises.
 Integral accuracy reduced to 1.0D-05 until final iterations.
 Initial convergence to 1.0D-05 achieved.  Increase integral accuracy.
 SCF Done:  E(RB3LYP) =  -839.985173790     A.U. after    9 cycles
            NFock=  9  Conv=0.97D-08     -V/T= 2.0085
 DoSCS=F DFT=T ScalE2(SS,OS)=  1.000000  1.000000
 Range of M.O.s used for correlation:     1   242
 NBasis=   242 NAE=    58 NBE=    58 NFC=     0 NFV=     0
 NROrb=    242 NOA=    58 NOB=    58 NVA=   184 NVB=   184
 Symmetrizing basis deriv contribution to polar:
 IMax=3 JMax=2 DiffMx= 0.00D+00
 Calling FoFJK, ICntrl=      2147 FMM=F ISym2X=0 I1Cent= 0 IOpClX= 0 NMat=1 NMatS=1 NMatT=0.
 -------------------------------------------------------------------
 Center     Atomic                   Forces (Hartrees/Bohr)
 Number     Number              X              Y              Z
 -------------------------------------------------------------------
      1        1          -0.000000919    0.000001051   -0.000005900
      2        6          -0.000002445    0.000003772   -0.000010079
      3        6           0.000003023   -0.000001994   -0.000000638
      4        6           0.000010880   -0.000015025    0.000007059
      5        6           0.000000562   -0.000003910    0.000005070
      6        8          -0.000013953    0.000005538   -0.000013657
      7        6           0.000004612    0.000003071    0.000002606
      8        1           0.000002220   -0.000008803    0.000003293
      9        1           0.000004637   -0.000014422    0.000014653
     10        6           0.000013222    0.000005547   -0.000016771
     11        1           0.000003291    0.000002573   -0.000006044
     12        1           0.000001629    0.000001629    0.000000187
     13        1          -0.000000755    0.000002810   -0.000003446
     14        8           0.000007067    0.000004345   -0.000024358
     15        1           0.000009400   -0.000003789   -0.000003252
     16        8          -0.000010480   -0.000005996    0.000004761
     17        1           0.000000947   -0.000003184    0.000003252
     18        8          -0.000010238   -0.000008080    0.000002708
     19        1           0.000003328   -0.000003325    0.000001424
     20        8          -0.000019750   -0.000006643    0.000005866
     21        1           0.000007664   -0.000024102   -0.000011202
     22        1           0.000006510   -0.000000516    0.000005896
     23        8           0.000021640    0.000023919    0.000019333
     24        1          -0.000020818    0.000000546   -0.000002484
     25        8          -0.000001357    0.000197979   -0.000006726
     26        1           0.000084728   -0.000034457    0.000032546
     27        1          -0.000105855   -0.000106927   -0.000001594
     28        8          -0.000015543    0.000017783    0.000000569
     29        1           0.000024779   -0.000010036   -0.000011989
     30        1          -0.000008027   -0.000019357    0.000008917
 -------------------------------------------------------------------
 Cartesian Forces:  Max     0.000197979 RMS     0.000029765
 IRC-IRC-IRC-IRC-IRC-IRC-IRC-IRC-IRC-IRC-IRC-IRC-IRC-IRC-IRC-IRC-IRC-IRC
 Pt  1 Step number   1 out of a maximum of  20
 Modified Bulirsch-Stoer Extrapolation Cycles:
    EPS =    0.000010000000000
 Maximum DWI energy   std dev =  0.000000211 at pt  1536
 Maximum DWI gradient std dev =  1.570831568 at pt     5
 WARNING: Bulirsch-Stoer Method is not Converging
 CORRECTOR INTEGRATION CONVERGENCE:
   Recorrection delta-x convergence threshold:    0.010000
   Delta-x Convergence NOT Met
 IRC-IRC-IRC-IRC-IRC-IRC-IRC-IRC-IRC-IRC-IRC-IRC-IRC-IRC-IRC-IRC-IRC-IRC
                          Input orientation:                          
 ---------------------------------------------------------------------
 Center     Atomic      Atomic             Coordinates (Angstroms)
 Number     Number       Type             X           Y           Z
 ---------------------------------------------------------------------
      1          1           0       -1.330681    1.407230    1.461027
      2          6           0       -1.236576    0.894807    0.496526
      3          6           0        0.847588   -0.159240   -0.533792
      4          6           0       -1.293972   -1.494831   -0.219905
      5          6           0       -0.205512   -1.029891   -1.222746
      6          8           0       -1.511533   -0.470610    0.800488
      7          6           0        0.205708    1.132018   -0.020337
      8          1           0       -0.691560   -0.416350   -2.002791
      9          1           0        0.185574    1.862261   -0.837247
     10          6           0       -2.306681    1.510412   -0.412282
     11          1           0       -3.294769    1.250042   -0.007586
     12          1           0       -2.239585    1.111861   -1.435602
     13          1           0        1.242586   -0.711944    0.329232
     14          8           0       -2.075390    2.916555   -0.389934
     15          1           0       -2.696066    3.338519   -1.002289
     16          8           0        0.400697   -2.159104   -1.804797
     17          1           0        1.232529   -1.813773   -2.179333
     18          8           0        1.869744    0.074265   -1.488448
     19          1           0        2.681408    0.337178   -0.994439
     20          8           0        1.053000    1.635141    1.042273
     21          1           0        0.724406    2.515824    1.286601
     22          1           0       -2.242462   -1.665604   -0.740027
     23          8           0       -1.013013   -2.670474    0.435993
     24          1           0       -0.164330   -2.576640    0.913222
     25          8           0        0.493400   -1.521490    2.577174
     26          1           0       -0.355131   -1.111128    2.322234
     27          1           0        1.111597   -0.774413    2.598913
     28          8           0        3.704479    1.165677    0.248815
     29          1           0        2.885192    1.491260    0.680896
     30          1           0        4.087120    1.945518   -0.181331
 ---------------------------------------------------------------------
                    Distance matrix (angstroms):
                    1          2          3          4          5
     1  H    0.000000
     2  C    1.096218   0.000000
     3  C    3.343350   2.552706   0.000000
     4  C    3.353929   2.495383   2.543345   0.000000
     5  C    3.795814   2.779110   1.530265   1.551323   0.000000
     6  O    1.998825   1.425607   2.728132   1.462041   2.472238
     7  C    2.151900   1.550354   1.530684   3.031370   2.507736
     8  H    3.966353   2.874503   2.143138   2.169033   1.105054
     9  H    2.790725   2.176563   2.148678   3.720246   2.943825
    10  C    2.114831   1.532981   3.570983   3.177118   3.394835
    11  H    2.457474   2.148600   4.407050   3.403321   4.027185
    12  H    3.050215   2.187752   3.458265   3.027696   2.961395
    13  H    3.520448   2.959033   1.098323   2.710828   2.146326
    14  O    2.501742   2.361544   4.245588   4.483286   4.445724
    15  H    3.414979   3.216875   5.001129   5.093060   5.033335
    16  O    5.136342   4.159702   2.411352   2.413513   1.407620
    17  H    5.495191   4.537963   2.365050   3.213143   1.896706
    18  O    4.551804   3.776590   1.417990   3.752381   2.365681
    19  H    4.824022   4.229010   1.954872   4.445201   3.202392
    20  O    2.430891   2.467405   2.397077   4.110729   3.717063
    21  H    2.341536   2.664088   3.238051   4.735902   4.442260
    22  H    3.888225   3.016053   3.443846   1.095136   2.187764
    23  O    4.216548   3.572796   3.272402   1.375237   2.468802
    24  H    4.187086   3.657088   2.993601   1.931420   2.637516
    25  O    3.626355   3.627727   3.414569   3.319498   3.894810
    26  H    2.834696   2.852004   3.241836   2.736991   3.549065
    27  H    3.466854   3.566545   3.203432   3.775116   4.050324
    28  O    5.184655   4.954670   3.244951   5.681770   4.719539
    29  H    4.288269   4.168778   2.889887   5.214748   4.419560
    30  H    5.686797   5.468566   3.879278   6.386989   5.325814
                    6          7          8          9         10
     6  O    0.000000
     7  C    2.488189   0.000000
     8  H    2.921246   2.670704   0.000000
     9  H    3.317323   1.095902   2.705536   0.000000
    10  C    2.455101   2.570778   2.975021   2.552592   0.000000
    11  H    2.606445   3.502489   3.678914   3.629867   1.099040
    12  H    2.834497   2.825391   2.248003   2.608165   1.100240
    13  H    2.804549   2.144180   3.044114   3.017363   4.252765
    14  O    3.634271   2.919689   3.952791   2.534479   1.425213
    15  H    4.377509   3.775336   4.372424   3.241978   1.960026
    16  O    3.646251   3.748840   2.066257   4.141715   4.768054
    17  H    4.267704   3.793851   2.384549   4.050992   5.167077
    18  O    4.119363   2.458294   2.658107   2.541146   4.545677
    19  H    4.631958   2.776641   3.600207   2.929125   5.157172
    20  O    3.327082   1.449199   4.065036   2.082452   3.663161
    21  H    3.762249   1.972830   4.628468   2.286529   3.617257
    22  H    2.082176   3.786579   2.358072   4.283765   3.193528
    23  O    2.284903   4.019013   3.336476   4.858337   4.457910
    24  H    2.502605   3.842214   3.667146   4.784394   4.801108
    25  O    2.877624   3.724371   4.858142   4.816928   5.096051
    26  H    2.015748   3.291487   4.393375   4.372153   4.261291
    27  H    3.194908   3.363865   4.955327   4.429082   5.096308
    28  O    5.494411   3.509270   5.186299   3.747993   6.057222
    29  H    4.816059   2.792923   4.861513   3.119349   5.305747
    30  H    6.176289   3.969013   5.633109   3.957173   6.412749
                   11         12         13         14         15
    11  H    0.000000
    12  H    1.780937   0.000000
    13  H    4.954838   4.308876   0.000000
    14  O    2.100082   2.092201   4.969121   0.000000
    15  H    2.389480   2.313901   5.804495   0.968643   0.000000
    16  O    5.339355   4.219787   2.712403   5.821955   6.360645
    17  H    5.882166   4.600874   2.739896   6.043201   6.585241
    18  O    5.499782   4.238630   2.077357   4.984921   5.633678
    19  H    6.125512   5.001093   2.218777   5.444790   6.158354
    20  O    4.489276   4.153889   2.460320   3.671520   4.597523
    21  H    4.408049   4.262246   3.406399   3.287889   4.197079
    22  H    3.185092   2.863241   3.768069   4.598550   5.031479
    23  O    4.557808   4.394702   2.989141   5.746799   6.403851
    24  H    5.029019   4.840321   2.407810   5.960333   6.713269
    25  O    5.358414   5.523234   2.503974   5.924412   6.826780
    26  H    4.432229   4.755437   2.585363   5.151444   6.027585
    27  H    5.505299   5.573667   2.274315   5.719558   6.662069
    28  O    7.004451   6.178353   3.097231   6.072929   6.874116
    29  H    6.222870   5.557593   2.770547   5.271197   6.115219
    30  H    7.416614   6.503489   3.926086   6.242031   6.973236
                   16         17         18         19         20
    16  O    0.000000
    17  H    0.975436   0.000000
    18  O    2.691860   2.109040   0.000000
    19  H    3.477031   2.851283   0.985884   0.000000
    20  O    4.788277   4.722921   3.083497   2.912836   0.000000
    21  H    5.613954   5.569228   3.869614   3.712075   0.971223
    22  H    2.891983   3.764189   4.527418   5.321688   4.993153
    23  O    2.698373   3.551947   4.421239   4.974018   4.813969
    24  H    2.807351   3.478086   4.114945   4.497525   4.386074
    25  O    4.429087   4.822458   4.579305   4.582406   3.554348
    26  H    4.324570   4.824777   4.569083   4.724244   3.341126
    27  H    4.670696   4.891475   4.242824   4.075797   2.869236
    28  O    5.117271   4.569853   2.752365   1.810736   2.807190
    29  H    5.067202   4.672841   2.782995   2.044549   1.873025
    30  H    5.750936   5.125716   3.182278   2.285590   3.286248
                   21         22         23         24         25
    21  H    0.000000
    22  H    5.513064   0.000000
    23  O    5.535327   1.975938   0.000000
    24  H    5.182901   2.807464   0.978170   0.000000
    25  O    4.244861   4.302271   2.859039   2.077183   0.000000
    26  H    3.923356   3.639630   2.534220   2.041922   0.976420
    27  H    3.563389   4.815854   3.575925   2.778050   0.969929
    28  O    3.432307   6.660335   6.083241   5.423473   4.790944
    29  H    2.466902   6.186893   5.707540   5.089339   4.288729
    30  H    3.713208   7.308621   6.906506   6.302601   5.704762
                   26         27         28         29         30
    26  H    0.000000
    27  H    1.530104   0.000000
    28  O    5.095423   4.001243   0.000000
    29  H    4.468344   3.457991   0.981800   0.000000
    30  H    5.945125   4.897092   0.969325   1.547390   0.000000
 Symmetry turned off by external request.
 Stoichiometry    C6H16O8
 Framework group  C1[X(C6H16O8)]
 Deg. of freedom    84
 Full point group                 C1      NOp   1
 Rotational constants (GHZ):      0.5905258      0.5690624      0.4315102
 Standard basis: 6-31G(d) (6D, 7F)
   242 basis functions,   456 primitive gaussians,   242 cartesian basis functions
    58 alpha electrons       58 beta electrons
       nuclear repulsion energy      1114.1330236450 Hartrees.
 NAtoms=   30 NActive=   30 NUniq=   30 SFac= 1.00D+00 NAtFMM=   60 NAOKFM=F Big=F
 Integral buffers will be    131072 words long.
 Raffenetti 2 integral format.
 Two-electron integral symmetry is turned off.
 One-electron integrals computed using PRISM.
 NBasis=   242 RedAO= T EigKep=  1.48D-03  NBF=   242
 NBsUse=   242 1.00D-06 EigRej= -1.00D+00 NBFU=   242
 Initial guess from the checkpoint file:  "/scratch/10502193.yak.local/Gau-13092.chk"
 B after Tr=     0.000007   -0.000005   -0.000007
         Rot=    1.000000    0.000346    0.000180    0.000118 Ang=   0.05 deg.
 ExpMin= 1.61D-01 ExpMax= 5.48D+03 ExpMxC= 8.25D+02 IAcc=1 IRadAn=         1 AccDes= 0.00D+00
 Harris functional with IExCor=  402 and IRadAn=       1 diagonalized for initial guess.
 HarFok:  IExCor=  402 AccDes= 0.00D+00 IRadAn=         1 IDoV= 1 UseB2=F ITyADJ=14
 ICtDFT=  3500011 ScaDFX=  1.000000  1.000000  1.000000  1.000000
 FoFCou: FMM=F IPFlag=           0 FMFlag=      100000 FMFlg1=           0
         NFxFlg=           0 DoJE=T BraDBF=F KetDBF=T FulRan=T
         wScrn=  0.000000 ICntrl=     500 IOpCl=  0 I1Cent=   200000004 NGrid=           0
         NMat0=    1 NMatS0=      1 NMatT0=    0 NMatD0=    1 NMtDS0=    0 NMtDT0=    0
 Symmetry not used in FoFCou.
 Requested convergence on RMS density matrix=1.00D-08 within 128 cycles.
 Requested convergence on MAX density matrix=1.00D-06.
 Requested convergence on             energy=1.00D-06.
 No special actions if energy rises.
 Integral accuracy reduced to 1.0D-05 until final iterations.
 Initial convergence to 1.0D-05 achieved.  Increase integral accuracy.
 SCF Done:  E(RB3LYP) =  -839.985174081     A.U. after    9 cycles
            NFock=  9  Conv=0.35D-08     -V/T= 2.0085
 DoSCS=F DFT=T ScalE2(SS,OS)=  1.000000  1.000000
 Range of M.O.s used for correlation:     1   242
 NBasis=   242 NAE=    58 NBE=    58 NFC=     0 NFV=     0
 NROrb=    242 NOA=    58 NOB=    58 NVA=   184 NVB=   184
 Symmetrizing basis deriv contribution to polar:
 IMax=3 JMax=2 DiffMx= 0.00D+00
 Calling FoFJK, ICntrl=      2147 FMM=F ISym2X=0 I1Cent= 0 IOpClX= 0 NMat=1 NMatS=1 NMatT=0.
 -------------------------------------------------------------------
 Center     Atomic                   Forces (Hartrees/Bohr)
 Number     Number              X              Y              Z
 -------------------------------------------------------------------
      1        1          -0.000000021    0.000001741   -0.000001681
      2        6          -0.000002360    0.000002434   -0.000010794
      3        6          -0.000001755   -0.000007678   -0.000001049
      4        6           0.000002214   -0.000003428    0.000005385
      5        6           0.000000405   -0.000005277    0.000005098
      6        8          -0.000014580    0.000006596   -0.000008997
      7        6           0.000001108   -0.000006795    0.000002341
      8        1          -0.000000047   -0.000001185   -0.000001108
      9        1           0.000000873    0.000001151   -0.000004195
     10        6           0.000009122    0.000003340   -0.000020067
     11        1           0.000000860    0.000000709   -0.000002652
     12        1           0.000000858   -0.000000401   -0.000001673
     13        1           0.000000549   -0.000001033    0.000003184
     14        8           0.000011202    0.000008018   -0.000028596
     15        1           0.000005509   -0.000002313   -0.000000935
     16        8          -0.000004073   -0.000013061    0.000005297
     17        1           0.000001508   -0.000002344    0.000001716
     18        8           0.000000415   -0.000011297   -0.000001641
     19        1           0.000001418   -0.000001868    0.000000951
     20        8           0.000001648   -0.000023270    0.000013345
     21        1          -0.000001163    0.000006937   -0.000000018
     22        1          -0.000001382   -0.000000291    0.000000671
     23        8           0.000007960    0.000006268    0.000021912
     24        1          -0.000002583    0.000000869    0.000001930
     25        8          -0.000015073    0.000039025    0.000023548
     26        1          -0.000009444    0.000003936   -0.000000656
     27        1           0.000004837    0.000010482    0.000000276
     28        8           0.000003460   -0.000014286   -0.000001862
     29        1          -0.000003834    0.000001320    0.000002225
     30        1           0.000002366    0.000001700   -0.000001954
 -------------------------------------------------------------------
 Cartesian Forces:  Max     0.000039025 RMS     0.000008693
 IRC-IRC-IRC-IRC-IRC-IRC-IRC-IRC-IRC-IRC-IRC-IRC-IRC-IRC-IRC-IRC-IRC-IRC
 Error in corrector energy =           0.0000001915
 Magnitude of corrector gradient =     0.0000806462
 Magnitude of analytic gradient =      0.0000824668
 Magnitude of difference =             0.0000322118
 Angle between gradients (degrees)=   22.7440
 Pt  1 Step number   2 out of a maximum of  20
 Modified Bulirsch-Stoer Extrapolation Cycles:
    EPS =    0.000010000000000
 Maximum DWI energy   std dev =  0.000000239 at pt     2
 Maximum DWI gradient std dev =  1.478303715 at pt     5
 WARNING: Bulirsch-Stoer Method is not Converging
 CORRECTOR INTEGRATION CONVERGENCE:
   Recorrection delta-x convergence threshold:    0.010000
   Delta-x Convergence NOT Met
 IRC-IRC-IRC-IRC-IRC-IRC-IRC-IRC-IRC-IRC-IRC-IRC-IRC-IRC-IRC-IRC-IRC-IRC
                          Input orientation:                          
 ---------------------------------------------------------------------
 Center     Atomic      Atomic             Coordinates (Angstroms)
 Number     Number       Type             X           Y           Z
 ---------------------------------------------------------------------
      1          1           0       -1.330629    1.407941    1.460345
      2          6           0       -1.236523    0.895151    0.496042
      3          6           0        0.847647   -0.159504   -0.533581
      4          6           0       -1.294135   -1.494713   -0.219573
      5          6           0       -0.205419   -1.030306   -1.222396
      6          8           0       -1.511608   -0.470136    0.800484
      7          6           0        0.205811    1.132047   -0.020831
      8          1           0       -0.691240   -0.417018   -2.002784
      9          1           0        0.185779    1.861856   -0.838136
     10          6           0       -2.306494    1.510525   -0.413074
     11          1           0       -3.294654    1.250371   -0.008417
     12          1           0       -2.239301    1.111631   -1.436254
     13          1           0        1.242392   -0.711892    0.329766
     14          8           0       -2.075096    2.916660   -0.391155
     15          1           0       -2.695365    3.338429   -1.004053
     16          8           0        0.400774   -2.159817   -1.803889
     17          1           0        1.232777   -1.814754   -2.178294
     18          8           0        1.870033    0.073478   -1.488124
     19          1           0        2.681652    0.336411   -0.994050
     20          8           0        1.053033    1.635697    1.041582
     21          1           0        0.724569    2.516616    1.285251
     22          1           0       -2.242593   -1.665427   -0.739776
     23          8           0       -1.013529   -2.670218    0.436714
     24          1           0       -0.164893   -2.576429    0.914033
     25          8           0        0.492898   -1.521009    2.577728
     26          1           0       -0.355487   -1.110448    2.322593
     27          1           0        1.111308   -0.774098    2.599470
     28          8           0        3.704618    1.165270    0.249022
     29          1           0        2.885281    1.491289    0.680690
     30          1           0        4.087582    1.944780   -0.181441
 ---------------------------------------------------------------------
                    Distance matrix (angstroms):
                    1          2          3          4          5
     1  H    0.000000
     2  C    1.096216   0.000000
     3  C    3.343278   2.552682   0.000000
     4  C    3.353931   2.495370   2.543347   0.000000
     5  C    3.795820   2.779135   1.530266   1.551332   0.000000
     6  O    1.998836   1.425611   2.728059   1.462042   2.472239
     7  C    2.151894   1.550356   1.530676   3.031369   2.507716
     8  H    3.966429   2.874587   2.143140   2.169044   1.105057
     9  H    2.790797   2.176578   2.148655   3.720124   2.943687
    10  C    2.114837   1.532976   3.571012   3.177069   3.394900
    11  H    2.457536   2.148619   4.407063   3.403255   4.027233
    12  H    3.050209   2.187738   3.458302   3.027653   2.961470
    13  H    3.520275   2.958928   1.098327   2.710821   2.146335
    14  O    2.501703   2.361530   4.245644   4.483253   4.445807
    15  H    3.415047   3.216848   5.000981   5.092947   5.033224
    16  O    5.136329   4.159718   2.411355   2.413532   1.407621
    17  H    5.495135   4.537962   2.365007   3.213145   1.896709
    18  O    4.551758   3.776606   1.417993   3.752386   2.365682
    19  H    4.823965   4.229026   1.954875   4.445190   3.202380
    20  O    2.430860   2.467405   2.397095   4.110860   3.717106
    21  H    2.341721   2.664185   3.238042   4.736076   4.442278
    22  H    3.888162   3.015955   3.443821   1.095138   2.187779
    23  O    4.216605   3.572829   3.272482   1.375233   2.468806
    24  H    4.187195   3.657182   2.993719   1.931414   2.637512
    25  O    3.626643   3.627967   3.414643   3.319499   3.894789
    26  H    2.834899   2.852181   3.241844   2.737028   3.549069
    27  H    3.467269   3.566947   3.203630   3.775240   4.050441
    28  O    5.184583   4.954680   3.244961   5.681779   4.719535
    29  H    4.288205   4.168782   2.889900   5.214805   4.419571
    30  H    5.686885   5.468711   3.879328   6.387052   5.325841
                    6          7          8          9         10
     6  O    0.000000
     7  C    2.488187   0.000000
     8  H    2.921324   2.670663   0.000000
     9  H    3.317286   1.095906   2.705334   0.000000
    10  C    2.455114   2.570754   2.975172   2.552555   0.000000
    11  H    2.606476   3.502486   3.679055   3.629843   1.099039
    12  H    2.834523   2.825316   2.248158   2.607987   1.100241
    13  H    2.804379   2.144185   3.044122   3.017384   4.252710
    14  O    3.634269   2.919678   3.952950   2.534553   1.425216
    15  H    4.377533   3.775138   4.372339   3.241725   1.960027
    16  O    3.646229   3.748823   2.066254   4.141589   4.768132
    17  H    4.267641   3.793803   2.384599   4.050887   5.167197
    18  O    4.119312   2.458282   2.658116   2.541160   4.545791
    19  H    4.631879   2.776686   3.600223   2.929279   5.157294
    20  O    3.327168   1.449197   4.065009   2.082455   3.663074
    21  H    3.762469   1.972813   4.628380   2.286434   3.617163
    22  H    2.082176   3.786479   2.358052   4.283502   3.193351
    23  O    2.284901   4.019124   3.336456   4.858321   4.457860
    24  H    2.502600   3.842420   3.667141   4.784501   4.801132
    25  O    2.877669   3.724733   4.858197   4.817284   5.096243
    26  H    2.015795   3.291728   4.393457   4.372387   4.261431
    27  H    3.195064   3.364415   4.955545   4.429672   5.096694
    28  O    5.494331   3.509355   5.186312   3.748249   6.057313
    29  H    4.816033   2.792982   4.861499   3.119530   5.305772
    30  H    6.176320   3.969191   5.633163   3.957549   6.412990
                   11         12         13         14         15
    11  H    0.000000
    12  H    1.780937   0.000000
    13  H    4.954758   4.308857   0.000000
    14  O    2.100079   2.092206   4.969089   0.000000
    15  H    2.389650   2.313746   5.804317   0.968641   0.000000
    16  O    5.339409   4.219896   2.712433   5.822059   6.360544
    17  H    5.882260   4.601052   2.739847   6.043357   6.585167
    18  O    5.499872   4.238759   2.077368   4.985084   5.633567
    19  H    6.125605   5.001229   2.218760   5.444981   6.158289
    20  O    4.489249   4.153767   2.460429   3.671348   4.597217
[...]
 ICtDFT=  3500011 ScaDFX=  1.000000  1.000000  1.000000  1.000000
 FoFCou: FMM=F IPFlag=           0 FMFlag=      100000 FMFlg1=           0
         NFxFlg=           0 DoJE=T BraDBF=F KetDBF=T FulRan=T
         wScrn=  0.000000 ICntrl=     500 IOpCl=  0 I1Cent=   200000004 NGrid=           0
         NMat0=    1 NMatS0=      1 NMatT0=    0 NMatD0=    1 NMtDS0=    0 NMtDT0=    0
 Symmetry not used in FoFCou.
 Requested convergence on RMS density matrix=1.00D-08 within 128 cycles.
 Requested convergence on MAX density matrix=1.00D-06.
 Requested convergence on             energy=1.00D-06.
 No special actions if energy rises.
 Integral accuracy reduced to 1.0D-05 until final iterations.
 Initial convergence to 1.0D-05 achieved.  Increase integral accuracy.
 SCF Done:  E(RB3LYP) =  -839.985174385     A.U. after    8 cycles
            NFock=  8  Conv=0.32D-08     -V/T= 2.0085
 DoSCS=F DFT=T ScalE2(SS,OS)=  1.000000  1.000000
 Range of M.O.s used for correlation:     1   242
 NBasis=   242 NAE=    58 NBE=    58 NFC=     0 NFV=     0
 NROrb=    242 NOA=    58 NOB=    58 NVA=   184 NVB=   184
 Symmetrizing basis deriv contribution to polar:
 IMax=3 JMax=2 DiffMx= 0.00D+00
 Calling FoFJK, ICntrl=      2147 FMM=F ISym2X=0 I1Cent= 0 IOpClX= 0 NMat=1 NMatS=1 NMatT=0.
 -------------------------------------------------------------------
 Center     Atomic                   Forces (Hartrees/Bohr)
 Number     Number              X              Y              Z
 -------------------------------------------------------------------
      1        1          -0.000000543    0.000000690   -0.000001123
      2        6          -0.000001121    0.000003021   -0.000010170
      3        6           0.000000913   -0.000007066    0.000001350
      4        6          -0.000000569   -0.000002608    0.000004987
      5        6          -0.000000358   -0.000007047    0.000003657
      6        8          -0.000012596    0.000007715   -0.000007380
      7        6           0.000003413   -0.000004703   -0.000000808
      8        1           0.000000031   -0.000000731    0.000000166
      9        1           0.000001009   -0.000000283    0.000000015
     10        6           0.000007927    0.000003721   -0.000020535
     11        1           0.000000327    0.000000544   -0.000002404
     12        1           0.000001340    0.000000160   -0.000001617
     13        1           0.000000015   -0.000000500    0.000000202
     14        8           0.000014081    0.000004385   -0.000027782
     15        1           0.000001906    0.000000225   -0.000002827
     16        8          -0.000003383   -0.000012986    0.000009034
     17        1          -0.000000135   -0.000001072    0.000000518
     18        8           0.000001844   -0.000014211    0.000001303
     19        1           0.000000127   -0.000000882    0.000000056
     20        8           0.000000162   -0.000013838    0.000006537
     21        1           0.000000118   -0.000000872    0.000000564
     22        1           0.000000171   -0.000001076    0.000000300
     23        8           0.000004912    0.000006347    0.000022588
     24        1          -0.000000076    0.000001332    0.000001941
     25        8          -0.000016977    0.000046271    0.000020549
     26        1          -0.000001720    0.000001464    0.000001117
     27        1          -0.000002130    0.000003868   -0.000000149
     28        8           0.000001218   -0.000010503   -0.000000234
     29        1           0.000000152   -0.000000756    0.000000181
     30        1          -0.000000059   -0.000000609   -0.000000036
 -------------------------------------------------------------------
 Cartesian Forces:  Max     0.000046271 RMS     0.000008407
 IRC-IRC-IRC-IRC-IRC-IRC-IRC-IRC-IRC-IRC-IRC-IRC-IRC-IRC-IRC-IRC-IRC-IRC
 Error in corrector energy =           0.0000000000
 Magnitude of corrector gradient =     0.0000797539
 Magnitude of analytic gradient =      0.0000797536
 Magnitude of difference =             0.0000000007
 Angle between gradients (degrees)=    0.0005
 Pt  1 Step number  19 out of a maximum of  20
 Modified Bulirsch-Stoer Extrapolation Cycles:
    EPS =    0.000010000000000
 Maximum DWI energy   std dev =  0.000000311 at pt     2
 Maximum DWI gradient std dev =  1.415338994 at pt     2
 WARNING: Bulirsch-Stoer Method is not Converging
 CORRECTOR INTEGRATION CONVERGENCE:
   Recorrection delta-x convergence threshold:    0.010000
   Delta-x Convergence NOT Met
 IRC-IRC-IRC-IRC-IRC-IRC-IRC-IRC-IRC-IRC-IRC-IRC-IRC-IRC-IRC-IRC-IRC-IRC
                          Input orientation:                          
 ---------------------------------------------------------------------
 Center     Atomic      Atomic             Coordinates (Angstroms)
 Number     Number       Type             X           Y           Z
 ---------------------------------------------------------------------
      1          1           0       -1.330452    1.408132    1.460271
      2          6           0       -1.236468    0.895258    0.496003
      3          6           0        0.847654   -0.159532   -0.533504
      4          6           0       -1.294198   -1.494631   -0.219463
      5          6           0       -0.205392   -1.030394   -1.222282
      6          8           0       -1.511477   -0.470013    0.800602
      7          6           0        0.205807    1.132125   -0.021058
      8          1           0       -0.691139   -0.417180   -2.002778
      9          1           0        0.185667    1.861698   -0.838575
     10          6           0       -2.306558    1.510506   -0.413049
     11          1           0       -3.294664    1.250464   -0.008186
     12          1           0       -2.239547    1.111418   -1.436167
     13          1           0        1.242293   -0.711785    0.329979
     14          8           0       -2.075099    2.916637   -0.391423
     15          1           0       -2.695565    3.338333   -1.004167
     16          8           0        0.400807   -2.159992   -1.803599
     17          1           0        1.232869   -1.815001   -2.177944
     18          8           0        1.870136    0.073249   -1.487995
     19          1           0        2.681734    0.336194   -0.993893
     20          8           0        1.053062    1.636130    1.041155
     21          1           0        0.724658    2.517177    1.284453
     22          1           0       -2.242693   -1.665162   -0.739662
     23          8           0       -1.013803   -2.670181    0.436816
     24          1           0       -0.165132   -2.576567    0.914107
     25          8           0        0.492879   -1.521312    2.577748
     26          1           0       -0.355197   -1.110193    2.322465
     27          1           0        1.111773   -0.774819    2.599865
     28          8           0        3.704668    1.165175    0.249105
     29          1           0        2.885291    1.491442    0.680522
     30          1           0        4.087841    1.944505   -0.181502
 ---------------------------------------------------------------------
                    Distance matrix (angstroms):
                    1          2          3          4          5
     1  H    0.000000
     2  C    1.096214   0.000000
     3  C    3.343181   2.552652   0.000000
     4  C    3.353931   2.495354   2.543353   0.000000
     5  C    3.795821   2.779164   1.530269   1.551341   0.000000
     6  O    1.998840   1.425614   2.727956   1.462048   2.472235
     7  C    2.151885   1.550360   1.530668   3.031373   2.507690
     8  H    3.966509   2.874680   2.143136   2.169054   1.105060
     9  H    2.790883   2.176597   2.148643   3.719979   2.943527
    10  C    2.114850   1.532971   3.571078   3.176979   3.394986
    11  H    2.457509   2.148615   4.407136   3.403241   4.027399
    12  H    3.050220   2.187733   3.458457   3.027465   2.961569
    13  H    3.520032   2.958785   1.098329   2.710815   2.146349
    14  O    2.501771   2.361526   4.245644   4.483153   4.445805
    15  H    3.415065   3.216845   5.001098   5.092850   5.033320
    16  O    5.136304   4.159735   2.411360   2.413553   1.407622
    17  H    5.495071   4.537965   2.364984   3.213153   1.896706
    18  O    4.551698   3.776631   1.417995   3.752390   2.365681
    19  H    4.823859   4.229025   1.954879   4.445189   3.202378
    20  O    2.430798   2.467393   2.397112   4.111015   3.717150
    21  H    2.341874   2.664262   3.238034   4.736259   4.442294
    22  H    3.888061   3.015809   3.443787   1.095139   2.187795
    23  O    4.216677   3.572875   3.272600   1.375225   2.468813
    24  H    4.187373   3.657340   2.993890   1.931413   2.637504
    25  O    3.626973   3.628238   3.414704   3.319450   3.894715
    26  H    2.834865   2.852093   3.241477   2.736954   3.548808
    27  H    3.468200   3.567860   3.204113   3.775637   4.050809
    28  O    5.184437   4.954658   3.244973   5.681794   4.719541
    29  H    4.288058   4.168738   2.889902   5.214857   4.419574
    30  H    5.686916   5.468839   3.879392   6.387131   5.325889
                    6          7          8          9         10
     6  O    0.000000
     7  C    2.488179   0.000000
     8  H    2.921419   2.670594   0.000000
     9  H    3.317239   1.095909   2.705077   0.000000
    10  C    2.455109   2.570760   2.975364   2.552566   0.000000
    11  H    2.606518   3.502494   3.679372   3.629856   1.099040
    12  H    2.834457   2.825370   2.248383   2.608006   1.100242
    13  H    2.804138   2.144186   3.044127   3.017415   4.252648
    14  O    3.634280   2.919621   3.952992   2.534542   1.425217
    15  H    4.377529   3.775158   4.372507   3.241815   1.960025
    16  O    3.646193   3.748801   2.066257   4.141443   4.768230
    17  H    4.267572   3.793753   2.384617   4.050761   5.167340
    18  O    4.119238   2.458275   2.658129   2.541208   4.545987
    19  H    4.631761   2.776713   3.600236   2.929444   5.157466
    20  O    3.327246   1.449193   4.064954   2.082460   3.662996
    21  H    3.762675   1.972799   4.628263   2.286353   3.617067
    22  H    2.082179   3.786337   2.358016   4.283159   3.193058
    23  O    2.284898   4.019282   3.336428   4.858321   4.457761
    24  H    2.502618   3.842724   3.667132   4.784679   4.801168
    25  O    2.877659   3.725175   4.858212   4.817717   5.096434
    26  H    2.015659   3.291628   4.393274   4.372281   4.261328
    27  H    3.195574   3.365479   4.956080   4.430775   5.097583
    28  O    5.494193   3.509432   5.186323   3.748541   6.057437
    29  H    4.815942   2.793020   4.861459   3.119730   5.305804
    30  H    6.176309   3.969369   5.633227   3.957975   6.413292
                   11         12         13         14         15
    11  H    0.000000
    12  H    1.780936   0.000000
    13  H    4.954670   4.308892   0.000000
    14  O    2.100081   2.092211   4.969000   0.000000
    15  H    2.389580   2.313812   5.804320   0.968639   0.000000
    16  O    5.339591   4.220025   2.712481   5.822072   6.360676
    17  H    5.882473   4.601287   2.739863   6.043403   6.585378
    18  O    5.500076   4.239101   2.077377   4.985199   5.633870
    19  H    6.125753   5.001559   2.218759   5.445101   6.158595
    20  O    4.489162   4.153760   2.460546   3.671154   4.597069
    21  H    4.407996   4.261976   3.406635   3.287366   4.196428
    22  H    3.184741   2.862608   3.768047   4.598069   5.030906
    23  O    4.557611   4.394430   2.989431   5.746727   6.403671
    24  H    5.028992   4.840271   2.408207   5.960510   6.713338
    25  O    5.358664   5.523489   2.503881   5.925022   6.827331
    26  H    4.432280   4.755381   2.584706   5.151564   6.027702
    27  H    5.506395   5.574835   2.274509   5.721085   6.663550
    28  O    7.004578   6.178731   3.097227   6.073187   6.874321
    29  H    6.222879   5.557765   2.770656   5.271216   6.115156
    30  H    7.417082   6.504157   3.926148   6.242671   6.973817
                   16         17         18         19         20
    16  O    0.000000
    17  H    0.975438   0.000000
    18  O    2.691821   2.108939   0.000000
    19  H    3.476953   2.851110   0.985885   0.000000
    20  O    4.788382   4.722842   3.083312   2.912701   0.000000
    21  H    5.613988   5.569043   3.869286   3.711832   0.971230
    22  H    2.892216   3.764391   4.527409   5.321658   4.993179
    23  O    2.698310   3.551879   4.421359   4.974156   4.814714
    24  H    2.807089   3.477811   4.115087   4.497699   4.387135
    25  O    4.428610   4.821871   4.579272   4.582361   3.555891
    26  H    4.324121   4.824147   4.568616   4.723687   3.341741
    27  H    4.670618   4.891227   4.243223   4.076056   2.871532
    28  O    5.117209   4.569661   2.752331   1.810703   2.807162
    29  H    5.067197   4.672675   2.782854   2.044431   1.872980
    30  H    5.750853   5.125479   3.182254   2.285559   3.286315
                   21         22         23         24         25
    21  H    0.000000
    22  H    5.513091   0.000000
    23  O    5.536192   1.975939   0.000000
    24  H    5.184121   2.807467   0.978168   0.000000
    25  O    4.246850   4.302238   2.858947   2.077076   0.000000
    26  H    3.924458   3.639678   2.534364   2.042021   0.976433
    27  H    3.566147   4.816388   3.576207   2.778231   0.969933
    28  O    3.432246   6.660297   6.083516   5.423856   4.791177
    29  H    2.466819   6.186864   5.708015   5.090024   4.289497
    30  H    3.713216   7.308686   6.906839   6.303034   5.705181
                   26         27         28         29         30
    26  H    0.000000
    27  H    1.530172   0.000000
    28  O    5.094961   4.001594   0.000000
    29  H    4.468248   3.459072   0.981809   0.000000
    30  H    5.944881   4.897724   0.969329   1.547410   0.000000
 Symmetry turned off by external request.
 Stoichiometry    C6H16O8
 Framework group  C1[X(C6H16O8)]
 Deg. of freedom    84
 Full point group                 C1      NOp   1
 Rotational constants (GHZ):      0.5905102      0.5690708      0.4314632
 Standard basis: 6-31G(d) (6D, 7F)
   242 basis functions,   456 primitive gaussians,   242 cartesian basis functions
    58 alpha electrons       58 beta electrons
       nuclear repulsion energy      1114.1195777578 Hartrees.
 NAtoms=   30 NActive=   30 NUniq=   30 SFac= 1.00D+00 NAtFMM=   60 NAOKFM=F Big=F
 Integral buffers will be    131072 words long.
 Raffenetti 2 integral format.
 Two-electron integral symmetry is turned off.
 One-electron integrals computed using PRISM.
 NBasis=   242 RedAO= T EigKep=  1.48D-03  NBF=   242
 NBsUse=   242 1.00D-06 EigRej= -1.00D+00 NBFU=   242
 Initial guess from the checkpoint file:  "/scratch/10502193.yak.local/Gau-13092.chk"
 B after Tr=     0.000000    0.000000   -0.000000
         Rot=    1.000000    0.000000    0.000000    0.000000 Ang=   0.00 deg.
 ExpMin= 1.61D-01 ExpMax= 5.48D+03 ExpMxC= 8.25D+02 IAcc=1 IRadAn=         1 AccDes= 0.00D+00
 Harris functional with IExCor=  402 and IRadAn=       1 diagonalized for initial guess.
 HarFok:  IExCor=  402 AccDes= 0.00D+00 IRadAn=         1 IDoV= 1 UseB2=F ITyADJ=14
 ICtDFT=  3500011 ScaDFX=  1.000000  1.000000  1.000000  1.000000
 FoFCou: FMM=F IPFlag=           0 FMFlag=      100000 FMFlg1=           0
         NFxFlg=           0 DoJE=T BraDBF=F KetDBF=T FulRan=T
         wScrn=  0.000000 ICntrl=     500 IOpCl=  0 I1Cent=   200000004 NGrid=           0
         NMat0=    1 NMatS0=      1 NMatT0=    0 NMatD0=    1 NMtDS0=    0 NMtDT0=    0
 Symmetry not used in FoFCou.
 Requested convergence on RMS density matrix=1.00D-08 within 128 cycles.
 Requested convergence on MAX density matrix=1.00D-06.
 Requested convergence on             energy=1.00D-06.
 No special actions if energy rises.
 Integral accuracy reduced to 1.0D-05 until final iterations.
 Initial convergence to 1.0D-05 achieved.  Increase integral accuracy.
 SCF Done:  E(RB3LYP) =  -839.985174385     A.U. after    8 cycles
            NFock=  8  Conv=0.32D-08     -V/T= 2.0085
 DoSCS=F DFT=T ScalE2(SS,OS)=  1.000000  1.000000
 Range of M.O.s used for correlation:     1   242
 NBasis=   242 NAE=    58 NBE=    58 NFC=     0 NFV=     0
 NROrb=    242 NOA=    58 NOB=    58 NVA=   184 NVB=   184
 Symmetrizing basis deriv contribution to polar:
 IMax=3 JMax=2 DiffMx= 0.00D+00
 Calling FoFJK, ICntrl=      2147 FMM=F ISym2X=0 I1Cent= 0 IOpClX= 0 NMat=1 NMatS=1 NMatT=0.
 -------------------------------------------------------------------
 Center     Atomic                   Forces (Hartrees/Bohr)
 Number     Number              X              Y              Z
 -------------------------------------------------------------------
      1        1          -0.000000543    0.000000690   -0.000001123
      2        6          -0.000001121    0.000003021   -0.000010170
      3        6           0.000000913   -0.000007066    0.000001350
      4        6          -0.000000569   -0.000002608    0.000004987
      5        6          -0.000000358   -0.000007047    0.000003657
      6        8          -0.000012596    0.000007715   -0.000007380
      7        6           0.000003413   -0.000004703   -0.000000808
      8        1           0.000000031   -0.000000731    0.000000166
      9        1           0.000001009   -0.000000283    0.000000015
     10        6           0.000007927    0.000003721   -0.000020535
     11        1           0.000000327    0.000000544   -0.000002404
     12        1           0.000001340    0.000000160   -0.000001617
     13        1           0.000000015   -0.000000500    0.000000202
     14        8           0.000014080    0.000004386   -0.000027783
     15        1           0.000001907    0.000000225   -0.000002827
     16        8          -0.000003383   -0.000012987    0.000009034
     17        1          -0.000000135   -0.000001072    0.000000518
     18        8           0.000001844   -0.000014211    0.000001303
     19        1           0.000000127   -0.000000881    0.000000056
     20        8           0.000000162   -0.000013839    0.000006537
     21        1           0.000000118   -0.000000872    0.000000564
     22        1           0.000000171   -0.000001076    0.000000300
     23        8           0.000004912    0.000006347    0.000022588
     24        1          -0.000000076    0.000001332    0.000001941
     25        8          -0.000016977    0.000046272    0.000020549
     26        1          -0.000001720    0.000001464    0.000001117
     27        1          -0.000002130    0.000003868   -0.000000149
     28        8           0.000001218   -0.000010503   -0.000000234
     29        1           0.000000152   -0.000000756    0.000000181
     30        1          -0.000000059   -0.000000609   -0.000000036
 -------------------------------------------------------------------
 Cartesian Forces:  Max     0.000046272 RMS     0.000008407
 IRC-IRC-IRC-IRC-IRC-IRC-IRC-IRC-IRC-IRC-IRC-IRC-IRC-IRC-IRC-IRC-IRC-IRC
 Error in corrector energy =           0.0000000000
 Magnitude of corrector gradient =     0.0000797542
 Magnitude of analytic gradient =      0.0000797542
 Magnitude of difference =             0.0000000003
 Angle between gradients (degrees)=    0.0002
 Pt  1 Step number  20 out of a maximum of  20
 Modified Bulirsch-Stoer Extrapolation Cycles:
    EPS =    0.000010000000000
 Maximum DWI energy   std dev =  0.000000311 at pt     2
 Maximum DWI gradient std dev =  1.415337269 at pt     2
 WARNING: Bulirsch-Stoer Method is not Converging
 CORRECTOR INTEGRATION CONVERGENCE:
   Recorrection delta-x convergence threshold:    0.010000
   Delta-x Convergence NOT Met
 Maximum number of corrector steps exceded.
 Error termination via Lnk1e in /global/software/gaussian/g09.e01/l123.exe at Tue Jan 31 16:23:59 2017.
 Job cpu time:       0 days  4 hours 41 minutes 47.4 seconds.
 File lengths (MBytes):  RWF=    220 Int=      0 D2E=      0 Chk=      8 Scr=      1
