 Entering Gaussian System, Link 0=g09
 Initial command:
 /global/software/gaussian/g09.e01/l1.exe "/scratch/10502190.yak.local/Gau-7718.inp" -scrdir="/scratch/10502190.yak.local/"
 Entering Link 1 = /global/software/gaussian/g09.e01/l1.exe PID=      7719.
  
 Copyright (c) 1988,1990,1992,1993,1995,1998,2003,2009,2015,
            Gaussian, Inc.  All Rights Reserved.
  
 This is part of the Gaussian(R) 09 program.  It is based on
 the Gaussian(R) 03 system (copyright 2003, Gaussian, Inc.),
 the Gaussian(R) 98 system (copyright 1998, Gaussian, Inc.),
 the Gaussian(R) 94 system (copyright 1995, Gaussian, Inc.),
 the Gaussian 92(TM) system (copyright 1992, Gaussian, Inc.),
 the Gaussian 90(TM) system (copyright 1990, Gaussian, Inc.),
 the Gaussian 88(TM) system (copyright 1988, Gaussian, Inc.),
 the Gaussian 86(TM) system (copyright 1986, Carnegie Mellon
 University), and the Gaussian 82(TM) system (copyright 1983,
 Carnegie Mellon University). Gaussian is a federally registered
 trademark of Gaussian, Inc.
  
 This software contains proprietary and confidential information,
 including trade secrets, belonging to Gaussian, Inc.
  
 This software is provided under written license and may be
 used, copied, transmitted, or stored only in accord with that
 written license.
  
 The following legend is applicable only to US Government
 contracts under FAR:
  
                    RESTRICTED RIGHTS LEGEND
  
 Use, reproduction and disclosure by the US Government is
 subject to restrictions as set forth in subparagraphs (a)
 and (c) of the Commercial Computer Software - Restricted
 Rights clause in FAR 52.227-19.
  
 Gaussian, Inc.
 340 Quinnipiac St., Bldg. 40, Wallingford CT 06492
  
  
 ---------------------------------------------------------------
 Warning -- This program may not be used in any manner that
 competes with the business of Gaussian, Inc. or will provide
 assistance to any competitor of Gaussian, Inc.  The licensee
 of this program is prohibited from giving any competitor of
 Gaussian, Inc. access to this program.  By using this program,
 the user acknowledges that Gaussian, Inc. is engaged in the
 business of creating and licensing software in the field of
 computational chemistry and represents and warrants to the
 licensee that it is not a competitor of Gaussian, Inc. and that
 it will not use this program in any manner prohibited above.
 ---------------------------------------------------------------
  

 Cite this work as:
 Gaussian 09, Revision E.01,
 M. J. Frisch, G. W. Trucks, H. B. Schlegel, G. E. Scuseria, 
 M. A. Robb, J. R. Cheeseman, G. Scalmani, V. Barone, B. Mennucci, 
 G. A. Petersson, H. Nakatsuji, M. Caricato, X. Li, H. P. Hratchian, 
 A. F. Izmaylov, J. Bloino, G. Zheng, J. L. Sonnenberg, M. Hada, 
 M. Ehara, K. Toyota, R. Fukuda, J. Hasegawa, M. Ishida, T. Nakajima, 
 Y. Honda, O. Kitao, H. Nakai, T. Vreven, J. A. Montgomery, Jr., 
 J. E. Peralta, F. Ogliaro, M. Bearpark, J. J. Heyd, E. Brothers, 
 K. N. Kudin, V. N. Staroverov, T. Keith, R. Kobayashi, J. Normand, 
 K. Raghavachari, A. Rendell, J. C. Burant, S. S. Iyengar, J. Tomasi, 
 M. Cossi, N. Rega, J. M. Millam, M. Klene, J. E. Knox, J. B. Cross, 
 V. Bakken, C. Adamo, J. Jaramillo, R. Gomperts, R. E. Stratmann, 
 O. Yazyev, A. J. Austin, R. Cammi, C. Pomelli, J. W. Ochterski, 
 R. L. Martin, K. Morokuma, V. G. Zakrzewski, G. A. Voth, 
 P. Salvador, J. J. Dannenberg, S. Dapprich, A. D. Daniels, 
 O. Farkas, J. B. Foresman, J. V. Ortiz, J. Cioslowski, 
 and D. J. Fox, Gaussian, Inc., Wallingford CT, 2013.
 
 ******************************************
 Gaussian 09:  ES64L-G09RevE.01 30-Nov-2015
                31-Jan-2017 
 ******************************************
 %NPROCS=4
 Will use up to    4 processors via shared memory.
 --------------------------------------------------
 # b3lyp/6-31g(d) irc=(calcfc,reverse,maxpoints=20)
 --------------------------------------------------
 1/10=4,14=-1,18=10,22=2,26=3,38=1,42=20,44=3/1,23;
 2/12=2,17=6,18=5,29=1,40=1/2;
 3/5=1,6=6,7=1,11=2,16=1,25=1,30=1,71=2,74=-5,140=1/1,2,3;
 4//1;
 5/5=2,38=5/2;
 8/6=4,10=90,11=11/1;
 11/6=1,8=1,9=11,15=111,16=1/1,2,10;
 10/6=1,13=1/2;
 6/7=2,8=2,9=2,10=2,28=1/1;
 7/10=1,18=20,25=1/1,2,3,16;
 1/10=4,14=-1,18=10,22=2,26=3,42=20,44=3/23(2);
 2/29=1/2;
 99/5=20/99;
 2/29=1/2;
 3/5=1,6=6,7=1,11=2,16=1,25=1,30=1,71=2,74=-5,140=1/1,2,3;
 4/5=5,16=3,69=1/1;
 5/5=2,38=5/2;
 8/6=4,10=90,11=11/1;
 11/6=1,8=1,9=11,15=111,16=1/1,2,10;
 10/6=1,13=1/2;
 7/10=1,18=20,25=1/1,2,3,16;
 1/14=-1,18=10,22=2,26=3,42=20,44=3/23(-8);
 2/29=1/2;
 6/7=2,8=2,9=2,10=2,19=2,28=1/1;
 99/5=20,9=1/99;
 -------------------------------------------
 ./1/glo_2w_alpha_boat1_b3lyp_631Gd_iopt.out
 -------------------------------------------
 Symbolic Z-matrix:
 Charge =  0 Multiplicity = 1
 H                    -1.24027  -1.87959  -0.13769 
 C                    -1.1418   -0.80632  -0.343 
 C                     0.04394   1.1462    0.85793 
 C                     0.66937   0.50731  -1.5061 
 C                     0.13173   1.62176  -0.58858 
 O                    -0.09919  -0.72055  -1.31293 
 C                    -0.82481  -0.1184    1.00341 
 H                    -0.88241   1.88541  -0.92896 
 H                    -1.77592   0.16749   1.46487 
 C                    -2.49833  -0.3902   -0.9316 
 H                    -2.59933  -0.87469  -1.91284 
 H                    -2.56412   0.69668  -1.08014 
 H                     1.05941   0.90702   1.18951 
 O                    -3.48548  -0.8425   -0.00887 
 H                    -4.35457  -0.55953  -0.32955 
 O                     0.98347   2.74028  -0.69746 
 H                     0.70139   3.34308   0.01186 
 O                    -0.46241   2.25306   1.61166 
 H                    -0.18883   2.13919   2.53459 
 O                    -0.11482  -1.01689   1.88893 
 H                    -0.76668  -1.60586   2.30059 
 H                     0.52318   0.79549  -2.55101 
 O                     2.01055   0.2362   -1.37685 
 H                     2.26157   0.03804  -0.44105 
 O                     2.78795  -0.87782   1.05597 
 H                     2.63747  -1.72217   0.569 
 H                     2.08296  -0.90364   1.72459 
 O                     1.48166  -2.91315  -0.27146 
 H                     0.84188  -2.80083   0.45016 
 H                     1.16983  -2.25721  -0.92823 
 
 IRC-IRC-IRC-IRC-IRC-IRC-IRC-IRC-IRC-IRC-IRC-IRC-IRC-IRC-IRC-IRC-IRC-IRC
 ------------------------------------------------------------------------
 INPUT DATA FOR L123
 ------------------------------------------------------------------------
 GENERAL PARAMETERS:
 Rxn path following direction = Reverse
 Maximum points per path      =  20
 Step size                    =   0.100 bohr
 Integration scheme           = HPC                                 
    Redo corrector integration= Yes                                 
    DWI Weight Power          =  2
    DWI will use Hessian update vectors when possible.
    Max correction cycles     =  20
 Initial Hessian              = CalcFC
 Hessian evaluation           = All updating
 Hessian updating method      = Bofill                              
 ------------------------------------------------------------------------
 IRC-IRC-IRC-IRC-IRC-IRC-IRC-IRC-IRC-IRC-IRC-IRC-IRC-IRC-IRC-IRC-IRC-IRC
                          Input orientation:                          
 ---------------------------------------------------------------------
 Center     Atomic      Atomic             Coordinates (Angstroms)
 Number     Number       Type             X           Y           Z
 ---------------------------------------------------------------------
      1          1           0       -1.240270   -1.879590   -0.137690
      2          6           0       -1.141800   -0.806320   -0.343000
      3          6           0        0.043940    1.146200    0.857930
      4          6           0        0.669370    0.507310   -1.506100
      5          6           0        0.131730    1.621760   -0.588580
      6          8           0       -0.099190   -0.720550   -1.312930
      7          6           0       -0.824810   -0.118400    1.003410
      8          1           0       -0.882410    1.885410   -0.928960
      9          1           0       -1.775920    0.167490    1.464870
     10          6           0       -2.498330   -0.390200   -0.931600
     11          1           0       -2.599330   -0.874690   -1.912840
     12          1           0       -2.564120    0.696680   -1.080140
     13          1           0        1.059410    0.907020    1.189510
     14          8           0       -3.485480   -0.842500   -0.008870
     15          1           0       -4.354570   -0.559530   -0.329550
     16          8           0        0.983470    2.740280   -0.697460
     17          1           0        0.701390    3.343080    0.011860
     18          8           0       -0.462410    2.253060    1.611660
     19          1           0       -0.188830    2.139190    2.534590
     20          8           0       -0.114820   -1.016890    1.888930
     21          1           0       -0.766680   -1.605860    2.300590
     22          1           0        0.523180    0.795490   -2.551010
     23          8           0        2.010550    0.236200   -1.376850
     24          1           0        2.261570    0.038040   -0.441050
     25          8           0        2.787950   -0.877820    1.055970
     26          1           0        2.637470   -1.722170    0.569000
     27          1           0        2.082960   -0.903640    1.724590
     28          8           0        1.481660   -2.913150   -0.271460
     29          1           0        0.841880   -2.800830    0.450160
     30          1           0        1.169830   -2.257210   -0.928230
 ---------------------------------------------------------------------
                    Distance matrix (angstroms):
                    1          2          3          4          5
     1  H    0.000000
     2  C    1.097159   0.000000
     3  C    3.434510   2.580803   0.000000
     4  C    3.349114   2.521659   2.527446   0.000000
     5  C    3.787498   2.752773   1.525207   1.540422   0.000000
     6  O    2.006646   1.426589   2.866684   1.461383   2.462605
     7  C    2.139277   1.544842   1.541137   2.986926   2.545105
     8  H    3.863858   2.766955   2.144186   2.154129   1.101749
     9  H    2.654365   2.149141   2.153634   3.862847   3.157639
    10  C    2.105063   1.536157   3.467864   3.342140   3.329093
    11  H    2.451127   2.143237   4.329901   3.572081   3.929964
    12  H    3.045974   2.196674   3.280268   3.266919   2.892233
    13  H    3.849050   3.182679   1.094683   2.752855   2.129095
    14  O    2.476513   2.367654   4.142834   4.618058   4.415071
    15  H    3.387954   3.222263   4.864824   5.269003   4.995199
    16  O    5.157670   4.149793   2.417239   2.395561   1.410107
    17  H    5.573930   4.554206   2.444250   3.216647   1.909969
    18  O    4.554568   3.693518   1.431656   3.748199   2.364867
    19  H    4.939352   4.226666   1.962498   4.441477   3.181931
    20  O    2.473475   2.465875   2.401484   3.803205   3.627853
    21  H    2.498885   2.787211   3.211263   4.584606   4.424022
    22  H    4.011225   3.195819   3.460280   1.093735   2.164968
    23  O    4.071844   3.477500   3.112860   1.374398   2.463962
    24  H    4.004025   3.507917   2.798794   1.972219   2.658224
    25  O    4.319135   4.171950   3.415475   3.601551   4.000994
    26  H    3.944751   3.994172   3.877812   3.626298   4.335965
    27  H    3.932483   3.831902   3.018368   3.798207   3.941535
    28  O    2.914626   3.365471   4.452065   3.726083   4.742181
    29  H    2.351510   2.922697   4.047472   3.847142   4.598108
    30  H    2.564397   2.791274   4.005146   2.868269   4.029817
                    6          7          8          9         10
     6  O    0.000000
     7  C    2.500908   0.000000
     8  H    2.748071   2.784354   0.000000
     9  H    3.363958   1.095120   3.078966   0.000000
    10  C    2.451615   2.572704   2.790986   2.564364   0.000000
    11  H    2.575723   3.496485   3.396172   3.629472   1.098983
    12  H    2.852825   2.833855   2.064966   2.716317   1.098954
    13  H    3.202116   2.153231   3.035758   2.943098   4.340438
    14  O    3.630758   2.937379   3.881241   2.472769   1.424946
    15  H    4.370495   3.798761   4.288697   3.224583   1.958766
    16  O    3.678084   3.786144   2.065406   4.348466   4.688033
    17  H    4.348458   3.910793   2.349120   4.281667   5.006566
    18  O    4.186587   2.474899   2.601214   2.469101   4.195231
    19  H    4.794743   2.801017   3.541417   2.747864   4.872995
    20  O    3.215582   1.447590   4.117407   2.083707   3.745564
    21  H    3.779794   1.974485   4.757347   2.204941   3.863094
    22  H    2.053914   3.909754   2.407209   4.669854   3.627378
    23  O    2.317425   3.718958   3.360017   4.734707   4.573907
    24  H    2.628464   3.411258   3.679055   4.466611   4.804235
    25  O    3.737914   3.692088   5.004691   4.699870   5.668595
    26  H    3.469036   3.840335   5.258143   4.883790   5.513836
    27  H    3.744573   3.097068   4.859377   4.013194   5.320450
    28  O    2.896764   3.841318   5.389556   4.808015   4.758296
    29  H    2.884729   3.206146   5.180347   4.085760   4.344813
    30  H    2.029712   3.504901   4.623093   4.503725   4.115961
                   11         12         13         14         15
    11  H    0.000000
    12  H    1.778717   0.000000
    13  H    5.117172   4.280832   0.000000
    14  O    2.100333   2.089402   5.015273   0.000000
    15  H    2.384743   2.312393   5.811152   0.968620   0.000000
    16  O    5.232744   4.111951   2.631970   5.769054   6.286396
    17  H    5.691116   4.342747   2.729364   5.920253   6.396066
    18  O    5.174104   3.753038   2.075083   4.620342   5.179563
    19  H    5.888431   4.559508   2.210336   5.121286   5.730600
    20  O    4.543838   4.213166   2.359965   3.872132   4.806903
    21  H    4.652549   4.467865   3.299041   3.648040   4.570054
    22  H    3.598170   3.421205   3.780406   5.021438   5.528418
    23  O    4.772039   4.607351   2.817955   5.765528   6.499598
    24  H    5.160193   4.912181   2.204323   5.830156   6.644007
    25  O    6.151149   5.973832   2.488240   6.363258   7.282621
    26  H    5.856776   5.968839   3.128569   6.212751   7.144771
    27  H    5.929214   5.658877   2.147663   5.832336   6.766069
    28  O    4.848085   5.482077   4.111743   5.387859   6.293209
    29  H    4.597359   5.116173   3.787098   4.771982   5.712658
    30  H    4.133689   4.763499   3.809116   4.951620   5.810295
                   16         17         18         19         20
    16  O    0.000000
    17  H    0.972662   0.000000
    18  O    2.767668   2.258746   0.000000
    19  H    3.490235   2.933600   0.969336   0.000000
    20  O    4.691693   4.816527   3.300041   3.222297   0.000000
    21  H    5.562397   5.646727   3.931726   3.796586   0.970191
    22  H    2.725752   3.618049   4.519261   5.308090   4.837854
    23  O    2.790498   3.646247   4.372007   4.874219   4.093012
    24  H    3.000231   3.682741   4.066940   4.390185   3.491262
    25  O    4.406962   4.822851   4.547091   4.488862   3.023117
    26  H    4.924743   5.451199   5.147703   5.173163   3.132848
    27  H    4.511470   4.782971   4.056651   3.882775   2.206824
    28  O    5.691304   6.311062   5.832262   6.015862   3.288136
    29  H    5.660475   6.161126   5.347154   5.459946   2.483501
    30  H    5.006285   5.697934   5.427503   5.758942   3.335432
                   21         22         23         24         25
    21  H    0.000000
    22  H    5.564912   0.000000
    23  O    4.962838   1.975785   0.000000
    24  H    4.403328   2.836840   0.988939   0.000000
    25  O    3.835950   4.575965   2.786396   1.832197   0.000000
    26  H    3.821017   4.532471   2.831002   2.063938   0.986261
    27  H    2.990876   4.858056   3.305058   2.368261   0.971972
    28  O    3.657797   4.457470   3.379352   3.057212   2.758810
    29  H    2.727546   4.694902   3.731931   3.296810   2.802171
    30  H    3.820943   3.517179   2.669300   2.587936   2.908278
                   26         27         28         29         30
    26  H    0.000000
    27  H    1.520809   0.000000
    28  O    1.860297   2.895498   0.000000
    29  H    2.098040   2.600727   0.970912   0.000000
    30  H    2.163777   3.115030   0.979205   1.517575   0.000000
 Symmetry turned off by external request.
 Stoichiometry    C6H16O8
 Framework group  C1[X(C6H16O8)]
 Deg. of freedom    84
 Full point group                 C1      NOp   1
 Rotational constants (GHZ):      0.6549202      0.5735901      0.4621338
 Standard basis: 6-31G(d) (6D, 7F)
   242 basis functions,   456 primitive gaussians,   242 cartesian basis functions
    58 alpha electrons       58 beta electrons
       nuclear repulsion energy      1126.8565669680 Hartrees.
 NAtoms=   30 NActive=   30 NUniq=   30 SFac= 1.00D+00 NAtFMM=   60 NAOKFM=F Big=F
 Integral buffers will be    131072 words long.
 Raffenetti 2 integral format.
 Two-electron integral symmetry is turned off.
 One-electron integrals computed using PRISM.
 NBasis=   242 RedAO= T EigKep=  1.38D-03  NBF=   242
 NBsUse=   242 1.00D-06 EigRej= -1.00D+00 NBFU=   242
 ExpMin= 1.61D-01 ExpMax= 5.48D+03 ExpMxC= 8.25D+02 IAcc=1 IRadAn=         1 AccDes= 0.00D+00
 Harris functional with IExCor=  402 and IRadAn=       1 diagonalized for initial guess.
 HarFok:  IExCor=  402 AccDes= 0.00D+00 IRadAn=         1 IDoV= 1 UseB2=F ITyADJ=14
 ICtDFT=  3500011 ScaDFX=  1.000000  1.000000  1.000000  1.000000
 FoFCou: FMM=F IPFlag=           0 FMFlag=      100000 FMFlg1=           0
         NFxFlg=           0 DoJE=T BraDBF=F KetDBF=T FulRan=T
         wScrn=  0.000000 ICntrl=     500 IOpCl=  0 I1Cent=   200000004 NGrid=           0
         NMat0=    1 NMatS0=      1 NMatT0=    0 NMatD0=    1 NMtDS0=    0 NMtDT0=    0
 Symmetry not used in FoFCou.
 Requested convergence on RMS density matrix=1.00D-08 within 128 cycles.
 Requested convergence on MAX density matrix=1.00D-06.
 Requested convergence on             energy=1.00D-06.
 No special actions if energy rises.
 Integral accuracy reduced to 1.0D-05 until final iterations.
 Initial convergence to 1.0D-05 achieved.  Increase integral accuracy.
 SCF Done:  E(RB3LYP) =  -839.983042335     A.U. after   14 cycles
            NFock= 14  Conv=0.39D-08     -V/T= 2.0085
 DoSCS=F DFT=T ScalE2(SS,OS)=  1.000000  1.000000
 Range of M.O.s used for correlation:     1   242
 NBasis=   242 NAE=    58 NBE=    58 NFC=     0 NFV=     0
 NROrb=    242 NOA=    58 NOB=    58 NVA=   184 NVB=   184
 Symmetrizing basis deriv contribution to polar:
 IMax=3 JMax=2 DiffMx= 0.00D+00
 G2DrvN: will do    31 centers at a time, making    1 passes.
 Calling FoFCou, ICntrl=  3107 FMM=F I1Cent=   0 AccDes= 0.00D+00.
 End of G2Drv F.D. properties file   721 does not exist.
 End of G2Drv F.D. properties file   722 does not exist.
 End of G2Drv F.D. properties file   788 does not exist.
          IDoAtm=111111111111111111111111111111
          Differentiating once with respect to nuclear coordinates.
          There are    93 degrees of freedom in the 1st order CPHF.  IDoFFX=6 NUNeed=     0.
     87 vectors produced by pass  0 Test12= 1.15D-14 1.08D-09 XBig12= 1.31D-01 6.41D-02.
 AX will form    87 AO Fock derivatives at one time.
     87 vectors produced by pass  1 Test12= 1.15D-14 1.08D-09 XBig12= 1.48D-02 1.59D-02.
     87 vectors produced by pass  2 Test12= 1.15D-14 1.08D-09 XBig12= 1.73D-04 1.62D-03.
     87 vectors produced by pass  3 Test12= 1.15D-14 1.08D-09 XBig12= 3.17D-07 6.28D-05.
     87 vectors produced by pass  4 Test12= 1.15D-14 1.08D-09 XBig12= 3.62D-10 1.52D-06.
     65 vectors produced by pass  5 Test12= 1.15D-14 1.08D-09 XBig12= 3.22D-13 4.33D-08.
      2 vectors produced by pass  6 Test12= 1.15D-14 1.08D-09 XBig12= 1.66D-16 1.15D-09.
 InvSVY:  IOpt=1 It=  1 EMax= 6.11D-16
 Solved reduced A of dimension   502 with    93 vectors.
 End of Minotr F.D. properties file   721 does not exist.
 End of Minotr F.D. properties file   722 does not exist.
 End of Minotr F.D. properties file   788 does not exist.

 **********************************************************************

            Population analysis using the SCF density.

 **********************************************************************

 Alpha  occ. eigenvalues --  -19.18833 -19.17354 -19.17069 -19.16789 -19.14624
 Alpha  occ. eigenvalues --  -19.14433 -19.13388 -19.13338 -10.28763 -10.26166
 Alpha  occ. eigenvalues --  -10.26039 -10.25399 -10.25201 -10.24517  -1.07077
 Alpha  occ. eigenvalues --   -1.05301  -1.04652  -1.04105  -1.01869  -1.00636
 Alpha  occ. eigenvalues --   -0.99940  -0.98533  -0.80011  -0.77264  -0.70774
 Alpha  occ. eigenvalues --   -0.65951  -0.63819  -0.57685  -0.57563  -0.54390
 Alpha  occ. eigenvalues --   -0.53461  -0.52163  -0.51508  -0.50706  -0.49561
 Alpha  occ. eigenvalues --   -0.48646  -0.47541  -0.46897  -0.45147  -0.44823
 Alpha  occ. eigenvalues --   -0.42766  -0.41212  -0.38999  -0.38353  -0.37896
 Alpha  occ. eigenvalues --   -0.36893  -0.36354  -0.35504  -0.34803  -0.32329
 Alpha  occ. eigenvalues --   -0.31776  -0.30224  -0.29827  -0.29184  -0.28680
 Alpha  occ. eigenvalues --   -0.28393  -0.27064  -0.26452
 Alpha virt. eigenvalues --    0.03244   0.04626   0.04912   0.06949   0.08102
 Alpha virt. eigenvalues --    0.09992   0.10591   0.11755   0.12309   0.14648
 Alpha virt. eigenvalues --    0.15373   0.15912   0.17801   0.18097   0.19027
 Alpha virt. eigenvalues --    0.19270   0.19754   0.20645   0.22082   0.23150
 Alpha virt. eigenvalues --    0.23800   0.24025   0.26305   0.27725   0.29843
 Alpha virt. eigenvalues --    0.30280   0.33263   0.35955   0.50676   0.51555
 Alpha virt. eigenvalues --    0.54030   0.55028   0.56604   0.57647   0.58624
 Alpha virt. eigenvalues --    0.60212   0.62595   0.64249   0.65153   0.65913
 Alpha virt. eigenvalues --    0.68620   0.69518   0.72765   0.74105   0.74526
 Alpha virt. eigenvalues --    0.75490   0.77772   0.78064   0.79208   0.81754
 Alpha virt. eigenvalues --    0.82041   0.82376   0.83568   0.83961   0.84614
 Alpha virt. eigenvalues --    0.85718   0.87305   0.88239   0.89173   0.89933
 Alpha virt. eigenvalues --    0.91468   0.91894   0.93987   0.94801   0.95645
 Alpha virt. eigenvalues --    0.97153   0.98467   0.98679   0.99389   1.00917
 Alpha virt. eigenvalues --    1.03380   1.03971   1.05346   1.06830   1.07813
 Alpha virt. eigenvalues --    1.08412   1.10085   1.12504   1.14489   1.17948
 Alpha virt. eigenvalues --    1.19562   1.20302   1.21693   1.24426   1.26101
 Alpha virt. eigenvalues --    1.29509   1.29609   1.32173   1.33731   1.34962
 Alpha virt. eigenvalues --    1.37473   1.40323   1.40790   1.44842   1.47126
 Alpha virt. eigenvalues --    1.48435   1.52208   1.56150   1.57906   1.59495
 Alpha virt. eigenvalues --    1.61737   1.64219   1.66201   1.66453   1.70020
 Alpha virt. eigenvalues --    1.70746   1.71785   1.73281   1.73575   1.74133
 Alpha virt. eigenvalues --    1.74379   1.76116   1.76961   1.77688   1.79274
 Alpha virt. eigenvalues --    1.80299   1.81814   1.83401   1.83918   1.87202
 Alpha virt. eigenvalues --    1.87668   1.89191   1.90480   1.92415   1.95541
 Alpha virt. eigenvalues --    1.95967   1.97574   2.01028   2.02455   2.03483
 Alpha virt. eigenvalues --    2.05314   2.08157   2.09987   2.11464   2.16347
 Alpha virt. eigenvalues --    2.19417   2.22705   2.23997   2.25223   2.27685
 Alpha virt. eigenvalues --    2.30242   2.32412   2.35406   2.36146   2.37386
 Alpha virt. eigenvalues --    2.40871   2.42810   2.45107   2.46762   2.46901
 Alpha virt. eigenvalues --    2.47823   2.49934   2.52162   2.55726   2.57145
 Alpha virt. eigenvalues --    2.58345   2.61594   2.63471   2.66432   2.69462
 Alpha virt. eigenvalues --    2.70608   2.78346   2.79585   2.86465   2.89691
 Alpha virt. eigenvalues --    2.92298   2.96721   2.98025   3.00857   3.08367
 Alpha virt. eigenvalues --    3.70496   3.72048   3.75773   3.79485   3.87850
 Alpha virt. eigenvalues --    3.89541   4.00539   4.12846   4.30025   4.35487
 Alpha virt. eigenvalues --    4.44360   4.55480   4.65231   4.80132
          Condensed to atoms (all electrons):
               1          2          3          4          5          6
     1  H    0.624223   0.358023   0.003834   0.004051  -0.000050  -0.039960
     2  C    0.358023   4.961897  -0.036835  -0.021728  -0.000033   0.212906
     3  C    0.003834  -0.036835   5.070391  -0.008261   0.291390  -0.008876
     4  C    0.004051  -0.021728  -0.008261   4.656823   0.271112   0.174694
     5  C   -0.000050  -0.000033   0.291390   0.271112   5.054186  -0.031511
     6  O   -0.039960   0.212906  -0.008876   0.174694  -0.031511   8.372507
     7  C   -0.047425   0.270022   0.250073  -0.013089  -0.030778  -0.031009
     8  H    0.000121  -0.000963  -0.057903  -0.047006   0.337169   0.003612
     9  H    0.001059  -0.047632  -0.034205   0.000415  -0.000519   0.002794
    10  C   -0.054568   0.319853   0.000009  -0.003127  -0.005368  -0.041855
    11  H   -0.008198  -0.030287  -0.000166   0.000003   0.000434   0.005186
    12  H    0.006993  -0.035099   0.001890   0.001088  -0.003089   0.001478
    13  H   -0.000199   0.001659   0.338526  -0.006723  -0.037908   0.000454
    14  O    0.008325  -0.048774   0.000353   0.000032   0.000098   0.001168
    15  H   -0.000336   0.005199  -0.000023  -0.000004   0.000001  -0.000098
    16  O    0.000002  -0.000032  -0.035440  -0.046116   0.244456   0.000997
    17  H    0.000000  -0.000090  -0.011917   0.006455  -0.032620  -0.000080
    18  O   -0.000065   0.003224   0.213054   0.002223  -0.047702   0.000011
    19  H    0.000003   0.000051  -0.022300  -0.000182   0.006608   0.000004
    20  O   -0.002199  -0.037076  -0.028706   0.000578   0.001463   0.001321
    21  H    0.003782  -0.001622   0.005508  -0.000001  -0.000214  -0.000072
    22  H   -0.000300   0.004040   0.006704   0.393839  -0.059108  -0.046625
    23  O   -0.000067   0.001533  -0.005218   0.314090  -0.034373  -0.063034
    24  H   -0.000051   0.000495  -0.000273  -0.021603  -0.010804   0.003271
    25  O    0.000029  -0.000123  -0.005507   0.001869  -0.000607  -0.000232
    26  H   -0.000165  -0.000074   0.000383   0.000229   0.000022   0.000080
    27  H   -0.000081   0.000310   0.000473   0.000079   0.000065   0.000018
    28  O    0.003612   0.002250  -0.000036  -0.000225  -0.000045  -0.010920
    29  H    0.004126   0.000857   0.000110   0.000165  -0.000086   0.000767
    30  H   -0.002907  -0.001313   0.000046  -0.000156   0.000635   0.035374
               7          8          9         10         11         12
     1  H   -0.047425   0.000121   0.001059  -0.054568  -0.008198   0.006993
     2  C    0.270022  -0.000963  -0.047632   0.319853  -0.030287  -0.035099
     3  C    0.250073  -0.057903  -0.034205   0.000009  -0.000166   0.001890
     4  C   -0.013089  -0.047006   0.000415  -0.003127   0.000003   0.001088
     5  C   -0.030778   0.337169  -0.000519  -0.005368   0.000434  -0.003089
     6  O   -0.031009   0.003612   0.002794  -0.041855   0.005186   0.001478
     7  C    5.153717  -0.002290   0.348468  -0.041616   0.005947  -0.010503
     8  H   -0.002290   0.673126   0.000852  -0.002367   0.000052   0.009904
     9  H    0.348468   0.000852   0.575428  -0.002322   0.000644  -0.000235
    10  C   -0.041616  -0.002367  -0.002322   4.996025   0.353159   0.357223
    11  H    0.005947   0.000052   0.000644   0.353159   0.608892  -0.050486
    12  H   -0.010503   0.009904  -0.000235   0.357223  -0.050486   0.619564
    13  H   -0.050048   0.008176   0.004699  -0.000071   0.000005   0.000000
    14  O   -0.000482  -0.000091   0.013582   0.210000  -0.032334  -0.034668
    15  H    0.000136  -0.000002  -0.000380  -0.017691  -0.003114  -0.004523
    16  O    0.004293  -0.039564  -0.000058   0.000033  -0.000003   0.000009
    17  H    0.000887  -0.001555  -0.000024   0.000003   0.000000  -0.000001
    18  O   -0.044829  -0.000886   0.003404   0.000055   0.000001  -0.000138
    19  H    0.000080  -0.000266   0.000377  -0.000006  -0.000000   0.000004
    20  O    0.177330  -0.000063  -0.030566   0.003272  -0.000080  -0.000010
    21  H   -0.015903   0.000012  -0.006745  -0.000357   0.000003   0.000018
    22  H   -0.000552  -0.004977   0.000023   0.000771  -0.000082  -0.000231
    23  O    0.000250   0.003763  -0.000013  -0.000093   0.000008   0.000011
    24  H   -0.000432   0.000212   0.000019   0.000046  -0.000001   0.000000
    25  O    0.000752  -0.000009  -0.000016   0.000000  -0.000000   0.000000
    26  H    0.000248  -0.000000   0.000005  -0.000002  -0.000000   0.000000
    27  H   -0.002361  -0.000001   0.000163  -0.000003   0.000000  -0.000000
    28  O   -0.000658   0.000000  -0.000011   0.000033   0.000000  -0.000000
    29  H   -0.002739   0.000001   0.000153   0.000211  -0.000008  -0.000000
    30  H    0.000684  -0.000024  -0.000020   0.000387   0.000024  -0.000011
              13         14         15         16         17         18
     1  H   -0.000199   0.008325  -0.000336   0.000002   0.000000  -0.000065
     2  C    0.001659  -0.048774   0.005199  -0.000032  -0.000090   0.003224
     3  C    0.338526   0.000353  -0.000023  -0.035440  -0.011917   0.213054
     4  C   -0.006723   0.000032  -0.000004  -0.046116   0.006455   0.002223
     5  C   -0.037908   0.000098   0.000001   0.244456  -0.032620  -0.047702
     6  O    0.000454   0.001168  -0.000098   0.000997  -0.000080   0.000011
     7  C   -0.050048  -0.000482   0.000136   0.004293   0.000887  -0.044829
     8  H    0.008176  -0.000091  -0.000002  -0.039564  -0.001555  -0.000886
     9  H    0.004699   0.013582  -0.000380  -0.000058  -0.000024   0.003404
    10  C   -0.000071   0.210000  -0.017691   0.000033   0.000003   0.000055
    11  H    0.000005  -0.032334  -0.003114  -0.000003   0.000000   0.000001
    12  H    0.000000  -0.034668  -0.004523   0.000009  -0.000001  -0.000138
    13  H    0.599837  -0.000003   0.000000   0.001694  -0.000393  -0.032304
    14  O   -0.000003   8.273637   0.234675  -0.000000  -0.000000  -0.000004
    15  H    0.000000   0.234675   0.380955  -0.000000   0.000000   0.000000
    16  O    0.001694  -0.000000  -0.000000   8.263155   0.234161  -0.005961
    17  H   -0.000393  -0.000000   0.000000   0.234161   0.375444   0.025942
    18  O   -0.032304  -0.000004   0.000000  -0.005961   0.025942   8.297099
    19  H   -0.006618  -0.000001   0.000000   0.000049  -0.001317   0.235572
    20  O   -0.004810  -0.000114   0.000006  -0.000013  -0.000007   0.001155
    21  H    0.000330   0.000267  -0.000010   0.000001   0.000001  -0.000202
    22  H   -0.000072  -0.000003  -0.000000   0.001474  -0.000441  -0.000057
    23  O    0.002371   0.000000  -0.000000   0.000871   0.000054   0.000009
    24  H    0.008898  -0.000000   0.000000   0.001954  -0.000151  -0.000052
    25  O    0.015528   0.000000  -0.000000  -0.000004   0.000002   0.000029
    26  H   -0.001123   0.000000  -0.000000  -0.000001   0.000000  -0.000002
    27  H    0.000378  -0.000000   0.000000  -0.000013  -0.000001  -0.000038
    28  O    0.000013   0.000000  -0.000000   0.000000  -0.000000  -0.000000
    29  H   -0.000039  -0.000006   0.000000   0.000000   0.000000  -0.000000
    30  H   -0.000114  -0.000003   0.000000  -0.000002   0.000000   0.000001
              19         20         21         22         23         24
     1  H    0.000003  -0.002199   0.003782  -0.000300  -0.000067  -0.000051
     2  C    0.000051  -0.037076  -0.001622   0.004040   0.001533   0.000495
     3  C   -0.022300  -0.028706   0.005508   0.006704  -0.005218  -0.000273
     4  C   -0.000182   0.000578  -0.000001   0.393839   0.314090  -0.021603
     5  C    0.006608   0.001463  -0.000214  -0.059108  -0.034373  -0.010804
     6  O    0.000004   0.001321  -0.000072  -0.046625  -0.063034   0.003271
     7  C    0.000080   0.177330  -0.015903  -0.000552   0.000250  -0.000432
     8  H   -0.000266  -0.000063   0.000012  -0.004977   0.003763   0.000212
     9  H    0.000377  -0.030566  -0.006745   0.000023  -0.000013   0.000019
    10  C   -0.000006   0.003272  -0.000357   0.000771  -0.000093   0.000046
    11  H   -0.000000  -0.000080   0.000003  -0.000082   0.000008  -0.000001
    12  H    0.000004  -0.000010   0.000018  -0.000231   0.000011   0.000000
    13  H   -0.006618  -0.004810   0.000330  -0.000072   0.002371   0.008898
    14  O   -0.000001  -0.000114   0.000267  -0.000003   0.000000  -0.000000
    15  H    0.000000   0.000006  -0.000010  -0.000000  -0.000000   0.000000
    16  O    0.000049  -0.000013   0.000001   0.001474   0.000871   0.001954
    17  H   -0.001317  -0.000007   0.000001  -0.000441   0.000054  -0.000151
    18  O    0.235572   0.001155  -0.000202  -0.000057   0.000009  -0.000052
    19  H    0.381028   0.001158  -0.000099   0.000006   0.000006   0.000013
    20  O    0.001158   8.310358   0.229174   0.000006  -0.000044   0.000168
    21  H   -0.000099   0.229174   0.377983  -0.000001   0.000000  -0.000002
    22  H    0.000006   0.000006  -0.000001   0.606336  -0.055664   0.005705
    23  O    0.000006  -0.000044   0.000000  -0.055664   8.277275   0.193970
    24  H    0.000013   0.000168  -0.000002   0.005705   0.193970   0.322122
    25  O   -0.000001  -0.004888   0.000251  -0.000039  -0.022340   0.068333
    26  H   -0.000000  -0.000085   0.000001   0.000013   0.003544  -0.005425
    27  H    0.000026   0.024418  -0.000852   0.000009   0.001298  -0.005496
    28  O    0.000000  -0.002854   0.000139  -0.000014  -0.001405   0.001595
    29  H   -0.000000   0.020012  -0.000305   0.000006  -0.000066   0.000069
    30  H   -0.000000  -0.000060  -0.000021   0.000062   0.008849  -0.000190
              25         26         27         28         29         30
     1  H    0.000029  -0.000165  -0.000081   0.003612   0.004126  -0.002907
     2  C   -0.000123  -0.000074   0.000310   0.002250   0.000857  -0.001313
     3  C   -0.005507   0.000383   0.000473  -0.000036   0.000110   0.000046
     4  C    0.001869   0.000229   0.000079  -0.000225   0.000165  -0.000156
     5  C   -0.000607   0.000022   0.000065  -0.000045  -0.000086   0.000635
     6  O   -0.000232   0.000080   0.000018  -0.010920   0.000767   0.035374
     7  C    0.000752   0.000248  -0.002361  -0.000658  -0.002739   0.000684
     8  H   -0.000009  -0.000000  -0.000001   0.000000   0.000001  -0.000024
     9  H   -0.000016   0.000005   0.000163  -0.000011   0.000153  -0.000020
    10  C    0.000000  -0.000002  -0.000003   0.000033   0.000211   0.000387
    11  H   -0.000000  -0.000000   0.000000   0.000000  -0.000008   0.000024
    12  H    0.000000   0.000000  -0.000000  -0.000000  -0.000000  -0.000011
    13  H    0.015528  -0.001123   0.000378   0.000013  -0.000039  -0.000114
    14  O    0.000000   0.000000  -0.000000   0.000000  -0.000006  -0.000003
    15  H   -0.000000  -0.000000   0.000000  -0.000000   0.000000   0.000000
    16  O   -0.000004  -0.000001  -0.000013   0.000000   0.000000  -0.000002
    17  H    0.000002   0.000000  -0.000001  -0.000000   0.000000   0.000000
    18  O    0.000029  -0.000002  -0.000038  -0.000000  -0.000000   0.000001
    19  H   -0.000001  -0.000000   0.000026   0.000000  -0.000000  -0.000000
    20  O   -0.004888  -0.000085   0.024418  -0.002854   0.020012  -0.000060
    21  H    0.000251   0.000001  -0.000852   0.000139  -0.000305  -0.000021
    22  H   -0.000039   0.000013   0.000009  -0.000014   0.000006   0.000062
    23  O   -0.022340   0.003544   0.001298  -0.001405  -0.000066   0.008849
    24  H    0.068333  -0.005425  -0.005496   0.001595   0.000069  -0.000190
    25  O    8.356916   0.208573   0.227757  -0.024333   0.003527   0.002617
    26  H    0.208573   0.329115  -0.016706   0.068426  -0.005437  -0.003512
    27  H    0.227757  -0.016706   0.364051   0.002063   0.001267   0.000015
    28  O   -0.024333   0.068426   0.002063   8.309365   0.233363   0.229213
    29  H    0.003527  -0.005437   0.001267   0.233363   0.382762  -0.026858
    30  H    0.002617  -0.003512   0.000015   0.229213  -0.026858   0.326486
 Mulliken charges:
               1
     1  H    0.138389
     2  C    0.119362
     3  C    0.072919
     4  C    0.340476
     5  C    0.087176
     6  O   -0.542371
     7  C    0.081825
     8  H    0.120968
     9  H    0.170664
    10  C   -0.071633
    11  H    0.150399
    12  H    0.140812
    13  H    0.157857
    14  O   -0.625654
    15  H    0.405208
    16  O   -0.625942
    17  H    0.405646
    18  O   -0.649539
    19  H    0.405807
    20  O   -0.658844
    21  H    0.408936
    22  H    0.149173
    23  O   -0.625586
    24  H    0.437608
    25  O   -0.828084
    26  H    0.421892
    27  H    0.403159
    28  O   -0.809570
    29  H    0.388147
    30  H    0.430799
 Sum of Mulliken charges =  -0.00000
 Mulliken charges with hydrogens summed into heavy atoms:
               1
     2  C    0.257751
     3  C    0.230776
     4  C    0.489649
     5  C    0.208144
     6  O   -0.542371
     7  C    0.252490
    10  C    0.219578
    14  O   -0.220446
    16  O   -0.220296
    18  O   -0.243733
    20  O   -0.249908
    23  O   -0.187978
    25  O   -0.003033
    28  O    0.009376
 APT charges:
               1
     1  H    0.407711
     2  C   -0.324913
     3  C   -0.132842
     4  C   -0.374819
     5  C   -0.213065
     6  O   -0.400496
     7  C   -0.285506
     8  H    0.348001
     9  H    0.452774
    10  C   -0.519488
    11  H    0.486491
    12  H    0.321998
    13  H    0.297519
    14  O   -1.135708
    15  H    0.972305
    16  O   -0.781947
    17  H    0.674539
    18  O   -0.915834
    19  H    0.731202
    20  O   -0.972560
    21  H    0.774860
    22  H    0.561737
    23  O   -0.464542
    24  H    0.411192
    25  O   -0.763408
    26  H    0.445998
    27  H    0.344685
    28  O   -0.554799
    29  H    0.350254
    30  H    0.258665
 Sum of APT charges =  -0.00000
 APT charges with hydrogens summed into heavy atoms:
               1
     2  C    0.082797
     3  C    0.164677
     4  C    0.186918
     5  C    0.134936
     6  O   -0.400496
     7  C    0.167267
    10  C    0.289000
    14  O   -0.163402
    16  O   -0.107408
    18  O   -0.184633
    20  O   -0.197701
    23  O   -0.053351
    25  O    0.027275
    28  O    0.054120
 Electronic spatial extent (au):  <R**2>=           2881.9906
 Charge=             -0.0000 electrons
 Dipole moment (field-independent basis, Debye):
    X=             -6.8576    Y=              0.5534    Z=              3.2192  Tot=              7.5958
 Quadrupole moment (field-independent basis, Debye-Ang):
   XX=            -88.1148   YY=            -88.6633   ZZ=            -76.4952
   XY=              2.6787   XZ=              6.3763   YZ=             -0.2838
 Traceless Quadrupole moment (field-independent basis, Debye-Ang):
   XX=             -3.6903   YY=             -4.2389   ZZ=              7.9292
   XY=              2.6787   XZ=              6.3763   YZ=             -0.2838
 Octapole moment (field-independent basis, Debye-Ang**2):
  XXX=            -84.5754  YYY=             16.0064  ZZZ=             34.7479  XYY=            -10.3983
  XXY=              4.1682  XXZ=            -12.7986  XZZ=            -10.4895  YZZ=             -2.1559
  YYZ=             29.1934  XYZ=              9.3317
 Hexadecapole moment (field-independent basis, Debye-Ang**3):
 XXXX=          -1266.9932 YYYY=          -1223.9946 ZZZZ=           -627.8243 XXXY=             -1.4648
 XXXZ=             44.3417 YYYX=             55.1801 YYYZ=             -8.3464 ZZZX=             -7.0135
 ZZZY=             18.3932 XXYY=           -487.1400 XXZZ=           -371.3401 YYZZ=           -282.8999
 XXYZ=             14.9264 YYXZ=             25.6067 ZZXY=              6.6284
 N-N= 1.126856566968D+03 E-N=-4.225620364700D+03  KE= 8.328763618806D+02
  Exact polarizability:   0.000   0.000   0.000   0.000   0.000   0.000
 Approx polarizability: 133.386   1.394 126.650  -4.274  -3.707 128.225
 Calling FoFJK, ICntrl=    100147 FMM=F ISym2X=0 I1Cent= 0 IOpClX= 0 NMat=1 NMatS=1 NMatT=0.
 -------------------------------------------------------------------
 Center     Atomic                   Forces (Hartrees/Bohr)
 Number     Number              X              Y              Z
 -------------------------------------------------------------------
      1        1           0.000004952   -0.000003251   -0.000003453
      2        6           0.000003046    0.000003206   -0.000006741
      3        6          -0.000011184   -0.000003551    0.000005596
      4        6          -0.000003177    0.000010533   -0.000004907
      5        6          -0.000009243    0.000001577    0.000009302
      6        8           0.000007467    0.000014489    0.000000221
      7        6           0.000004086   -0.000019656   -0.000004231
      8        1          -0.000002314   -0.000000879    0.000004554
      9        1          -0.000002541   -0.000004726   -0.000001110
     10        6           0.000006800   -0.000004239   -0.000009892
     11        1           0.000003457   -0.000001118   -0.000003113
     12        1           0.000001002   -0.000003924   -0.000002019
     13        1          -0.000004301    0.000000990    0.000003539
     14        8           0.000005602   -0.000023990   -0.000008133
     15        1           0.000000604   -0.000007196   -0.000006921
     16        8          -0.000010940    0.000012114    0.000016831
     17        1          -0.000008204    0.000002907    0.000009700
     18        8          -0.000015416   -0.000010825    0.000006406
     19        1          -0.000005076   -0.000006732    0.000011631
     20        8           0.000007358   -0.000001023   -0.000012047
     21        1          -0.000006040   -0.000011668    0.000000729
     22        1           0.000000604    0.000005276    0.000007916
     23        8           0.000002359    0.000016884    0.000015149
     24        1           0.000000746    0.000006379   -0.000004282
     25        8           0.000001117    0.000024745    0.000012881
     26        1          -0.000001362   -0.000009116   -0.000008324
     27        1           0.000004209   -0.000001423   -0.000006092
     28        8           0.000001992    0.000025561   -0.000020944
     29        1           0.000010622   -0.000001044   -0.000013285
     30        1           0.000013776   -0.000010301    0.000011038
 -------------------------------------------------------------------
 Cartesian Forces:  Max     0.000025561 RMS     0.000009138
 IRC-IRC-IRC-IRC-IRC-IRC-IRC-IRC-IRC-IRC-IRC-IRC-IRC-IRC-IRC-IRC-IRC-IRC
          ******** Start new reaction path calculation ********
 Supplied step size of   0.1000 bohr.
    Integration on MW PES will use step size of   0.2127 sqrt(amu)*bohr.
 Point Number:   0          Path Number:   1
 Calculating another point on the path.
 IRC-IRC-IRC-IRC-IRC-IRC-IRC-IRC-IRC-IRC-IRC-IRC-IRC-IRC-IRC-IRC-IRC-IRC
                          Input orientation:                          
 ---------------------------------------------------------------------
 Center     Atomic      Atomic             Coordinates (Angstroms)
 Number     Number       Type             X           Y           Z
 ---------------------------------------------------------------------
      1          1           0       -1.256756   -1.892217   -0.134844
      2          6           0       -1.157612   -0.818550   -0.337551
      3          6           0        0.030161    1.130762    0.866652
      4          6           0        0.654119    0.495767   -1.498765
      5          6           0        0.117860    1.608939   -0.579105
      6          8           0       -0.115466   -0.731509   -1.307840
      7          6           0       -0.838684   -0.134125    1.010102
      8          1           0       -0.896202    1.873997   -0.918555
      9          1           0       -1.788951    0.150656    1.473892
     10          6           0       -2.514324   -0.399845   -0.923807
     11          1           0       -2.617017   -0.882564   -1.905742
     12          1           0       -2.579279    0.687356   -1.070396
     13          1           0        1.045617    0.890754    1.197672
     14          8           0       -3.500762   -0.852760   -0.000579
     15          1           0       -4.370097   -0.569515   -0.320352
     16          8           0        0.970432    2.727012   -0.686244
     17          1           0        0.688531    3.329145    0.023707
     18          8           0       -0.475939    2.236616    1.622068
     19          1           0       -0.202329    2.121551    2.544838
     20          8           0       -0.127814   -1.036089    1.892034
     21          1           0       -0.780414   -1.622574    2.306164
     22          1           0        0.508057    0.785934   -2.543138
     23          8           0        1.995307    0.223382   -1.370450
     24          1           0        2.248017    0.028314   -0.434639
     25          8           0        2.784070   -0.884615    1.062997
     26          1           0        2.627993   -1.730111    0.579627
     27          1           0        2.087319   -0.908817    1.740111
     28          8           0        1.460485   -2.919035   -0.247078
     29          1           0        0.826501   -2.779666    0.475868
     30          1           0        1.156808   -2.270132   -0.914555
 ---------------------------------------------------------------------
                    Distance matrix (angstroms):
                    1          2          3          4          5
     1  H    0.000000
     2  C    1.097124   0.000000
     3  C    3.434756   2.580838   0.000000
     4  C    3.348760   2.521551   2.527398   0.000000
     5  C    3.787484   2.752796   1.525306   1.540293   0.000000
     6  O    2.006417   1.426572   2.866648   1.461136   2.462355
     7  C    2.139292   1.544772   1.541236   2.986577   2.545355
     8  H    3.863751   2.766895   2.144180   2.153986   1.101728
     9  H    2.654165   2.149250   2.153722   3.863209   3.158689
    10  C    2.105021   1.536124   3.467406   3.342414   3.329028
    11  H    2.450671   2.143171   4.329803   3.572920   3.930281
    12  H    3.046067   2.196805   3.279930   3.267273   2.892273
    13  H    3.849863   3.183214   1.094682   2.753191   2.129192
    14  O    2.476703   2.367502   4.141722   4.618021   4.414644
    15  H    3.387750   3.222169   4.864380   5.269367   4.995436
    16  O    5.157682   4.149839   2.417356   2.395558   1.410121
    17  H    5.574217   4.554352   2.444769   3.216696   1.910014
    18  O    4.554523   3.693078   1.431680   3.747958   2.364686
    19  H    4.939924   4.226693   1.962658   4.441555   3.181873
    20  O    2.472994   2.465534   2.402416   3.802042   3.628093
    21  H    2.501625   2.788900   3.210932   4.585056   4.424291
    22  H    4.010853   3.195847   3.460340   1.093730   2.164952
    23  O    4.071657   3.477557   3.112838   1.374570   2.463900
    24  H    4.007712   3.510686   2.797791   1.972660   2.656467
    25  O    4.333400   4.183630   3.418232   3.606213   4.002872
    26  H    3.953229   4.000371   3.875011   3.629108   4.335053
    27  H    3.957949   3.854141   3.025675   3.810150   3.949257
    28  O    2.906949   3.357776   4.437012   3.725295   4.734495
    29  H    2.345313   2.905914   4.009777   3.828492   4.568916
    30  H    2.564383   2.792233   4.001014   2.871271   4.029781
                    6          7          8          9         10
     6  O    0.000000
     7  C    2.500553   0.000000
     8  H    2.747682   2.784884   0.000000
     9  H    3.364045   1.095084   3.080699   0.000000
    10  C    2.451939   2.572621   2.790825   2.564796   0.000000
    11  H    2.576444   3.496394   3.396229   3.629760   1.098981
    12  H    2.853057   2.834250   2.064927   2.717732   1.098961
    13  H    3.202724   2.153172   3.035761   2.942588   4.340449
    14  O    3.630959   2.936761   3.880929   2.472084   1.424970
    15  H    4.370728   3.798756   4.289119   3.224945   1.958785
    16  O    3.677896   3.786370   2.065411   4.349482   4.687984
    17  H    4.348371   3.911470   2.348764   4.282960   5.006139
    18  O    4.186176   2.475177   2.600554   2.469249   4.193736
    19  H    4.794854   2.801507   3.540880   2.747495   4.871782
    20  O    3.214361   1.447991   4.118061   2.083886   3.745557
    21  H    3.781161   1.974500   4.757964   2.203217   3.864482
    22  H    2.053625   3.909697   2.407300   4.670798   3.628097
    23  O    2.317563   3.718379   3.359995   4.734573   4.574349
    24  H    2.631703   3.411948   3.677885   4.467054   4.806506
    25  O    3.748549   3.700051   5.008082   4.706712   5.679381
    26  H    3.476536   3.840616   5.258716   4.883277   5.520267
    27  H    3.764798   3.113608   4.869698   4.027260   5.341407
    28  O    2.897259   3.823926   5.383123   4.789946   4.754302
    29  H    2.874694   3.171299   5.154484   4.052583   4.334023
    30  H    2.034875   3.499831   4.624789   4.499154   4.120105
                   11         12         13         14         15
    11  H    0.000000
    12  H    1.778729   0.000000
    13  H    5.117687   4.280815   0.000000
    14  O    2.100366   2.089401   5.014499   0.000000
    15  H    2.384271   2.312860   5.810916   0.968621   0.000000
    16  O    5.233164   4.111960   2.631850   5.768576   6.286670
    17  H    5.691038   4.342199   2.729735   5.919382   6.395908
    18  O    5.172905   3.751481   2.075233   4.618093   5.178015
    19  H    5.887537   4.558149   2.210676   5.119115   5.729000
    20  O    4.543435   4.213779   2.360466   3.871998   4.807214
    21  H    4.654124   4.469099   3.298478   3.648831   4.570924
    22  H    3.599479   3.422036   3.780690   5.022006   5.529413
    23  O    4.773173   4.607835   2.818253   5.765535   6.499981
    24  H    5.163565   4.913381   2.203181   5.832080   6.646044
    25  O    6.163210   5.982305   2.488431   6.374270   7.293493
    26  H    5.865622   5.973476   3.123272   6.218361   7.150539
    27  H    5.951781   5.676606   2.148916   5.853186   6.786667
    28  O    4.850196   5.477555   4.095597   5.379984   6.286597
    29  H    4.596616   5.100051   3.747132   4.760795   5.702926
    30  H    4.141201   4.767533   3.803297   4.953509   5.813076
                   16         17         18         19         20
    16  O    0.000000
    17  H    0.972658   0.000000
    18  O    2.767812   2.259285   0.000000
    19  H    3.490250   2.933942   0.969333   0.000000
    20  O    4.691970   4.817917   3.302222   3.225275   0.000000
    21  H    5.562271   5.646851   3.931162   3.796000   0.970234
    22  H    2.725734   3.617897   4.519034   5.308109   4.836822
    23  O    2.790461   3.646519   4.372109   4.874642   4.091175
    24  H    2.996414   3.679342   4.065290   4.388978   3.491552
    25  O    4.403746   4.819458   4.547780   4.489038   3.031388
    26  H    4.920964   5.446708   5.143541   5.167987   3.130264
    27  H    4.511529   4.781524   4.059308   3.882423   2.223981
    28  O    5.684265   6.301507   5.815857   5.997272   3.262512
    29  H    5.629806   6.127075   5.307845   5.418585   2.440554
    30  H    5.005828   5.696623   5.423201   5.753394   3.324163
                   21         22         23         24         25
    21  H    0.000000
    22  H    5.565680   0.000000
    23  O    4.962829   1.975747   0.000000
    24  H    4.405545   2.836762   0.988765   0.000000
    25  O    3.846504   4.579867   2.787736   1.834041   0.000000
    26  H    3.822268   4.536108   2.831824   2.065230   0.986343
    27  H    3.008945   4.869546   3.311485   2.373516   0.971870
    28  O    3.636136   4.461593   3.379761   3.056510   2.758087
    29  H    2.696483   4.682874   3.713932   3.276352   2.787116
    30  H    3.813816   3.523167   2.669931   2.589191   2.911761
                   26         27         28         29         30
    26  H    0.000000
    27  H    1.521045   0.000000
    28  O    1.860123   2.895310   0.000000
    29  H    2.087511   2.586125   0.971602   0.000000
    30  H    2.165315   3.125105   0.979194   1.517235   0.000000
 Symmetry turned off by external request.
 Stoichiometry    C6H16O8
 Framework group  C1[X(C6H16O8)]
 Deg. of freedom    84
 Full point group                 C1      NOp   1
 Rotational constants (GHZ):      0.6562090      0.5730550      0.4623249
 Standard basis: 6-31G(d) (6D, 7F)
   242 basis functions,   456 primitive gaussians,   242 cartesian basis functions
    58 alpha electrons       58 beta electrons
       nuclear repulsion energy      1126.9852497329 Hartrees.
 NAtoms=   30 NActive=   30 NUniq=   30 SFac= 1.00D+00 NAtFMM=   60 NAOKFM=F Big=F
 Integral buffers will be    131072 words long.
 Raffenetti 2 integral format.
 Two-electron integral symmetry is turned off.
 One-electron integrals computed using PRISM.
 NBasis=   242 RedAO= T EigKep=  1.38D-03  NBF=   242
 NBsUse=   242 1.00D-06 EigRej= -1.00D+00 NBFU=   242
 Initial guess from the checkpoint file:  "/scratch/10502190.yak.local/Gau-7719.chk"
 B after Tr=    -0.026563   -0.022582    0.017009
         Rot=    1.000000    0.000004   -0.000003   -0.000021 Ang=   0.00 deg.
 ExpMin= 1.61D-01 ExpMax= 5.48D+03 ExpMxC= 8.25D+02 IAcc=1 IRadAn=         1 AccDes= 0.00D+00
 Harris functional with IExCor=  402 and IRadAn=       1 diagonalized for initial guess.
 HarFok:  IExCor=  402 AccDes= 0.00D+00 IRadAn=         1 IDoV= 1 UseB2=F ITyADJ=14
 ICtDFT=  3500011 ScaDFX=  1.000000  1.000000  1.000000  1.000000
 FoFCou: FMM=F IPFlag=           0 FMFlag=      100000 FMFlg1=           0
         NFxFlg=           0 DoJE=T BraDBF=F KetDBF=T FulRan=T
         wScrn=  0.000000 ICntrl=     500 IOpCl=  0 I1Cent=   200000004 NGrid=           0
         NMat0=    1 NMatS0=      1 NMatT0=    0 NMatD0=    1 NMtDS0=    0 NMtDT0=    0
 Symmetry not used in FoFCou.
 Requested convergence on RMS density matrix=1.00D-08 within 128 cycles.
 Requested convergence on MAX density matrix=1.00D-06.
 Requested convergence on             energy=1.00D-06.
 No special actions if energy rises.
 Integral accuracy reduced to 1.0D-05 until final iterations.
 Initial convergence to 1.0D-05 achieved.  Increase integral accuracy.
 SCF Done:  E(RB3LYP) =  -839.983046081     A.U. after    9 cycles
            NFock=  9  Conv=0.91D-08     -V/T= 2.0085
 DoSCS=F DFT=T ScalE2(SS,OS)=  1.000000  1.000000
 Range of M.O.s used for correlation:     1   242
 NBasis=   242 NAE=    58 NBE=    58 NFC=     0 NFV=     0
 NROrb=    242 NOA=    58 NOB=    58 NVA=   184 NVB=   184
 Symmetrizing basis deriv contribution to polar:
 IMax=3 JMax=2 DiffMx= 0.00D+00
 Calling FoFJK, ICntrl=      2147 FMM=F ISym2X=0 I1Cent= 0 IOpClX= 0 NMat=1 NMatS=1 NMatT=0.
 -------------------------------------------------------------------
 Center     Atomic                   Forces (Hartrees/Bohr)
 Number     Number              X              Y              Z
 -------------------------------------------------------------------
      1        1           0.000008471    0.000000715   -0.000003979
      2        6          -0.000004784   -0.000002174   -0.000024284
      3        6          -0.000010801   -0.000018636    0.000005937
      4        6          -0.000007398    0.000014928   -0.000011928
      5        6          -0.000008743   -0.000001201    0.000013160
      6        8          -0.000002444    0.000026844   -0.000021982
      7        6           0.000002405   -0.000032264   -0.000020468
      8        1          -0.000001522   -0.000000962    0.000005643
      9        1           0.000000213   -0.000009220   -0.000001142
     10        6           0.000001126    0.000006548   -0.000017853
     11        1           0.000002972    0.000001171   -0.000002277
     12        1           0.000000812   -0.000004229   -0.000001997
     13        1          -0.000004418   -0.000001473    0.000003620
     14        8          -0.000000834   -0.000016012   -0.000018945
     15        1           0.000000568   -0.000006755   -0.000007166
     16        8          -0.000006240    0.000005992    0.000035733
     17        1          -0.000007889    0.000001905    0.000010787
     18        8          -0.000016568   -0.000040027    0.000017267
     19        1          -0.000005280   -0.000008774    0.000011692
     20        8           0.000004040   -0.000035135   -0.000037154
     21        1           0.000000390   -0.000014078   -0.000003461
     22        1           0.000000629    0.000006281    0.000008857
     23        8          -0.000001054    0.000015139    0.000009522
     24        1           0.000000343    0.000008144   -0.000008915
     25        8           0.000009963    0.000040642    0.000036229
     26        1           0.000003335    0.000003295    0.000004023
     27        1           0.000061007    0.000002519   -0.000049842
     28        8          -0.000279502    0.000177536    0.000272068
     29        1           0.000235057   -0.000046102   -0.000297533
     30        1           0.000026145   -0.000074619    0.000094387
 -------------------------------------------------------------------
 Cartesian Forces:  Max     0.000297533 RMS     0.000063878
 IRC-IRC-IRC-IRC-IRC-IRC-IRC-IRC-IRC-IRC-IRC-IRC-IRC-IRC-IRC-IRC-IRC-IRC
 Pt  1 Step number   1 out of a maximum of  20
 Modified Bulirsch-Stoer Extrapolation Cycles:
    EPS =    0.000010000000000
 Maximum DWI energy   std dev =  0.000000261 at pt     2
 Maximum DWI gradient std dev =  1.593595278 at pt     2
 WARNING: Bulirsch-Stoer Method is not Converging
 CORRECTOR INTEGRATION CONVERGENCE:
   Recorrection delta-x convergence threshold:    0.010000
   Delta-x Convergence NOT Met
 IRC-IRC-IRC-IRC-IRC-IRC-IRC-IRC-IRC-IRC-IRC-IRC-IRC-IRC-IRC-IRC-IRC-IRC
                          Input orientation:                          
 ---------------------------------------------------------------------
 Center     Atomic      Atomic             Coordinates (Angstroms)
 Number     Number       Type             X           Y           Z
 ---------------------------------------------------------------------
      1          1           0       -1.255457   -1.892800   -0.135972
      2          6           0       -1.156966   -0.818969   -0.338164
      3          6           0        0.029239    1.130423    0.867419
      4          6           0        0.654384    0.497034   -1.498123
      5          6           0        0.117200    1.609414   -0.578035
      6          8           0       -0.114556   -0.730806   -1.308049
      7          6           0       -0.839070   -0.134915    1.009924
      8          1           0       -0.896899    1.874106   -0.917668
      9          1           0       -1.789760    0.149193    1.473277
     10          6           0       -2.513690   -0.400893   -0.924821
     11          1           0       -2.615667   -0.883363   -1.906951
     12          1           0       -2.579199    0.686313   -1.071119
     13          1           0        1.044678    0.890651    1.198671
     14          8           0       -3.500262   -0.854653   -0.002150
     15          1           0       -4.369715   -0.572779   -0.322819
     16          8           0        0.969209    2.728007   -0.684273
     17          1           0        0.686909    3.329457    0.026113
     18          8           0       -0.477551    2.235648    1.623254
     19          1           0       -0.205287    2.119472    2.546299
     20          8           0       -0.128149   -1.036612    1.891977
     21          1           0       -0.780416   -1.624568    2.304548
     22          1           0        0.508426    0.787698   -2.542364
     23          8           0        1.995661    0.225293   -1.369587
     24          1           0        2.248220    0.029803   -0.433824
     25          8           0        2.783892   -0.884040    1.063245
     26          1           0        2.628235   -1.729262    0.579270
     27          1           0        2.086892   -0.908851    1.739976
     28          8           0        1.462679   -2.918207   -0.249460
     29          1           0        0.827758   -2.782936    0.472778
     30          1           0        1.157940   -2.268482   -0.915456
 ---------------------------------------------------------------------
                    Distance matrix (angstroms):
                    1          2          3          4          5
     1  H    0.000000
     2  C    1.097130   0.000000
     3  C    3.434693   2.580822   0.000000
     4  C    3.348769   2.521578   2.527405   0.000000
     5  C    3.787493   2.752831   1.525289   1.540298   0.000000
     6  O    2.006402   1.426558   2.866620   1.461160   2.462369
     7  C    2.139302   1.544775   1.541217   2.986648   2.545339
     8  H    3.863831   2.766968   2.144139   2.154004   1.101730
     9  H    2.654223   2.149206   2.153749   3.863166   3.158579
    10  C    2.105046   1.536116   3.467498   3.342400   3.329140
    11  H    2.450612   2.143140   4.329896   3.572936   3.930461
    12  H    3.046082   2.196780   3.280109   3.267142   2.892372
    13  H    3.849609   3.183064   1.094685   2.753173   2.129207
    14  O    2.476854   2.367533   4.141745   4.618016   4.414669
    15  H    3.387620   3.222204   4.865014   5.269479   4.995949
    16  O    5.157676   4.149873   2.417347   2.395559   1.410126
    17  H    5.574139   4.554340   2.444601   3.216671   1.910003
    18  O    4.554569   3.693163   1.431658   3.747940   2.364650
    19  H    4.939206   4.226140   1.962616   4.441699   3.182078
    20  O    2.473147   2.465636   2.402193   3.802264   3.628031
    21  H    2.500750   2.788317   3.211053   4.584775   4.424211
    22  H    4.010869   3.195842   3.460304   1.093722   2.164917
    23  O    4.071596   3.477553   3.112920   1.374551   2.463932
    24  H    4.007601   3.510678   2.797941   1.972651   2.656542
    25  O    4.332673   4.183126   3.418263   3.605937   4.002794
    26  H    3.952389   3.999759   3.874998   3.628781   4.334906
    27  H    3.957099   3.853487   3.025546   3.809709   3.948990
    28  O    2.907336   3.358156   4.437744   3.725100   4.734725
    29  H    2.345784   2.907564   4.013447   3.830498   4.571853
    30  H    2.563829   2.791621   4.000646   2.870740   4.029277
                    6          7          8          9         10
     6  O    0.000000
     7  C    2.500601   0.000000
     8  H    2.747731   2.784802   0.000000
     9  H    3.363998   1.095091   3.080445   0.000000
    10  C    2.451846   2.572612   2.791000   2.564672   0.000000
    11  H    2.576338   3.496374   3.396540   3.629633   1.098980
    12  H    2.852864   2.834291   2.065075   2.717657   1.098959
    13  H    3.202592   2.153118   3.035753   2.942653   4.340425
    14  O    3.630939   2.936709   3.880953   2.471924   1.424972
    15  H    4.370587   3.799129   4.289702   3.225426   1.958770
    16  O    3.677911   3.786357   2.065425   4.349392   4.688119
    17  H    4.348341   3.911313   2.348876   4.282785   5.006358
    18  O    4.186186   2.475165   2.600548   2.469348   4.194031
    19  H    4.794613   2.800784   3.540848   2.746621   4.871308
    20  O    3.214633   1.447924   4.117932   2.083841   3.745570
    21  H    3.780614   1.974477   4.757832   2.203637   3.863994
    22  H    2.053654   3.909695   2.407251   4.670623   3.627999
    23  O    2.317527   3.718538   3.360017   4.734668   4.574295
    24  H    2.631635   3.412169   3.677952   4.467278   4.806491
    25  O    3.748001   3.699984   5.007954   4.706802   5.678927
    26  H    3.475887   3.840522   5.258484   4.883290   5.519624
    27  H    3.764111   3.113392   4.869387   4.027284   5.340835
    28  O    2.897068   3.825024   5.383342   4.791151   4.754418
    29  H    2.875854   3.174721   5.157114   4.055833   4.335053
    30  H    2.034163   3.499606   4.624219   4.498904   4.119325
                   11         12         13         14         15
    11  H    0.000000
    12  H    1.778716   0.000000
    13  H    5.117631   4.280910   0.000000
    14  O    2.100381   2.089408   5.014433   0.000000
    15  H    2.383825   2.313269   5.811386   0.968622   0.000000
    16  O    5.233381   4.112100   2.631929   5.768615   6.287285
    17  H    5.691362   4.342533   2.729591   5.919457   6.396768
    18  O    5.173212   3.751934   2.075204   4.618298   5.179132
    19  H    5.887138   4.557973   2.210999   5.118288   5.729094
    20  O    4.543466   4.213793   2.360199   3.871947   4.807426
    21  H    4.653414   4.468884   3.298524   3.648450   4.570819
    22  H    3.599466   3.421736   3.780676   5.021911   5.529334
    23  O    4.773074   4.607708   2.818336   5.765530   6.500050
    24  H    5.163465   4.913362   2.203318   5.832122   6.646238
    25  O    6.162573   5.981995   2.488520   6.373894   7.293294
    26  H    5.864755   5.972953   3.123340   6.217835   7.150001
    27  H    5.951033   5.676197   2.148820   5.852711   6.786445
    28  O    4.849822   5.477633   4.096243   5.380539   6.286750
    29  H    4.596593   5.101634   3.750895   4.761889   5.703638
    30  H    4.140257   4.766682   3.802957   4.952968   5.812193
                   16         17         18         19         20
    16  O    0.000000
    17  H    0.972669   0.000000
    18  O    2.767709   2.259036   0.000000
    19  H    3.490896   2.934522   0.969349   0.000000
    20  O    4.691867   4.817502   3.301815   3.224121   0.000000
    21  H    5.562297   5.646829   3.931560   3.795662   0.970237
    22  H    2.725733   3.617938   4.518970   5.308249   4.837015
    23  O    2.790490   3.646456   4.372117   4.875064   4.091549
    24  H    2.996480   3.679259   4.065360   4.389481   3.491951
    25  O    4.403836   4.819392   4.547865   4.489512   3.031511
    26  H    4.920991   5.446592   5.143571   5.168250   3.130594
    27  H    4.511422   4.781269   4.059294   3.882651   2.223924
    28  O    5.684391   6.301671   5.816681   5.998049   3.264489
    29  H    5.632874   6.130310   5.311649   5.422202   2.444899
    30  H    5.005393   5.696081   5.422829   5.752936   3.324637
                   21         22         23         24         25
    21  H    0.000000
    22  H    5.565312   0.000000
    23  O    4.962647   1.975746   0.000000
    24  H    4.405481   2.836763   0.988764   0.000000
    25  O    3.846233   4.579614   2.787580   1.833922   0.000000
    26  H    3.821838   4.535777   2.831692   2.065208   0.986337
    27  H    3.008729   4.869114   3.311191   2.373290   0.971797
    28  O    3.637023   4.461136   3.379400   3.056440   2.758012
    29  H    2.698781   4.684280   3.715878   3.278893   2.789429
    30  H    3.813172   3.522631   2.669630   2.588976   2.911298
                   26         27         28         29         30
    26  H    0.000000
    27  H    1.520975   0.000000
    28  O    1.859813   2.895688   0.000000
    29  H    2.088848   2.589093   0.971108   0.000000
    30  H    2.164886   3.124559   0.979060   1.516865   0.000000
 Symmetry turned off by external request.
 Stoichiometry    C6H16O8
 Framework group  C1[X(C6H16O8)]
 Deg. of freedom    84
 Full point group                 C1      NOp   1
 Rotational constants (GHZ):      0.6561533      0.5730547      0.4623104
 Standard basis: 6-31G(d) (6D, 7F)
   242 basis functions,   456 primitive gaussians,   242 cartesian basis functions
    58 alpha electrons       58 beta electrons
       nuclear repulsion energy      1126.9759653776 Hartrees.
 NAtoms=   30 NActive=   30 NUniq=   30 SFac= 1.00D+00 NAtFMM=   60 NAOKFM=F Big=F
 Integral buffers will be    131072 words long.
 Raffenetti 2 integral format.
 Two-electron integral symmetry is turned off.
 One-electron integrals computed using PRISM.
 NBasis=   242 RedAO= T EigKep=  1.38D-03  NBF=   242
 NBsUse=   242 1.00D-06 EigRej= -1.00D+00 NBFU=   242
 Initial guess from the checkpoint file:  "/scratch/10502190.yak.local/Gau-7719.chk"
 B after Tr=     0.000013    0.000016    0.000015
         Rot=    1.000000   -0.000316    0.000158   -0.000273 Ang=  -0.05 deg.
 ExpMin= 1.61D-01 ExpMax= 5.48D+03 ExpMxC= 8.25D+02 IAcc=1 IRadAn=         1 AccDes= 0.00D+00
 Harris functional with IExCor=  402 and IRadAn=       1 diagonalized for initial guess.
 HarFok:  IExCor=  402 AccDes= 0.00D+00 IRadAn=         1 IDoV= 1 UseB2=F ITyADJ=14
 ICtDFT=  3500011 ScaDFX=  1.000000  1.000000  1.000000  1.000000
 FoFCou: FMM=F IPFlag=           0 FMFlag=      100000 FMFlg1=           0
         NFxFlg=           0 DoJE=T BraDBF=F KetDBF=T FulRan=T
         wScrn=  0.000000 ICntrl=     500 IOpCl=  0 I1Cent=   200000004 NGrid=           0
         NMat0=    1 NMatS0=      1 NMatT0=    0 NMatD0=    1 NMtDS0=    0 NMtDT0=    0
 Symmetry not used in FoFCou.
 Requested convergence on RMS density matrix=1.00D-08 within 128 cycles.
 Requested convergence on MAX density matrix=1.00D-06.
 Requested convergence on             energy=1.00D-06.
 No special actions if energy rises.
 Integral accuracy reduced to 1.0D-05 until final iterations.
 Initial convergence to 1.0D-05 achieved.  Increase integral accuracy.
 SCF Done:  E(RB3LYP) =  -839.983047183     A.U. after    9 cycles
            NFock=  9  Conv=0.34D-08     -V/T= 2.0085
 DoSCS=F DFT=T ScalE2(SS,OS)=  1.000000  1.000000
 Range of M.O.s used for correlation:     1   242
 NBasis=   242 NAE=    58 NBE=    58 NFC=     0 NFV=     0
 NROrb=    242 NOA=    58 NOB=    58 NVA=   184 NVB=   184
 Symmetrizing basis deriv contribution to polar:
 IMax=3 JMax=2 DiffMx= 0.00D+00
 Calling FoFJK, ICntrl=      2147 FMM=F ISym2X=0 I1Cent= 0 IOpClX= 0 NMat=1 NMatS=1 NMatT=0.
 -------------------------------------------------------------------
 Center     Atomic                   Forces (Hartrees/Bohr)
 Number     Number              X              Y              Z
 -------------------------------------------------------------------
      1        1           0.000001472    0.000000020   -0.000002473
      2        6           0.000000418   -0.000004740   -0.000022328
      3        6          -0.000009581   -0.000018790    0.000008244
      4        6          -0.000002879    0.000017874   -0.000000781
      5        6          -0.000007004    0.000002312    0.000015738
      6        8           0.000001144    0.000019000   -0.000025108
      7        6          -0.000002053   -0.000026841   -0.000011609
      8        1          -0.000001086    0.000000126    0.000001527
      9        1          -0.000000810   -0.000002332   -0.000001029
     10        6          -0.000001115   -0.000000588   -0.000016484
     11        1           0.000001112   -0.000000318   -0.000001562
     12        1           0.000000025   -0.000001452   -0.000000540
     13        1          -0.000001179   -0.000000486    0.000001341
     14        8           0.000001019   -0.000019675   -0.000027048
     15        1           0.000000549   -0.000003559   -0.000002829
     16        8          -0.000013275    0.000009004    0.000044642
     17        1          -0.000002169   -0.000000294    0.000002905
     18        8          -0.000020103   -0.000041566    0.000028890
     19        1          -0.000003702   -0.000003033    0.000000076
     20        8           0.000006646   -0.000047475   -0.000039946
     21        1          -0.000004272   -0.000005686   -0.000000113
     22        1           0.000000136    0.000002310    0.000002449
     23        8          -0.000001195    0.000026107   -0.000001638
     24        1           0.000000309    0.000002040    0.000000758
     25        8           0.000056926    0.000044971   -0.000003684
     26        1           0.000000314   -0.000000644   -0.000001925
     27        1           0.000004524    0.000000727   -0.000001426
     28        8           0.000023628    0.000029026    0.000022001
     29        1          -0.000031070    0.000017395    0.000042911
     30        1           0.000003271    0.000006570   -0.000010961
 -------------------------------------------------------------------
 Cartesian Forces:  Max     0.000056926 RMS     0.000016776
 IRC-IRC-IRC-IRC-IRC-IRC-IRC-IRC-IRC-IRC-IRC-IRC-IRC-IRC-IRC-IRC-IRC-IRC
 Error in corrector energy =           0.0000000441
 Magnitude of corrector gradient =     0.0001628531
 Magnitude of analytic gradient =      0.0001591544
 Magnitude of difference =             0.0000831263
 Angle between gradients (degrees)=   29.8923
 Pt  1 Step number   2 out of a maximum of  20
 Modified Bulirsch-Stoer Extrapolation Cycles:
    EPS =    0.000010000000000
 Maximum DWI energy   std dev =  0.000000354 at pt     2
 Maximum DWI gradient std dev =  1.515230092 at pt     5
 WARNING: Bulirsch-Stoer Method is not Converging
 CORRECTOR INTEGRATION CONVERGENCE:
   Recorrection delta-x convergence threshold:    0.010000
   Delta-x Convergence NOT Met
 IRC-IRC-IRC-IRC-IRC-IRC-IRC-IRC-IRC-IRC-IRC-IRC-IRC-IRC-IRC-IRC-IRC-IRC
                          Input orientation:                          
 ---------------------------------------------------------------------
 Center     Atomic      Atomic             Coordinates (Angstroms)
 Number     Number       Type             X           Y           Z
 ---------------------------------------------------------------------
      1          1           0       -1.255183   -1.892904   -0.136078
      2          6           0       -1.156836   -0.819056   -0.338248
      3          6           0        0.029103    1.130416    0.867500
      4          6           0        0.654427    0.497191   -1.498044
      5          6           0        0.117088    1.609473   -0.577925
      6          8           0       -0.114414   -0.730721   -1.308099
      7          6           0       -0.839091   -0.135015    1.009883
      8          1           0       -0.897026    1.874069   -0.917594
      9          1           0       -1.789837    0.148986    1.473188
     10          6           0       -2.513581   -0.401159   -0.924976
     11          1           0       -2.615450   -0.883722   -1.907072
     12          1           0       -2.579189    0.686027   -1.071367
     13          1           0        1.044550    0.890750    1.198804
     14          8           0       -3.500155   -0.854950   -0.002323
     15          1           0       -4.369644   -0.573439   -0.323214
     16          8           0        0.968984    2.728160   -0.684072
     17          1           0        0.686542    3.329573    0.026290
     18          8           0       -0.477847    2.235551    1.623356
     19          1           0       -0.205632    2.119364    2.546413
     20          8           0       -0.128138   -1.036685    1.891937
     21          1           0       -0.780373   -1.624700    2.304486
     22          1           0        0.508513    0.787920   -2.542270
     23          8           0        1.995720    0.225549   -1.369442
     24          1           0        2.248190    0.029873   -0.433689
     25          8           0        2.783619   -0.884116    1.063280
     26          1           0        2.628324   -1.729315    0.579159
     27          1           0        2.086300   -0.909119    1.739675
     28          8           0        1.462876   -2.918423   -0.249879
     29          1           0        0.827849   -2.782988    0.472316
     30          1           0        1.158346   -2.268644   -0.915934
 ---------------------------------------------------------------------
                    Distance matrix (angstroms):
                    1          2          3          4          5
     1  H    0.000000
     2  C    1.097130   0.000000
     3  C    3.434679   2.580837   0.000000
     4  C    3.348748   2.521568   2.527410   0.000000
     5  C    3.787480   2.752831   1.525284   1.540300   0.000000
     6  O    2.006403   1.426554   2.866646   1.461151   2.462368
     7  C    2.139284   1.544776   1.541216   2.986633   2.545319
     8  H    3.863823   2.766960   2.144131   2.154001   1.101731
     9  H    2.654224   2.149208   2.153742   3.863145   3.158552
    10  C    2.105048   1.536114   3.467555   3.342411   3.329190
    11  H    2.450550   2.143116   4.329972   3.572998   3.930574
    12  H    3.046086   2.196776   3.280225   3.267106   2.892429
    13  H    3.849598   3.183090   1.094685   2.753193   2.129206
    14  O    2.476921   2.367547   4.141730   4.618009   4.414651
    15  H    3.387606   3.222218   4.865171   5.269512   4.996073
    16  O    5.157659   4.149873   2.417341   2.395563   1.410126
    17  H    5.574130   4.554345   2.444617   3.216678   1.910000
    18  O    4.554558   3.693175   1.431657   3.747943   2.364648
    19  H    4.939191   4.226153   1.962618   4.441709   3.182079
    20  O    2.473092   2.465625   2.402191   3.802256   3.628017
    21  H    2.500746   2.788339   3.211051   4.584791   4.424207
    22  H    4.010885   3.195852   3.460299   1.093720   2.164905
    23  O    4.071535   3.477523   3.112920   1.374552   2.463940
    24  H    4.007401   3.510554   2.797970   1.972642   2.656602
    25  O    4.332209   4.182786   3.418190   3.605807   4.002740
    26  H    3.952209   3.999705   3.875197   3.628825   4.335050
    27  H    3.956234   3.852766   3.025301   3.809303   3.948718
    28  O    2.907315   3.358279   4.438167   3.725308   4.735039
    29  H    2.345509   2.907407   4.013588   3.830400   4.571860
    30  H    2.564075   2.791970   4.001179   2.870997   4.029672
                    6          7          8          9         10
     6  O    0.000000
     7  C    2.500612   0.000000
     8  H    2.747709   2.784770   0.000000
     9  H    3.363998   1.095092   3.080400   0.000000
    10  C    2.451815   2.572631   2.791052   2.564694   0.000000
    11  H    2.576307   3.496375   3.396683   3.629639   1.098979
    12  H    2.852776   2.834370   2.065130   2.717766   1.098958
    13  H    3.202644   2.153134   3.035749   2.942660   4.340480
    14  O    3.630939   2.936687   3.880920   2.471883   1.424971
    15  H    4.370550   3.799232   4.289832   3.225579   1.958767
    16  O    3.677910   3.786342   2.065429   4.349368   4.688170
    17  H    4.348346   3.911314   2.348850   4.282768   5.006402
    18  O    4.186201   2.475162   2.600541   2.469336   4.194097
    19  H    4.794639   2.800789   3.540839   2.746617   4.871366
    20  O    3.214659   1.447924   4.117905   2.083845   3.745562
    21  H    3.780671   1.974490   4.757814   2.203642   3.864000
    22  H    2.053652   3.909685   2.407245   4.670605   3.628029
    23  O    2.317516   3.718514   3.360024   4.734643   4.574288
    24  H    2.631538   3.412095   3.677989   4.467217   4.806414
    25  O    3.747741   3.699734   5.007853   4.706572   5.678621
    26  H    3.475852   3.840610   5.258587   4.883385   5.519566
    27  H    3.763495   3.112836   4.869029   4.026790   5.340158
    28  O    2.897190   3.825364   5.383582   4.791460   4.754427
    29  H    2.875680   3.174811   5.157055   4.055920   4.334822
    30  H    2.034433   3.500128   4.624567   4.499402   4.119543
                   11         12         13         14         15
    11  H    0.000000
    12  H    1.778715   0.000000
    13  H    5.117696   4.281013   0.000000
    14  O    2.100380   2.089411   5.014430   0.000000
    15  H    2.383711   2.313377   5.811529   0.968622   0.000000
    16  O    5.233506   4.112157   2.631921   5.768592   6.287426
    17  H    5.691476   4.342602   2.729619   5.919416   6.396927
    18  O    5.173310   3.752092   2.075193   4.618265   5.179347
    19  H    5.887213   4.558131   2.210995   5.118249   5.729305
    20  O    4.543412   4.213853   2.360219   3.871918   4.807479
[...]
 ICtDFT=  3500011 ScaDFX=  1.000000  1.000000  1.000000  1.000000
 FoFCou: FMM=F IPFlag=           0 FMFlag=      100000 FMFlg1=           0
         NFxFlg=           0 DoJE=T BraDBF=F KetDBF=T FulRan=T
         wScrn=  0.000000 ICntrl=     500 IOpCl=  0 I1Cent=   200000004 NGrid=           0
         NMat0=    1 NMatS0=      1 NMatT0=    0 NMatD0=    1 NMtDS0=    0 NMtDT0=    0
 Symmetry not used in FoFCou.
 Requested convergence on RMS density matrix=1.00D-08 within 128 cycles.
 Requested convergence on MAX density matrix=1.00D-06.
 Requested convergence on             energy=1.00D-06.
 No special actions if energy rises.
 Integral accuracy reduced to 1.0D-05 until final iterations.
 Initial convergence to 1.0D-05 achieved.  Increase integral accuracy.
 SCF Done:  E(RB3LYP) =  -839.983047232     A.U. after    7 cycles
            NFock=  7  Conv=0.82D-08     -V/T= 2.0085
 DoSCS=F DFT=T ScalE2(SS,OS)=  1.000000  1.000000
 Range of M.O.s used for correlation:     1   242
 NBasis=   242 NAE=    58 NBE=    58 NFC=     0 NFV=     0
 NROrb=    242 NOA=    58 NOB=    58 NVA=   184 NVB=   184
 Symmetrizing basis deriv contribution to polar:
 IMax=3 JMax=2 DiffMx= 0.00D+00
 Calling FoFJK, ICntrl=      2147 FMM=F ISym2X=0 I1Cent= 0 IOpClX= 0 NMat=1 NMatS=1 NMatT=0.
 -------------------------------------------------------------------
 Center     Atomic                   Forces (Hartrees/Bohr)
 Number     Number              X              Y              Z
 -------------------------------------------------------------------
      1        1           0.000000487   -0.000000796   -0.000003328
      2        6           0.000000739   -0.000005811   -0.000022230
      3        6          -0.000009222   -0.000018050    0.000008081
      4        6          -0.000001886    0.000017426    0.000000609
      5        6          -0.000007057    0.000002572    0.000014723
      6        8           0.000002170    0.000017565   -0.000025735
      7        6          -0.000002892   -0.000025030   -0.000011741
      8        1          -0.000000616    0.000000324    0.000001400
      9        1          -0.000000340   -0.000003211   -0.000000521
     10        6          -0.000000619   -0.000002596   -0.000016399
     11        1           0.000000032    0.000000656   -0.000001817
     12        1          -0.000000350   -0.000000098   -0.000000383
     13        1          -0.000000778   -0.000001521    0.000000698
     14        8           0.000001935   -0.000020621   -0.000027216
     15        1          -0.000000106   -0.000002568   -0.000002216
     16        8          -0.000014159    0.000009398    0.000043176
     17        1          -0.000001258   -0.000000291    0.000003332
     18        8          -0.000022583   -0.000039814    0.000026715
     19        1          -0.000002555   -0.000003878    0.000001853
     20        8           0.000002651   -0.000050315   -0.000035343
     21        1           0.000000211   -0.000003590   -0.000002719
     22        1           0.000000011    0.000002679    0.000000366
     23        8          -0.000000835    0.000026598   -0.000000802
     24        1           0.000000343    0.000002291   -0.000000086
     25        8           0.000053440    0.000038100   -0.000006553
     26        1           0.000002169    0.000002275    0.000000164
     27        1           0.000005871    0.000002161    0.000002102
     28        8          -0.000007739    0.000044942    0.000050292
     29        1           0.000000980    0.000010207    0.000003298
     30        1           0.000001954    0.000000995    0.000000280
 -------------------------------------------------------------------
 Cartesian Forces:  Max     0.000053440 RMS     0.000016154
 IRC-IRC-IRC-IRC-IRC-IRC-IRC-IRC-IRC-IRC-IRC-IRC-IRC-IRC-IRC-IRC-IRC-IRC
 Error in corrector energy =          -0.0000000000
 Magnitude of corrector gradient =     0.0001532524
 Magnitude of analytic gradient =      0.0001532524
 Magnitude of difference =             0.0000000001
 Angle between gradients (degrees)=    0.0000
 Pt  1 Step number  19 out of a maximum of  20
 Modified Bulirsch-Stoer Extrapolation Cycles:
    EPS =    0.000010000000000
 Maximum DWI energy   std dev =  0.000000389 at pt     2
 Maximum DWI gradient std dev =  1.508732674 at pt     5
 WARNING: Bulirsch-Stoer Method is not Converging
 CORRECTOR INTEGRATION CONVERGENCE:
   Recorrection delta-x convergence threshold:    0.010000
   Delta-x Convergence NOT Met
 IRC-IRC-IRC-IRC-IRC-IRC-IRC-IRC-IRC-IRC-IRC-IRC-IRC-IRC-IRC-IRC-IRC-IRC
                          Input orientation:                          
 ---------------------------------------------------------------------
 Center     Atomic      Atomic             Coordinates (Angstroms)
 Number     Number       Type             X           Y           Z
 ---------------------------------------------------------------------
      1          1           0       -1.255150   -1.892924   -0.136103
      2          6           0       -1.156817   -0.819073   -0.338262
      3          6           0        0.029073    1.130405    0.867520
      4          6           0        0.654433    0.497222   -1.498025
      5          6           0        0.117062    1.609482   -0.577897
      6          8           0       -0.114386   -0.730711   -1.308100
      7          6           0       -0.839098   -0.135043    1.009880
      8          1           0       -0.897053    1.874063   -0.917573
      9          1           0       -1.789854    0.148937    1.473177
     10          6           0       -2.513562   -0.401194   -0.925005
     11          1           0       -2.615409   -0.883752   -1.907106
     12          1           0       -2.579186    0.685992   -1.071389
     13          1           0        1.044522    0.890759    1.198830
     14          8           0       -3.500141   -0.855007   -0.002369
     15          1           0       -4.369630   -0.573516   -0.323274
     16          8           0        0.968938    2.728187   -0.684020
     17          1           0        0.686475    3.329586    0.026346
     18          8           0       -0.477906    2.235519    1.623388
     19          1           0       -0.205687    2.119330    2.546443
     20          8           0       -0.128138   -1.036708    1.891929
     21          1           0       -0.780365   -1.624731    2.304479
     22          1           0        0.508518    0.787960   -2.542249
     23          8           0        1.995728    0.225607   -1.369417
     24          1           0        2.248188    0.029900   -0.433666
     25          8           0        2.783557   -0.884118    1.063295
     26          1           0        2.628305   -1.729304    0.579131
     27          1           0        2.086159   -0.909151    1.739617
     28          8           0        1.462962   -2.918430   -0.249997
     29          1           0        0.827879   -2.783311    0.472196
     30          1           0        1.158321   -2.268586   -0.915935
 ---------------------------------------------------------------------
                    Distance matrix (angstroms):
                    1          2          3          4          5
     1  H    0.000000
     2  C    1.097130   0.000000
     3  C    3.434678   2.580836   0.000000
     4  C    3.348752   2.521569   2.527410   0.000000
     5  C    3.787479   2.752830   1.525283   1.540300   0.000000
     6  O    2.006405   1.426554   2.866646   1.461155   2.462370
     7  C    2.139281   1.544775   1.541216   2.986634   2.545318
     8  H    3.863823   2.766959   2.144131   2.154002   1.101732
     9  H    2.654220   2.149207   2.153740   3.863144   3.158548
    10  C    2.105048   1.536114   3.467555   3.342409   3.329187
    11  H    2.450548   2.143115   4.329973   3.572996   3.930574
    12  H    3.046086   2.196777   3.280227   3.267100   2.892425
    13  H    3.849601   3.183092   1.094684   2.753193   2.129203
    14  O    2.476921   2.367548   4.141729   4.618008   4.414646
    15  H    3.387603   3.222218   4.865175   5.269509   4.996070
    16  O    5.157659   4.149872   2.417339   2.395563   1.410126
    17  H    5.574128   4.554342   2.444616   3.216678   1.909999
    18  O    4.554554   3.693173   1.431657   3.747945   2.364649
    19  H    4.939191   4.226155   1.962617   4.441707   3.182077
    20  O    2.473091   2.465624   2.402189   3.802256   3.628015
    21  H    2.500758   2.788348   3.211046   4.584798   4.424206
    22  H    4.010886   3.195850   3.460298   1.093719   2.164905
    23  O    4.071541   3.477525   3.112921   1.374550   2.463940
    24  H    4.007390   3.510544   2.797976   1.972639   2.656611
    25  O    4.332136   4.182720   3.418160   3.605778   4.002718
    26  H    3.952159   3.999660   3.875192   3.628797   4.335037
    27  H    3.956069   3.852609   3.025219   3.809207   3.948637
    28  O    2.907365   3.358323   4.438237   3.725316   4.735077
    29  H    2.345598   2.907592   4.013920   3.830634   4.572154
    30  H    2.564002   2.791892   4.001131   2.870963   4.029628
                    6          7          8          9         10
     6  O    0.000000
     7  C    2.500612   0.000000
     8  H    2.747713   2.784770   0.000000
     9  H    3.363997   1.095092   3.080396   0.000000
    10  C    2.451813   2.572634   2.791049   2.564697   0.000000
    11  H    2.576305   3.496377   3.396685   3.629641   1.098980
    12  H    2.852774   2.834376   2.065126   2.717773   1.098958
    13  H    3.202645   2.153136   3.035748   2.942661   4.340482
    14  O    3.630939   2.936690   3.880914   2.471886   1.424971
    15  H    4.370548   3.799238   4.289828   3.225587   1.958766
    16  O    3.677912   3.786341   2.065429   4.349363   4.688166
    17  H    4.348348   3.911312   2.348848   4.282762   5.006398
    18  O    4.186202   2.475160   2.600542   2.469332   4.194099
    19  H    4.794640   2.800791   3.540840   2.746623   4.871374
    20  O    3.214656   1.447921   4.117903   2.083845   3.745564
    21  H    3.780678   1.974489   4.757815   2.203641   3.864011
    22  H    2.053654   3.909683   2.407243   4.670600   3.628021
    23  O    2.317517   3.718516   3.360023   4.734643   4.574284
    24  H    2.631524   3.412091   3.677995   4.467214   4.806404
    25  O    3.747683   3.699675   5.007824   4.706517   5.678558
    26  H    3.475800   3.840586   5.258567   4.883364   5.519520
    27  H    3.763353   3.112699   4.868932   4.026664   5.340007
    28  O    2.897193   3.825443   5.383616   4.791542   4.754457
    29  H    2.875846   3.175097   5.157324   4.056177   4.334961
    30  H    2.034364   3.500065   4.624512   4.499334   4.119461
                   11         12         13         14         15
    11  H    0.000000
    12  H    1.778716   0.000000
    13  H    5.117697   4.281015   0.000000
    14  O    2.100381   2.089411   5.014433   0.000000
    15  H    2.383707   2.313380   5.811535   0.968622   0.000000
    16  O    5.233506   4.112153   2.631916   5.768587   6.287423
    17  H    5.691475   4.342597   2.729615   5.919408   6.396923
    18  O    5.173312   3.752098   2.075191   4.618262   5.179352
    19  H    5.887220   4.558143   2.210989   5.118257   5.729320
    20  O    4.543411   4.213857   2.360222   3.871923   4.807487
    21  H    4.653374   4.468969   3.298539   3.648453   4.570882
    22  H    3.599576   3.421658   3.780680   5.021920   5.529358
    23  O    4.773088   4.607669   2.818353   5.765511   6.500061
    24  H    5.163367   4.913317   2.203391   5.832012   6.646187
    25  O    6.162152   5.981734   2.488534   6.373488   7.292951
    26  H    5.864544   5.972925   3.123639   6.217748   7.149914
    27  H    5.950124   5.675534   2.148752   5.851854   6.785675
    28  O    4.849643   5.477728   4.096841   5.380653   6.286742
    29  H    4.596263   5.101648   3.751496   4.761862   5.703514
    30  H    4.140196   4.766829   3.803503   4.953189   5.812293
                   16         17         18         19         20
    16  O    0.000000
    17  H    0.972669   0.000000
    18  O    2.767708   2.259050   0.000000
    19  H    3.490894   2.934546   0.969347   0.000000
    20  O    4.691857   4.817522   3.301807   3.224125   0.000000
    21  H    5.562291   5.646837   3.931527   3.795629   0.970241
    22  H    2.725707   3.617901   4.518959   5.308241   4.837012
    23  O    2.790515   3.646503   4.372127   4.875077   4.091531
    24  H    2.996650   3.679468   4.065441   4.389564   3.491843
    25  O    4.403942   4.819577   4.547855   4.489545   3.031152
    26  H    4.921207   5.446893   5.143816   5.168541   3.130672
    27  H    4.511367   4.781350   4.059174   3.882683   2.223192
    28  O    5.684780   6.302142   5.817193   5.998624   3.265015
    29  H    5.633236   6.130766   5.312154   5.422790   2.445452
    30  H    5.005735   5.696495   5.423316   5.753467   3.325147
                   21         22         23         24         25
    21  H    0.000000
    22  H    5.565345   0.000000
    23  O    4.962656   1.975746   0.000000
    24  H    4.405380   2.836764   0.988770   0.000000
    25  O    3.845853   4.579476   2.787517   1.833833   0.000000
    26  H    3.821883   4.535761   2.831725   2.065198   0.986335
    27  H    3.008003   4.868626   3.310883   2.373021   0.971803
    28  O    3.637515   4.461246   3.379631   3.056626   2.758103
    29  H    2.699262   4.684320   3.716046   3.279027   2.789446
    30  H    3.813675   3.522728   2.669811   2.589098   2.911270
                   26         27         28         29         30
    26  H    0.000000
    27  H    1.520954   0.000000
    28  O    1.859972   2.895537   0.000000
    29  H    2.088995   2.588842   0.971159   0.000000
    30  H    2.164925   3.124244   0.979070   1.516919   0.000000
 Symmetry turned off by external request.
 Stoichiometry    C6H16O8
 Framework group  C1[X(C6H16O8)]
 Deg. of freedom    84
 Full point group                 C1      NOp   1
 Rotational constants (GHZ):      0.6561039      0.5730847      0.4623048
 Standard basis: 6-31G(d) (6D, 7F)
   242 basis functions,   456 primitive gaussians,   242 cartesian basis functions
    58 alpha electrons       58 beta electrons
       nuclear repulsion energy      1126.9729224659 Hartrees.
 NAtoms=   30 NActive=   30 NUniq=   30 SFac= 1.00D+00 NAtFMM=   60 NAOKFM=F Big=F
 Integral buffers will be    131072 words long.
 Raffenetti 2 integral format.
 Two-electron integral symmetry is turned off.
 One-electron integrals computed using PRISM.
 NBasis=   242 RedAO= T EigKep=  1.38D-03  NBF=   242
 NBsUse=   242 1.00D-06 EigRej= -1.00D+00 NBFU=   242
 Initial guess from the checkpoint file:  "/scratch/10502190.yak.local/Gau-7719.chk"
 B after Tr=    -0.000000   -0.000000   -0.000000
         Rot=    1.000000   -0.000000    0.000000   -0.000000 Ang=   0.00 deg.
 ExpMin= 1.61D-01 ExpMax= 5.48D+03 ExpMxC= 8.25D+02 IAcc=1 IRadAn=         1 AccDes= 0.00D+00
 Harris functional with IExCor=  402 and IRadAn=       1 diagonalized for initial guess.
 HarFok:  IExCor=  402 AccDes= 0.00D+00 IRadAn=         1 IDoV= 1 UseB2=F ITyADJ=14
 ICtDFT=  3500011 ScaDFX=  1.000000  1.000000  1.000000  1.000000
 FoFCou: FMM=F IPFlag=           0 FMFlag=      100000 FMFlg1=           0
         NFxFlg=           0 DoJE=T BraDBF=F KetDBF=T FulRan=T
         wScrn=  0.000000 ICntrl=     500 IOpCl=  0 I1Cent=   200000004 NGrid=           0
         NMat0=    1 NMatS0=      1 NMatT0=    0 NMatD0=    1 NMtDS0=    0 NMtDT0=    0
 Symmetry not used in FoFCou.
 Requested convergence on RMS density matrix=1.00D-08 within 128 cycles.
 Requested convergence on MAX density matrix=1.00D-06.
 Requested convergence on             energy=1.00D-06.
 No special actions if energy rises.
 Integral accuracy reduced to 1.0D-05 until final iterations.
 Initial convergence to 1.0D-05 achieved.  Increase integral accuracy.
 SCF Done:  E(RB3LYP) =  -839.983047232     A.U. after    7 cycles
            NFock=  7  Conv=0.82D-08     -V/T= 2.0085
 DoSCS=F DFT=T ScalE2(SS,OS)=  1.000000  1.000000
 Range of M.O.s used for correlation:     1   242
 NBasis=   242 NAE=    58 NBE=    58 NFC=     0 NFV=     0
 NROrb=    242 NOA=    58 NOB=    58 NVA=   184 NVB=   184
 Symmetrizing basis deriv contribution to polar:
 IMax=3 JMax=2 DiffMx= 0.00D+00
 Calling FoFJK, ICntrl=      2147 FMM=F ISym2X=0 I1Cent= 0 IOpClX= 0 NMat=1 NMatS=1 NMatT=0.
 -------------------------------------------------------------------
 Center     Atomic                   Forces (Hartrees/Bohr)
 Number     Number              X              Y              Z
 -------------------------------------------------------------------
      1        1           0.000000487   -0.000000796   -0.000003328
      2        6           0.000000739   -0.000005811   -0.000022230
      3        6          -0.000009222   -0.000018050    0.000008081
      4        6          -0.000001886    0.000017426    0.000000609
      5        6          -0.000007057    0.000002572    0.000014723
      6        8           0.000002170    0.000017565   -0.000025735
      7        6          -0.000002892   -0.000025030   -0.000011741
      8        1          -0.000000616    0.000000324    0.000001400
      9        1          -0.000000340   -0.000003211   -0.000000521
     10        6          -0.000000619   -0.000002596   -0.000016399
     11        1           0.000000032    0.000000656   -0.000001817
     12        1          -0.000000350   -0.000000098   -0.000000383
     13        1          -0.000000778   -0.000001521    0.000000698
     14        8           0.000001935   -0.000020621   -0.000027216
     15        1          -0.000000106   -0.000002568   -0.000002216
     16        8          -0.000014159    0.000009398    0.000043176
     17        1          -0.000001258   -0.000000291    0.000003332
     18        8          -0.000022583   -0.000039814    0.000026715
     19        1          -0.000002555   -0.000003878    0.000001853
     20        8           0.000002651   -0.000050315   -0.000035343
     21        1           0.000000211   -0.000003590   -0.000002719
     22        1           0.000000011    0.000002679    0.000000366
     23        8          -0.000000835    0.000026598   -0.000000802
     24        1           0.000000343    0.000002291   -0.000000086
     25        8           0.000053440    0.000038100   -0.000006553
     26        1           0.000002169    0.000002275    0.000000164
     27        1           0.000005871    0.000002161    0.000002102
     28        8          -0.000007739    0.000044942    0.000050292
     29        1           0.000000980    0.000010207    0.000003298
     30        1           0.000001954    0.000000995    0.000000280
 -------------------------------------------------------------------
 Cartesian Forces:  Max     0.000053440 RMS     0.000016154
 IRC-IRC-IRC-IRC-IRC-IRC-IRC-IRC-IRC-IRC-IRC-IRC-IRC-IRC-IRC-IRC-IRC-IRC
 Error in corrector energy =           0.0000000000
 Magnitude of corrector gradient =     0.0001532524
 Magnitude of analytic gradient =      0.0001532524
 Magnitude of difference =             0.0000000001
 Angle between gradients (degrees)=    0.0000
 Pt  1 Step number  20 out of a maximum of  20
 Modified Bulirsch-Stoer Extrapolation Cycles:
    EPS =    0.000010000000000
 Maximum DWI energy   std dev =  0.000000389 at pt     2
 Maximum DWI gradient std dev =  1.508732494 at pt     5
 WARNING: Bulirsch-Stoer Method is not Converging
 CORRECTOR INTEGRATION CONVERGENCE:
   Recorrection delta-x convergence threshold:    0.010000
   Delta-x Convergence NOT Met
 Maximum number of corrector steps exceded.
 Error termination via Lnk1e in /global/software/gaussian/g09.e01/l123.exe at Tue Jan 31 15:43:25 2017.
 Job cpu time:       0 days  3 hours 51 minutes 15.5 seconds.
 File lengths (MBytes):  RWF=    220 Int=      0 D2E=      0 Chk=      8 Scr=      1
