 Entering Gaussian System, Link 0=g09
 Initial command:
 /global/software/gaussian/g09.d01/l1.exe "/home/iawad/Gau-1822.inp" -scrdir="/home/iawad/"
 Entering Link 1 = /global/software/gaussian/g09.d01/l1.exe PID=      1823.
  
 Copyright (c) 1988,1990,1992,1993,1995,1998,2003,2009,2013,
            Gaussian, Inc.  All Rights Reserved.
  
 This is part of the Gaussian(R) 09 program.  It is based on
 the Gaussian(R) 03 system (copyright 2003, Gaussian, Inc.),
 the Gaussian(R) 98 system (copyright 1998, Gaussian, Inc.),
 the Gaussian(R) 94 system (copyright 1995, Gaussian, Inc.),
 the Gaussian 92(TM) system (copyright 1992, Gaussian, Inc.),
 the Gaussian 90(TM) system (copyright 1990, Gaussian, Inc.),
 the Gaussian 88(TM) system (copyright 1988, Gaussian, Inc.),
 the Gaussian 86(TM) system (copyright 1986, Carnegie Mellon
 University), and the Gaussian 82(TM) system (copyright 1983,
 Carnegie Mellon University). Gaussian is a federally registered
 trademark of Gaussian, Inc.
  
 This software contains proprietary and confidential information,
 including trade secrets, belonging to Gaussian, Inc.
  
 This software is provided under written license and may be
 used, copied, transmitted, or stored only in accord with that
 written license.
  
 The following legend is applicable only to US Government
 contracts under FAR:
  
                    RESTRICTED RIGHTS LEGEND
  
 Use, reproduction and disclosure by the US Government is
 subject to restrictions as set forth in subparagraphs (a)
 and (c) of the Commercial Computer Software - Restricted
 Rights clause in FAR 52.227-19.
  
 Gaussian, Inc.
 340 Quinnipiac St., Bldg. 40, Wallingford CT 06492
  
  
 ---------------------------------------------------------------
 Warning -- This program may not be used in any manner that
 competes with the business of Gaussian, Inc. or will provide
 assistance to any competitor of Gaussian, Inc.  The licensee
 of this program is prohibited from giving any competitor of
 Gaussian, Inc. access to this program.  By using this program,
 the user acknowledges that Gaussian, Inc. is engaged in the
 business of creating and licensing software in the field of
 computational chemistry and represents and warrants to the
 licensee that it is not a competitor of Gaussian, Inc. and that
 it will not use this program in any manner prohibited above.
 ---------------------------------------------------------------
  

 Cite this work as:
 Gaussian 09, Revision D.01,
 M. J. Frisch, G. W. Trucks, H. B. Schlegel, G. E. Scuseria, 
 M. A. Robb, J. R. Cheeseman, G. Scalmani, V. Barone, B. Mennucci, 
 G. A. Petersson, H. Nakatsuji, M. Caricato, X. Li, H. P. Hratchian, 
 A. F. Izmaylov, J. Bloino, G. Zheng, J. L. Sonnenberg, M. Hada, 
 M. Ehara, K. Toyota, R. Fukuda, J. Hasegawa, M. Ishida, T. Nakajima, 
 Y. Honda, O. Kitao, H. Nakai, T. Vreven, J. A. Montgomery, Jr., 
 J. E. Peralta, F. Ogliaro, M. Bearpark, J. J. Heyd, E. Brothers, 
 K. N. Kudin, V. N. Staroverov, T. Keith, R. Kobayashi, J. Normand, 
 K. Raghavachari, A. Rendell, J. C. Burant, S. S. Iyengar, J. Tomasi, 
 M. Cossi, N. Rega, J. M. Millam, M. Klene, J. E. Knox, J. B. Cross, 
 V. Bakken, C. Adamo, J. Jaramillo, R. Gomperts, R. E. Stratmann, 
 O. Yazyev, A. J. Austin, R. Cammi, C. Pomelli, J. W. Ochterski, 
 R. L. Martin, K. Morokuma, V. G. Zakrzewski, G. A. Voth, 
 P. Salvador, J. J. Dannenberg, S. Dapprich, A. D. Daniels, 
 O. Farkas, J. B. Foresman, J. V. Ortiz, J. Cioslowski, 
 and D. J. Fox, Gaussian, Inc., Wallingford CT, 2013.
 
 ******************************************
 Gaussian 09:  ES64L-G09RevD.01 24-Apr-2013
                18-Jan-2017 
 ******************************************
 %NPROCS=22
 Will use up to   22 processors via shared memory.
 ------------------------------------------------------
 # opt=(modredundant,MaxCycle=1000) freq B3LYP/6-31G(d)
 ------------------------------------------------------
 1/6=1000,14=-1,18=120,19=15,26=3,38=1/1,3;
 2/9=110,12=2,17=6,18=5,40=1/2;
 3/5=1,6=6,7=1,11=2,16=1,25=1,30=1,71=1,74=-5/1,2,3;
 4//1;
 5/5=2,38=5/2;
 6/7=2,8=2,9=2,10=2,28=1/1;
 7//1,2,3,16;
 1/6=1000,14=-1,18=20,19=15,26=3/3(2);
 2/9=110/2;
 99//99;
 2/9=110/2;
 3/5=1,6=6,7=1,11=2,16=1,25=1,30=1,71=1,74=-5/1,2,3;
 4/5=5,16=3,69=1/1;
 5/5=2,38=5/2;
 7//1,2,3,16;
 1/6=1000,14=-1,18=20,19=15,26=3/3(-5);
 2/9=110/2;
 6/7=2,8=2,9=2,10=2,19=2,28=1/1;
 99/9=1/99;
 -------------------------
 boat4_Alpha_B3LYP_6-31G_d
 -------------------------
 Symbolic Z-matrix:
 Charge =  0 Multiplicity = 1
 O                    -1.48972   0.34214   0.24948 
 C                     0.92287   0.42142  -0.34325 
 C                    -0.28322  -1.80018  -0.08547 
 C                     1.06682  -1.06015   0.03405 
 C                    -1.43903  -0.8877   -0.51744 
 C                    -0.26521   1.07123   0.39371 
 H                     1.36518  -1.108     1.09214 
 H                    -0.00843   1.09116   1.46416 
 H                     0.78347   0.49166  -1.43249 
 C                    -0.54468   2.5026   -0.09386 
 H                    -0.75736   2.48785  -1.16717 
 H                    -1.42938   2.9035    0.41907 
 H                    -0.16783  -2.57567  -0.85604 
 O                     0.58016   3.37788   0.0699 
 H                     0.66014   3.58968   1.01393 
 O                    -0.58031  -2.36575   1.18157 
 H                    -1.52793  -2.58754   1.15086 
 O                     1.99019  -1.72025  -0.80507 
 H                     2.89968  -1.41978  -0.57797 
 O                     2.11859   1.11225   0.03748 
 H                     1.95563   2.06253  -0.12909 
 H                    -1.33651  -0.61573  -1.58048 
 O                    -2.61983  -1.57501  -0.28438 
 H                    -3.37221  -0.9654   -0.47127 
 O                    -4.88203  -0.35277  -1.21238 
 H                    -4.69982   0.48513  -0.71574 
 H                    -5.79271  -0.59518  -0.98743 
 O                    -3.89932   1.59586   0.39056 
 H                    -3.03404   1.15586   0.21834 
 H                    -4.12918   1.29821   1.28455 
 
 Add virtual bond connecting atoms H29        and O1         Dist= 3.30D+00.
 Add virtual bond connecting atoms H24        and O25        Dist= 3.38D+00.
 Add virtual bond connecting atoms O28        and H26        Dist= 3.33D+00.
 The following ModRedundant input section has been read:
 D       5       3       4       2 F                                           
 D       5       1       6       2 F                                           
 

 GradGradGradGradGradGradGradGradGradGradGradGradGradGradGradGradGradGrad
 Berny optimization.
 Initialization pass.
                           ----------------------------
                           !    Initial Parameters    !
                           ! (Angstroms and Degrees)  !
 --------------------------                            --------------------------
 ! Name  Definition              Value          Derivative Info.                !
 --------------------------------------------------------------------------------
 ! R1    R(1,5)                  1.4503         estimate D2E/DX2                !
 ! R2    R(1,6)                  1.4324         estimate D2E/DX2                !
 ! R3    R(1,29)                 1.7459         estimate D2E/DX2                !
 ! R4    R(2,4)                  1.5356         estimate D2E/DX2                !
 ! R5    R(2,6)                  1.5417         estimate D2E/DX2                !
 ! R6    R(2,9)                  1.1004         estimate D2E/DX2                !
 ! R7    R(2,20)                 1.4325         estimate D2E/DX2                !
 ! R8    R(3,4)                  1.5442         estimate D2E/DX2                !
 ! R9    R(3,5)                  1.5346         estimate D2E/DX2                !
 ! R10   R(3,13)                 1.0993         estimate D2E/DX2                !
 ! R11   R(3,16)                 1.419          estimate D2E/DX2                !
 ! R12   R(4,7)                  1.1004         estimate D2E/DX2                !
 ! R13   R(4,18)                 1.4115         estimate D2E/DX2                !
 ! R14   R(5,22)                 1.1021         estimate D2E/DX2                !
 ! R15   R(5,23)                 1.386          estimate D2E/DX2                !
 ! R16   R(6,8)                  1.101          estimate D2E/DX2                !
 ! R17   R(6,10)                 1.5377         estimate D2E/DX2                !
 ! R18   R(10,11)                1.0943         estimate D2E/DX2                !
 ! R19   R(10,12)                1.0984         estimate D2E/DX2                !
 ! R20   R(10,14)                1.4346         estimate D2E/DX2                !
 ! R21   R(14,15)                0.9708         estimate D2E/DX2                !
 ! R22   R(16,17)                0.9737         estimate D2E/DX2                !
 ! R23   R(18,19)                0.9844         estimate D2E/DX2                !
 ! R24   R(20,21)                0.9784         estimate D2E/DX2                !
 ! R25   R(23,24)                0.9862         estimate D2E/DX2                !
 ! R26   R(24,25)                1.79           estimate D2E/DX2                !
 ! R27   R(25,26)                0.9909         estimate D2E/DX2                !
 ! R28   R(25,27)                0.9689         estimate D2E/DX2                !
 ! R29   R(26,28)                1.7602         estimate D2E/DX2                !
 ! R30   R(28,29)                0.9859         estimate D2E/DX2                !
 ! R31   R(28,30)                0.9699         estimate D2E/DX2                !
 ! A1    A(5,1,6)              117.0653         estimate D2E/DX2                !
 ! A2    A(5,1,29)             114.6286         estimate D2E/DX2                !
 ! A3    A(6,1,29)             121.3814         estimate D2E/DX2                !
 ! A4    A(4,2,6)              111.1889         estimate D2E/DX2                !
 ! A5    A(4,2,9)              108.4621         estimate D2E/DX2                !
 ! A6    A(4,2,20)             108.7681         estimate D2E/DX2                !
 ! A7    A(6,2,9)              110.4049         estimate D2E/DX2                !
 ! A8    A(6,2,20)             108.2364         estimate D2E/DX2                !
 ! A9    A(9,2,20)             109.7586         estimate D2E/DX2                !
 ! A10   A(4,3,5)              113.2841         estimate D2E/DX2                !
 ! A11   A(4,3,13)             107.491          estimate D2E/DX2                !
 ! A12   A(4,3,16)             107.7545         estimate D2E/DX2                !
 ! A13   A(5,3,13)             107.5292         estimate D2E/DX2                !
 ! A14   A(5,3,16)             109.3071         estimate D2E/DX2                !
 ! A15   A(13,3,16)            111.5135         estimate D2E/DX2                !
 ! A16   A(2,4,3)              111.1858         estimate D2E/DX2                !
 ! A17   A(2,4,7)              107.6756         estimate D2E/DX2                !
 ! A18   A(2,4,18)             111.4967         estimate D2E/DX2                !
 ! A19   A(3,4,7)              106.896          estimate D2E/DX2                !
 ! A20   A(3,4,18)             107.5642         estimate D2E/DX2                !
 ! A21   A(7,4,18)             111.9573         estimate D2E/DX2                !
 ! A22   A(1,5,3)              112.439          estimate D2E/DX2                !
 ! A23   A(1,5,22)             107.7016         estimate D2E/DX2                !
 ! A24   A(1,5,23)             107.5672         estimate D2E/DX2                !
 ! A25   A(3,5,22)             110.3764         estimate D2E/DX2                !
 ! A26   A(3,5,23)             107.4253         estimate D2E/DX2                !
 ! A27   A(22,5,23)            111.3359         estimate D2E/DX2                !
 ! A28   A(1,6,2)              113.3347         estimate D2E/DX2                !
 ! A29   A(1,6,8)              107.8474         estimate D2E/DX2                !
 ! A30   A(1,6,10)             106.6483         estimate D2E/DX2                !
 ! A31   A(2,6,8)              107.0169         estimate D2E/DX2                !
 ! A32   A(2,6,10)             112.3845         estimate D2E/DX2                !
 ! A33   A(8,6,10)             109.5003         estimate D2E/DX2                !
 ! A34   A(6,10,11)            109.4978         estimate D2E/DX2                !
 ! A35   A(6,10,12)            109.7581         estimate D2E/DX2                !
 ! A36   A(6,10,14)            112.9054         estimate D2E/DX2                !
 ! A37   A(11,10,12)           107.8429         estimate D2E/DX2                !
 ! A38   A(11,10,14)           105.8174         estimate D2E/DX2                !
 ! A39   A(12,10,14)           110.8254         estimate D2E/DX2                !
 ! A40   A(10,14,15)           107.9812         estimate D2E/DX2                !
 ! A41   A(3,16,17)            105.4491         estimate D2E/DX2                !
 ! A42   A(4,18,19)            108.9343         estimate D2E/DX2                !
 ! A43   A(2,20,21)            106.5062         estimate D2E/DX2                !
 ! A44   A(5,23,24)            108.1527         estimate D2E/DX2                !
 ! A45   A(23,24,25)           158.9861         estimate D2E/DX2                !
 ! A46   A(24,25,26)            85.8021         estimate D2E/DX2                !
 ! A47   A(24,25,27)           127.6662         estimate D2E/DX2                !
 ! A48   A(26,25,27)           105.547          estimate D2E/DX2                !
 ! A49   A(25,26,28)           158.7781         estimate D2E/DX2                !
 ! A50   A(26,28,29)            90.4428         estimate D2E/DX2                !
 ! A51   A(26,28,30)           106.1343         estimate D2E/DX2                !
 ! A52   A(29,28,30)           103.4188         estimate D2E/DX2                !
 ! A53   L(1,29,28,12,-1)      179.624          estimate D2E/DX2                !
 ! A54   L(1,29,28,12,-2)      191.4799         estimate D2E/DX2                !
 ! D1    D(6,1,5,3)             48.7015         estimate D2E/DX2                !
 ! D2    D(6,1,5,22)           -73.1175         estimate D2E/DX2                !
 ! D3    D(6,1,5,23)           166.7735         estimate D2E/DX2                !
 ! D4    D(29,1,5,3)          -159.9516         estimate D2E/DX2                !
 ! D5    D(29,1,5,22)           78.2295         estimate D2E/DX2                !
 ! D6    D(29,1,5,23)          -41.8795         estimate D2E/DX2                !
 ! D7    D(5,1,6,2)              1.499          Frozen                          !
 ! D8    D(5,1,6,8)           -116.7779         estimate D2E/DX2                !
 ! D9    D(5,1,6,10)           125.6856         estimate D2E/DX2                !
 ! D10   D(29,1,6,2)          -147.7992         estimate D2E/DX2                !
 ! D11   D(29,1,6,8)            93.9238         estimate D2E/DX2                !
 ! D12   D(29,1,6,10)          -23.6127         estimate D2E/DX2                !
 ! D13   D(5,1,28,26)           -4.9422         estimate D2E/DX2                !
 ! D14   D(5,1,28,30)          101.9162         estimate D2E/DX2                !
 ! D15   D(6,1,28,26)          149.1277         estimate D2E/DX2                !
 ! D16   D(6,1,28,30)         -104.0139         estimate D2E/DX2                !
 ! D17   D(6,2,4,3)             49.4356         estimate D2E/DX2                !
 ! D18   D(6,2,4,7)            -67.3504         estimate D2E/DX2                !
 ! D19   D(6,2,4,18)           169.4683         estimate D2E/DX2                !
 ! D20   D(9,2,4,3)            -72.1414         estimate D2E/DX2                !
 ! D21   D(9,2,4,7)            171.0726         estimate D2E/DX2                !
 ! D22   D(9,2,4,18)            47.8913         estimate D2E/DX2                !
 ! D23   D(20,2,4,3)           168.527          estimate D2E/DX2                !
 ! D24   D(20,2,4,7)            51.7409         estimate D2E/DX2                !
 ! D25   D(20,2,4,18)          -71.4403         estimate D2E/DX2                !
 ! D26   D(4,2,6,1)            -51.8056         estimate D2E/DX2                !
 ! D27   D(4,2,6,8)             66.9513         estimate D2E/DX2                !
 ! D28   D(4,2,6,10)          -172.8106         estimate D2E/DX2                !
 ! D29   D(9,2,6,1)             68.6309         estimate D2E/DX2                !
 ! D30   D(9,2,6,8)           -172.6122         estimate D2E/DX2                !
 ! D31   D(9,2,6,10)           -52.3741         estimate D2E/DX2                !
 ! D32   D(20,2,6,1)          -171.2146         estimate D2E/DX2                !
 ! D33   D(20,2,6,8)           -52.4577         estimate D2E/DX2                !
 ! D34   D(20,2,6,10)           67.7804         estimate D2E/DX2                !
 ! D35   D(4,2,20,21)         -174.1428         estimate D2E/DX2                !
 ! D36   D(6,2,20,21)          -53.2195         estimate D2E/DX2                !
 ! D37   D(9,2,20,21)           67.3385         estimate D2E/DX2                !
 ! D38   D(5,3,4,2)             -1.2221         Frozen                          !
 ! D39   D(5,3,4,7)            116.0396         estimate D2E/DX2                !
 ! D40   D(5,3,4,18)          -123.56           estimate D2E/DX2                !
 ! D41   D(13,3,4,2)           117.4245         estimate D2E/DX2                !
 ! D42   D(13,3,4,7)          -125.3138         estimate D2E/DX2                !
 ! D43   D(13,3,4,18)           -4.9134         estimate D2E/DX2                !
 ! D44   D(16,3,4,2)          -122.2689         estimate D2E/DX2                !
 ! D45   D(16,3,4,7)            -5.0072         estimate D2E/DX2                !
 ! D46   D(16,3,4,18)          115.3932         estimate D2E/DX2                !
 ! D47   D(4,3,5,1)            -48.0401         estimate D2E/DX2                !
 ! D48   D(4,3,5,22)            72.2457         estimate D2E/DX2                !
 ! D49   D(4,3,5,23)          -166.1959         estimate D2E/DX2                !
 ! D50   D(13,3,5,1)          -166.6645         estimate D2E/DX2                !
 ! D51   D(13,3,5,22)          -46.3788         estimate D2E/DX2                !
 ! D52   D(13,3,5,23)           75.1797         estimate D2E/DX2                !
 ! D53   D(16,3,5,1)            72.127          estimate D2E/DX2                !
 ! D54   D(16,3,5,22)         -167.5873         estimate D2E/DX2                !
 ! D55   D(16,3,5,23)          -46.0289         estimate D2E/DX2                !
 ! D56   D(4,3,16,17)          163.7323         estimate D2E/DX2                !
 ! D57   D(5,3,16,17)           40.2302         estimate D2E/DX2                !
 ! D58   D(13,3,16,17)         -78.5294         estimate D2E/DX2                !
 ! D59   D(2,4,18,19)           72.1271         estimate D2E/DX2                !
 ! D60   D(3,4,18,19)         -165.7276         estimate D2E/DX2                !
 ! D61   D(7,4,18,19)          -48.5788         estimate D2E/DX2                !
 ! D62   D(1,5,23,24)           53.0414         estimate D2E/DX2                !
 ! D63   D(3,5,23,24)          174.3063         estimate D2E/DX2                !
 ! D64   D(22,5,23,24)         -64.7376         estimate D2E/DX2                !
 ! D65   D(1,6,10,11)          -65.9964         estimate D2E/DX2                !
 ! D66   D(1,6,10,12)           52.2046         estimate D2E/DX2                !
 ! D67   D(1,6,10,14)          176.3896         estimate D2E/DX2                !
 ! D68   D(2,6,10,11)           58.7735         estimate D2E/DX2                !
 ! D69   D(2,6,10,12)          176.9744         estimate D2E/DX2                !
 ! D70   D(2,6,10,14)          -58.8405         estimate D2E/DX2                !
 ! D71   D(8,6,10,11)          177.5641         estimate D2E/DX2                !
 ! D72   D(8,6,10,12)          -64.2349         estimate D2E/DX2                !
 ! D73   D(8,6,10,14)           59.9501         estimate D2E/DX2                !
 ! D74   D(6,10,14,15)         -74.0764         estimate D2E/DX2                !
 ! D75   D(11,10,14,15)        166.1678         estimate D2E/DX2                !
 ! D76   D(12,10,14,15)         49.5212         estimate D2E/DX2                !
 ! D77   D(5,23,24,25)         123.572          estimate D2E/DX2                !
 ! D78   D(23,24,25,26)       -174.1259         estimate D2E/DX2                !
 ! D79   D(23,24,25,27)         79.4439         estimate D2E/DX2                !
 ! D80   D(24,25,26,28)         -5.0652         estimate D2E/DX2                !
 ! D81   D(27,25,26,28)        122.927          estimate D2E/DX2                !
 ! D82   D(25,26,28,29)         30.8508         estimate D2E/DX2                !
 ! D83   D(25,26,28,30)        -73.2616         estimate D2E/DX2                !
 --------------------------------------------------------------------------------
 Trust Radius=3.00D-01 FncErr=1.00D-07 GrdErr=1.00D-06
 Number of steps in this run=    180 maximum allowed number of steps=    180.
 GradGradGradGradGradGradGradGradGradGradGradGradGradGradGradGradGradGrad

                          Input orientation:                          
 ---------------------------------------------------------------------
 Center     Atomic      Atomic             Coordinates (Angstroms)
 Number     Number       Type             X           Y           Z
 ---------------------------------------------------------------------
      1          8           0       -1.489722    0.342137    0.249476
      2          6           0        0.922867    0.421419   -0.343253
      3          6           0       -0.283218   -1.800185   -0.085474
      4          6           0        1.066822   -1.060149    0.034051
      5          6           0       -1.439031   -0.887704   -0.517438
      6          6           0       -0.265209    1.071233    0.393708
      7          1           0        1.365182   -1.107999    1.092144
      8          1           0       -0.008431    1.091162    1.464162
      9          1           0        0.783473    0.491658   -1.432492
     10          6           0       -0.544682    2.502597   -0.093864
     11          1           0       -0.757358    2.487847   -1.167172
     12          1           0       -1.429383    2.903497    0.419069
     13          1           0       -0.167829   -2.575667   -0.856045
     14          8           0        0.580158    3.377882    0.069904
     15          1           0        0.660139    3.589678    1.013934
     16          8           0       -0.580313   -2.365747    1.181573
     17          1           0       -1.527930   -2.587537    1.150862
     18          8           0        1.990186   -1.720255   -0.805071
     19          1           0        2.899677   -1.419779   -0.577968
     20          8           0        2.118588    1.112251    0.037478
     21          1           0        1.955629    2.062530   -0.129088
     22          1           0       -1.336510   -0.615727   -1.580476
     23          8           0       -2.619831   -1.575009   -0.284377
     24          1           0       -3.372208   -0.965397   -0.471274
     25          8           0       -4.882027   -0.352772   -1.212381
     26          1           0       -4.699821    0.485131   -0.715738
     27          1           0       -5.792708   -0.595181   -0.987432
     28          8           0       -3.899321    1.595856    0.390559
     29          1           0       -3.034042    1.155859    0.218336
     30          1           0       -4.129183    1.298211    1.284548
 ---------------------------------------------------------------------
                    Distance matrix (angstroms):
                    1          2          3          4          5
     1  O    0.000000
     2  C    2.485598   0.000000
     3  C    2.481408   2.540987   0.000000
     4  C    2.923821   1.535619   1.544198   0.000000
     5  C    1.450254   2.706050   1.534639   2.571610   0.000000
     6  C    1.432416   1.541718   2.911182   2.538986   2.458756
     7  H    3.311112   2.143625   2.140824   1.100395   3.240817
     8  H    2.056872   2.140706   3.291925   2.798129   3.144720
     9  H    2.831747   1.100366   2.864408   2.153866   2.771189
    10  C    2.382975   2.558749   4.310727   3.912348   3.531772
    11  H    2.673447   2.787853   4.447707   4.166395   3.504451
    12  H    2.567677   3.503559   4.867533   4.699975   3.905169
    13  H    3.388681   3.230340   1.099303   2.147889   2.140053
    14  O    3.678641   3.004800   5.251851   4.464778   4.755767
    15  H    3.968982   3.456711   5.581151   4.769324   5.176733
    16  O    3.004740   3.514675   1.418990   2.394670   2.410113
    17  H    3.065444   4.158437   1.922955   3.211373   2.383393
    18  O    4.180346   2.437050   2.385912   1.411548   3.540537
    19  H    4.801649   2.711619   3.243159   1.965517   4.371631
    20  O    3.695662   1.432464   3.777046   2.413617   4.118787
    21  H    3.869562   1.950823   4.464852   3.250802   4.514246
    22  H    2.071160   2.776901   2.178852   2.929200   1.102058
    23  O    2.288579   4.066928   2.355850   3.736026   1.385999
    24  H    2.402682   4.515232   3.222976   4.468704   1.935288
    25  O    3.758677   5.920434   4.951158   6.119050   3.552930
    26  H    3.355118   5.635372   5.012612   6.016996   3.543550
    27  H    4.574297   6.822564   5.711395   6.950738   4.388731
    28  O    2.719905   5.017098   4.983563   5.643052   3.611863
    29  H    1.745863   4.063485   4.049386   4.664948   2.694731
    30  H    2.992023   5.379749   5.125277   5.841581   3.906699
                    6          7          8          9         10
     6  C    0.000000
     7  H    2.809811   0.000000
     8  H    1.101001   2.619450   0.000000
     9  H    2.184181   3.044844   3.062209   0.000000
    10  C    1.537737   4.253304   2.169599   2.756773   0.000000
    11  H    2.164567   4.747609   3.071732   2.535611   1.094275
    12  H    2.170976   4.935051   2.529008   3.760582   1.098416
    13  H    3.856325   2.880905   4.342166   3.262782   5.148952
    14  O    2.477927   4.667372   2.742167   3.260187   1.434646
    15  H    2.753818   4.750934   2.625314   3.949423   1.964830
    16  O    3.540177   2.318378   3.515270   4.105851   5.032771
    17  H    3.943900   3.250012   3.992475   4.636566   5.331565
    18  O    3.783686   2.089237   4.128917   2.596608   4.976329
    19  H    4.143163   2.289357   4.351116   2.976932   5.242423
    20  O    2.410616   2.570885   2.561266   2.080500   3.007211
    21  H    2.487591   3.448520   2.709157   2.353816   2.538987
    22  H    2.809079   3.832019   3.734580   2.396357   3.544143
    23  O    3.606472   4.241844   4.121319   4.143882   4.579237
    24  H    3.814380   4.990739   4.392077   4.507398   4.490470
    25  O    5.091396   6.701404   5.744629   5.732311   5.311946
    26  H    4.608705   6.526159   5.208490   5.529944   4.660694
    27  H    5.936137   7.471479   6.504761   6.680228   6.159258
    28  O    3.671785   5.959702   4.067722   5.145029   3.508624
    29  H    2.775671   5.024118   3.272703   4.211866   2.847469
    30  H    3.971826   6.001242   4.129858   5.671597   4.024824
                   11         12         13         14         15
    11  H    0.000000
    12  H    1.772158   0.000000
    13  H    5.107203   5.765299   0.000000
    14  O    2.027676   2.094090   6.071376   0.000000
    15  H    2.824987   2.278335   6.495678   0.970797   0.000000
    16  O    5.394935   5.391407   2.089521   5.964208   6.085549
    17  H    5.632636   5.540459   2.424395   6.418624   6.554722
    18  O    5.038674   5.879715   2.321930   5.361414   5.768292
    19  H    5.384293   6.198835   3.289832   5.368189   5.713523
    20  O    3.408007   3.992777   4.430217   2.738777   3.036146
    21  H    2.935781   3.530723   5.152709   1.913549   2.305857
    22  H    3.184087   4.048672   2.394155   4.727186   5.329447
    23  O    4.555758   4.687112   2.709324   5.907332   6.254423
    24  H    4.387096   4.419912   3.606808   5.897300   6.262138
    25  O    5.008398   5.018532   5.224164   6.737766   7.156465
    26  H    4.444960   4.222800   5.470568   6.071525   6.431107
    27  H    5.906954   5.766939   5.964800   7.583970   7.947184
    28  O    3.618577   2.794875   5.734079   4.831580   5.015236
    29  H    2.979448   2.381063   4.826361   4.245215   4.494821
    30  H    4.335362   3.258053   5.939814   5.289450   5.316169
                   16         17         18         19         20
    16  O    0.000000
    17  H    0.973710   0.000000
    18  O    3.312232   4.117644   0.000000
    19  H    4.012626   4.894509   0.984396   0.000000
    20  O    4.548570   5.312735   2.957950   2.720303   0.000000
    21  H    5.268631   5.949502   3.842865   3.635821   0.978432
    22  H    3.356087   3.374149   3.590006   4.426828   4.188244
    23  O    2.633232   2.068181   4.641603   5.529490   5.456883
    24  H    3.533774   2.943472   5.425541   6.289228   5.892732
    25  O    5.318630   4.672157   7.018776   7.880095   7.260650
    26  H    5.357017   4.794410   7.044707   7.835817   6.888491
    27  H    5.916802   5.170117   7.865906   8.741005   8.158085
    28  O    5.228366   4.868504   6.863848   7.500564   6.047625
    29  H    4.398900   4.141376   5.878967   6.517440   5.155987
    30  H    5.101928   4.677973   7.136128   7.762815   6.373727
                   21         22         23         24         25
    21  H    0.000000
    22  H    4.485283   0.000000
    23  O    5.847276   2.060827   0.000000
    24  H    6.137693   2.344497   0.986219   0.000000
    25  O    7.332171   3.574259   2.733602   1.790000   0.000000
    26  H    6.864936   3.643009   2.959156   1.981502   0.990926
    27  H    8.236316   4.495533   3.394333   2.502458   0.968867
    28  O    5.896461   3.917152   3.485257   2.753293   2.707818
    29  H    5.083263   3.042344   2.807478   2.256025   2.781720
    30  H    6.293447   4.435148   3.604866   2.963080   3.086612
                   26         27         28         29         30
    26  H    0.000000
    27  H    1.560543   0.000000
    28  O    1.760228   3.206932   0.000000
    29  H    2.024151   3.482851   0.985883   0.000000
    30  H    2.233354   3.393249   0.969869   1.535059   0.000000
 Stoichiometry    C6H16O8
 Framework group  C1[X(C6H16O8)]
 Deg. of freedom    84
 Full point group                 C1      NOp   1
 Largest Abelian subgroup         C1      NOp   1
 Largest concise Abelian subgroup C1      NOp   1
                         Standard orientation:                         
 ---------------------------------------------------------------------
 Center     Atomic      Atomic             Coordinates (Angstroms)
 Number     Number       Type             X           Y           Z
 ---------------------------------------------------------------------
      1          8           0       -0.662076    0.310280    0.337287
      2          6           0        1.720045    0.203497   -0.364351
      3          6           0        0.384614   -1.919956    0.040851
      4          6           0        1.784302   -1.268317    0.068961
      5          6           0       -0.728016   -0.949549   -0.378057
      6          6           0        0.612936    0.960438    0.396073
      7          1           0        2.128225   -1.294257    1.113908
      8          1           0        0.920427    1.005357    1.452309
      9          1           0        1.534574    0.239827   -1.448365
     10          6           0        0.405141    2.386962   -0.139171
     11          1           0        0.141813    2.344124   -1.200426
     12          1           0       -0.426381    2.866469    0.394834
     13          1           0        0.412720   -2.731312   -0.700349
     14          8           0        1.591285    3.190344   -0.062705
     15          1           0        1.729174    3.433444    0.866992
     16          8           0        0.110950   -2.413687    1.342723
     17          1           0       -0.849543   -2.572234    1.363404
     18          8           0        2.622090   -2.021742   -0.781290
     19          1           0        3.558948   -1.774416   -0.607614
     20          8           0        2.974955    0.826799   -0.066610
     21          1           0        2.866885    1.778558   -0.266119
     22          1           0       -0.657927   -0.727344   -1.455203
     23          8           0       -1.939013   -1.546065   -0.063973
     24          1           0       -2.657832   -0.895065   -0.243215
     25          8           0       -4.157447   -0.211999   -0.942266
     26          1           0       -3.897698    0.630725   -0.490290
     27          1           0       -5.070474   -0.383478   -0.667162
     28          8           0       -2.975196    1.727933    0.531240
     29          1           0       -2.149600    1.224230    0.339826
     30          1           0       -3.181826    1.482023    1.446378
 ---------------------------------------------------------------------
 Rotational constants (GHZ):      0.7118266      0.4846401      0.3175306
 Standard basis: 6-31G(d) (6D, 7F)
 There are   242 symmetry adapted cartesian basis functions of A   symmetry.
 There are   242 symmetry adapted basis functions of A   symmetry.
   242 basis functions,   456 primitive gaussians,   242 cartesian basis functions
    58 alpha electrons       58 beta electrons
       nuclear repulsion energy      1088.9934993885 Hartrees.
 NAtoms=   30 NActive=   30 NUniq=   30 SFac= 1.00D+00 NAtFMM=   60 NAOKFM=F Big=F
 Integral buffers will be    131072 words long.
 Raffenetti 2 integral format.
 Two-electron integral symmetry is turned on.
 One-electron integrals computed using PRISM.
 NBasis=   242 RedAO= T EigKep=  1.20D-03  NBF=   242
 NBsUse=   242 1.00D-06 EigRej= -1.00D+00 NBFU=   242
 ExpMin= 1.61D-01 ExpMax= 5.48D+03 ExpMxC= 8.25D+02 IAcc=1 IRadAn=         1 AccDes= 0.00D+00
 Harris functional with IExCor=  402 and IRadAn=       1 diagonalized for initial guess.
 HarFok:  IExCor=  402 AccDes= 0.00D+00 IRadAn=         1 IDoV= 1 UseB2=F ITyADJ=14
 ICtDFT=  3500011 ScaDFX=  1.000000  1.000000  1.000000  1.000000
 FoFCou: FMM=F IPFlag=           0 FMFlag=      100000 FMFlg1=           0
         NFxFlg=           0 DoJE=T BraDBF=F KetDBF=T FulRan=T
         wScrn=  0.000000 ICntrl=     500 IOpCl=  0 I1Cent=   200000004 NGrid=           0
         NMat0=    1 NMatS0=      1 NMatT0=    0 NMatD0=    1 NMtDS0=    0 NMtDT0=    0
 Petite list used in FoFCou.
 Requested convergence on RMS density matrix=1.00D-08 within 128 cycles.
 Requested convergence on MAX density matrix=1.00D-06.
 Requested convergence on             energy=1.00D-06.
 No special actions if energy rises.
 Integral accuracy reduced to 1.0D-05 until final iterations.
 Initial convergence to 1.0D-05 achieved.  Increase integral accuracy.
 SCF Done:  E(RB3LYP) =  -839.989393942     A.U. after   14 cycles
            NFock= 14  Conv=0.38D-08     -V/T= 2.0085

 **********************************************************************

            Population analysis using the SCF density.

 **********************************************************************

 Orbital symmetries:
       Occupied  (A) (A) (A) (A) (A) (A) (A) (A) (A) (A) (A) (A)
                 (A) (A) (A) (A) (A) (A) (A) (A) (A) (A) (A) (A)
                 (A) (A) (A) (A) (A) (A) (A) (A) (A) (A) (A) (A)
                 (A) (A) (A) (A) (A) (A) (A) (A) (A) (A) (A) (A)
                 (A) (A) (A) (A) (A) (A) (A) (A) (A) (A)
       Virtual   (A) (A) (A) (A) (A) (A) (A) (A) (A) (A) (A) (A)
                 (A) (A) (A) (A) (A) (A) (A) (A) (A) (A) (A) (A)
                 (A) (A) (A) (A) (A) (A) (A) (A) (A) (A) (A) (A)
                 (A) (A) (A) (A) (A) (A) (A) (A) (A) (A) (A) (A)
                 (A) (A) (A) (A) (A) (A) (A) (A) (A) (A) (A) (A)
                 (A) (A) (A) (A) (A) (A) (A) (A) (A) (A) (A) (A)
                 (A) (A) (A) (A) (A) (A) (A) (A) (A) (A) (A) (A)
                 (A) (A) (A) (A) (A) (A) (A) (A) (A) (A) (A) (A)
                 (A) (A) (A) (A) (A) (A) (A) (A) (A) (A) (A) (A)
                 (A) (A) (A) (A) (A) (A) (A) (A) (A) (A) (A) (A)
                 (A) (A) (A) (A) (A) (A) (A) (A) (A) (A) (A) (A)
                 (A) (A) (A) (A) (A) (A) (A) (A) (A) (A) (A) (A)
                 (A) (A) (A) (A) (A) (A) (A) (A) (A) (A) (A) (A)
                 (A) (A) (A) (A) (A) (A) (A) (A) (A) (A) (A) (A)
                 (A) (A) (A) (A) (A) (A) (A) (A) (A) (A) (A) (A)
                 (A) (A) (A) (A)
 The electronic state is 1-A.
 Alpha  occ. eigenvalues --  -19.18358 -19.18040 -19.16468 -19.15375 -19.14528
 Alpha  occ. eigenvalues --  -19.14490 -19.14146 -19.13457 -10.29383 -10.25592
 Alpha  occ. eigenvalues --  -10.25374 -10.24204 -10.23643 -10.23418  -1.08318
 Alpha  occ. eigenvalues --   -1.05250  -1.02747  -1.02543  -1.02030  -1.00711
 Alpha  occ. eigenvalues --   -1.00252  -0.99682  -0.78320  -0.76984  -0.69654
 Alpha  occ. eigenvalues --   -0.65111  -0.63615  -0.56355  -0.55402  -0.54760
 Alpha  occ. eigenvalues --   -0.54490  -0.53123  -0.52675  -0.51242  -0.50290
 Alpha  occ. eigenvalues --   -0.49797  -0.46099  -0.45197  -0.43705  -0.42821
 Alpha  occ. eigenvalues --   -0.41005  -0.40802  -0.40280  -0.38682  -0.37671
 Alpha  occ. eigenvalues --   -0.36824  -0.36632  -0.35365  -0.33832  -0.32726
 Alpha  occ. eigenvalues --   -0.32274  -0.30785  -0.30308  -0.29561  -0.27871
 Alpha  occ. eigenvalues --   -0.27040  -0.26810  -0.25229
 Alpha virt. eigenvalues --    0.03689   0.04686   0.07914   0.08443   0.09113
 Alpha virt. eigenvalues --    0.09778   0.11071   0.13050   0.13856   0.14028
 Alpha virt. eigenvalues --    0.15257   0.15564   0.16957   0.17112   0.17998
 Alpha virt. eigenvalues --    0.20077   0.20497   0.21281   0.21612   0.23901
 Alpha virt. eigenvalues --    0.24245   0.24723   0.25730   0.29217   0.30421
 Alpha virt. eigenvalues --    0.32138   0.33126   0.34932   0.51204   0.52238
 Alpha virt. eigenvalues --    0.52812   0.56659   0.57171   0.59020   0.60059
 Alpha virt. eigenvalues --    0.60608   0.61646   0.63604   0.64093   0.67197
 Alpha virt. eigenvalues --    0.69977   0.71774   0.73071   0.75047   0.75791
 Alpha virt. eigenvalues --    0.76749   0.76959   0.79057   0.79865   0.80989
 Alpha virt. eigenvalues --    0.81215   0.82610   0.83130   0.83937   0.84069
 Alpha virt. eigenvalues --    0.85754   0.86207   0.87327   0.88568   0.89037
 Alpha virt. eigenvalues --    0.89582   0.90923   0.91510   0.93356   0.94180
 Alpha virt. eigenvalues --    0.96669   0.98369   0.99816   1.00756   1.02039
 Alpha virt. eigenvalues --    1.03470   1.04314   1.05483   1.06638   1.07440
 Alpha virt. eigenvalues --    1.08815   1.10383   1.12497   1.14097   1.15705
 Alpha virt. eigenvalues --    1.18291   1.19411   1.21865   1.24069   1.27586
 Alpha virt. eigenvalues --    1.28684   1.29672   1.31887   1.33949   1.34832
 Alpha virt. eigenvalues --    1.37899   1.38953   1.45881   1.50239   1.52121
 Alpha virt. eigenvalues --    1.54104   1.54405   1.55383   1.58894   1.59780
 Alpha virt. eigenvalues --    1.62162   1.64539   1.66875   1.68099   1.69318
 Alpha virt. eigenvalues --    1.71489   1.71558   1.71992   1.72946   1.73845
 Alpha virt. eigenvalues --    1.74282   1.76094   1.76791   1.78675   1.79220
 Alpha virt. eigenvalues --    1.80222   1.82989   1.83447   1.85433   1.86533
 Alpha virt. eigenvalues --    1.88761   1.89497   1.91125   1.92642   1.95336
 Alpha virt. eigenvalues --    1.96697   1.98548   2.00918   2.04026   2.04594
 Alpha virt. eigenvalues --    2.06984   2.07087   2.11820   2.13818   2.16426
 Alpha virt. eigenvalues --    2.17280   2.21394   2.23366   2.27233   2.29797
 Alpha virt. eigenvalues --    2.31607   2.32390   2.34868   2.37132   2.38352
 Alpha virt. eigenvalues --    2.40683   2.41540   2.45034   2.49787   2.50274
 Alpha virt. eigenvalues --    2.52066   2.53937   2.54675   2.56005   2.57216
 Alpha virt. eigenvalues --    2.60385   2.63164   2.64447   2.66424   2.70281
 Alpha virt. eigenvalues --    2.74355   2.75495   2.82040   2.85150   2.89307
 Alpha virt. eigenvalues --    2.92943   2.96831   2.99140   3.03272   3.06584
 Alpha virt. eigenvalues --    3.72512   3.73879   3.77074   3.82160   3.85205
 Alpha virt. eigenvalues --    3.93946   4.09316   4.15918   4.27358   4.36519
 Alpha virt. eigenvalues --    4.45384   4.50395   4.62814   4.85301
          Condensed to atoms (all electrons):
               1          2          3          4          5          6
     1  O    8.447901  -0.019550  -0.019966  -0.005776   0.154931   0.145339
     2  C   -0.019550   4.978031  -0.038574   0.335309  -0.002070   0.276510
     3  C   -0.019966  -0.038574   5.047231   0.301361   0.270709  -0.012331
     4  C   -0.005776   0.335309   0.301361   4.916174  -0.031505  -0.030309
     5  C    0.154931  -0.002070   0.270709  -0.031505   4.729078  -0.025683
     6  C    0.145339   0.276510  -0.012331  -0.030309  -0.025683   5.062001
     7  H    0.000336  -0.047919  -0.048529   0.352291   0.002889  -0.003964
     8  H   -0.035768  -0.049858   0.001120  -0.008956   0.002163   0.354025
     9  H    0.001863   0.342677  -0.002748  -0.047035   0.001880  -0.052523
    10  C   -0.036020  -0.022753  -0.000106   0.003731  -0.000689   0.322607
    11  H    0.004480  -0.009234   0.000054  -0.000053   0.000673  -0.041216
    12  H    0.000256   0.004457  -0.000011  -0.000107  -0.000160  -0.043772
    13  H    0.002878   0.002050   0.345660  -0.051238  -0.038312   0.000838
    14  O    0.001504  -0.001476   0.000005  -0.000011   0.000021  -0.036160
    15  H    0.000016  -0.001327   0.000001  -0.000002   0.000002  -0.001504
    16  O   -0.002259   0.000006   0.222766  -0.038406  -0.021476   0.003387
    17  H    0.000883  -0.000446  -0.040404   0.006980  -0.013464  -0.000005
    18  O    0.000008  -0.042613  -0.034963   0.221730   0.000923   0.003984
    19  H   -0.000001  -0.004822   0.007387  -0.022873  -0.000259   0.000213
    20  O    0.001396   0.229628   0.002717  -0.039828   0.000207  -0.034321
    21  H    0.000009  -0.020376  -0.000225   0.004536   0.000016  -0.007899
    22  H   -0.061349  -0.002386  -0.073128   0.002370   0.368330   0.005340
    23  O   -0.052318   0.000079  -0.041365   0.002195   0.284472   0.002170
    24  H   -0.000189   0.000016   0.003871  -0.000127  -0.017355   0.000144
    25  O   -0.000187   0.000000  -0.000022   0.000000   0.000412  -0.000002
    26  H    0.000312   0.000000   0.000018   0.000000   0.000198  -0.000003
    27  H    0.000010   0.000000   0.000001   0.000000  -0.000035   0.000000
    28  O   -0.026594  -0.000011  -0.000023   0.000000   0.000879   0.000900
    29  H    0.062405   0.000401   0.000689  -0.000032  -0.002031  -0.004873
    30  H    0.002031   0.000002  -0.000009   0.000000  -0.000219   0.000137
               7          8          9         10         11         12
     1  O    0.000336  -0.035768   0.001863  -0.036020   0.004480   0.000256
     2  C   -0.047919  -0.049858   0.342677  -0.022753  -0.009234   0.004457
     3  C   -0.048529   0.001120  -0.002748  -0.000106   0.000054  -0.000011
     4  C    0.352291  -0.008956  -0.047035   0.003731  -0.000053  -0.000107
     5  C    0.002889   0.002163   0.001880  -0.000689   0.000673  -0.000160
     6  C   -0.003964   0.354025  -0.052523   0.322607  -0.041216  -0.043772
     7  H    0.608388   0.005644   0.007504  -0.000202   0.000003   0.000007
     8  H    0.005644   0.634390   0.007391  -0.060887   0.006120  -0.005369
     9  H    0.007504   0.007391   0.657792  -0.010894   0.005730  -0.000022
    10  C   -0.000202  -0.060887  -0.010894   4.978834   0.368414   0.361372
    11  H    0.000003   0.006120   0.005730   0.368414   0.562319  -0.036195
    12  H    0.000007  -0.005369  -0.000022   0.361372  -0.036195   0.582690
    13  H    0.004430  -0.000013   0.000217   0.000020  -0.000003   0.000000
    14  O   -0.000007   0.002842   0.000168   0.213708  -0.033622  -0.025789
    15  H    0.000001   0.004514   0.000123  -0.028470   0.006817  -0.007948
    16  O    0.004841   0.000397  -0.000037   0.000021   0.000000   0.000000
    17  H   -0.000007  -0.000013   0.000015  -0.000002   0.000000   0.000000
    18  O   -0.032943  -0.000017   0.002725  -0.000054  -0.000002   0.000000
    19  H   -0.006583   0.000000  -0.000416  -0.000001   0.000000   0.000000
    20  O    0.000041   0.005247  -0.039252  -0.000242   0.000070  -0.000209
    21  H   -0.000142  -0.000502  -0.002999  -0.004780  -0.000455   0.000778
    22  H   -0.000117  -0.000538   0.000701   0.000592  -0.000149   0.000042
    23  O   -0.000060  -0.000018   0.000044  -0.000067  -0.000004   0.000000
    24  H    0.000005  -0.000003   0.000006  -0.000025  -0.000001  -0.000041
    25  O    0.000000   0.000000   0.000000  -0.000002   0.000000   0.000006
    26  H    0.000000   0.000000   0.000000   0.000018   0.000002  -0.000044
    27  H    0.000000   0.000000   0.000000   0.000000   0.000000   0.000000
    28  O    0.000000  -0.000082   0.000000  -0.001562  -0.000071   0.008113
    29  H    0.000000   0.000514  -0.000021  -0.000590   0.000420   0.002098
    30  H    0.000000  -0.000002   0.000000  -0.000027  -0.000005   0.000023
              13         14         15         16         17         18
     1  O    0.002878   0.001504   0.000016  -0.002259   0.000883   0.000008
     2  C    0.002050  -0.001476  -0.001327   0.000006  -0.000446  -0.042613
     3  C    0.345660   0.000005   0.000001   0.222766  -0.040404  -0.034963
     4  C   -0.051238  -0.000011  -0.000002  -0.038406   0.006980   0.221730
     5  C   -0.038312   0.000021   0.000002  -0.021476  -0.013464   0.000923
     6  C    0.000838  -0.036160  -0.001504   0.003387  -0.000005   0.003984
     7  H    0.004430  -0.000007   0.000001   0.004841  -0.000007  -0.032943
     8  H   -0.000013   0.002842   0.004514   0.000397  -0.000013  -0.000017
     9  H    0.000217   0.000168   0.000123  -0.000037   0.000015   0.002725
    10  C    0.000020   0.213708  -0.028470   0.000021  -0.000002  -0.000054
    11  H   -0.000003  -0.033622   0.006817   0.000000   0.000000  -0.000002
    12  H    0.000000  -0.025789  -0.007948   0.000000   0.000000   0.000000
    13  H    0.603798   0.000000   0.000000  -0.033832  -0.000768   0.005983
    14  O    0.000000   8.227168   0.235928   0.000000   0.000000   0.000000
    15  H    0.000000   0.235928   0.386133   0.000000   0.000000   0.000000
    16  O   -0.033832   0.000000   0.000000   8.289988   0.235800   0.000744
    17  H   -0.000768   0.000000   0.000000   0.235800   0.366076  -0.000158
    18  O    0.005983   0.000000   0.000000   0.000744  -0.000158   8.278048
    19  H   -0.000106   0.000001   0.000000  -0.000173   0.000015   0.234125
    20  O   -0.000073  -0.019254   0.002602  -0.000010   0.000001   0.000270
    21  H    0.000006   0.054045  -0.003467   0.000001   0.000000  -0.000076
    22  H    0.002868  -0.000013   0.000000   0.003795   0.001440   0.000214
    23  O   -0.001096   0.000000   0.000000  -0.013967   0.033009  -0.000008
    24  H   -0.000225   0.000000   0.000000   0.000067  -0.000458   0.000001
    25  O    0.000000   0.000000   0.000000   0.000000   0.000007   0.000000
    26  H    0.000000   0.000000   0.000000   0.000000  -0.000003   0.000000
    27  H    0.000000   0.000000   0.000000   0.000000  -0.000002   0.000000
    28  O    0.000000   0.000007   0.000001   0.000000   0.000001   0.000000
    29  H   -0.000022   0.000015  -0.000002  -0.000027  -0.000031   0.000000
    30  H    0.000000  -0.000001   0.000000   0.000000   0.000003   0.000000
              19         20         21         22         23         24
     1  O   -0.000001   0.001396   0.000009  -0.061349  -0.052318  -0.000189
     2  C   -0.004822   0.229628  -0.020376  -0.002386   0.000079   0.000016
     3  C    0.007387   0.002717  -0.000225  -0.073128  -0.041365   0.003871
     4  C   -0.022873  -0.039828   0.004536   0.002370   0.002195  -0.000127
     5  C   -0.000259   0.000207   0.000016   0.368330   0.284472  -0.017355
     6  C    0.000213  -0.034321  -0.007899   0.005340   0.002170   0.000144
     7  H   -0.006583   0.000041  -0.000142  -0.000117  -0.000060   0.000005
     8  H    0.000000   0.005247  -0.000502  -0.000538  -0.000018  -0.000003
     9  H   -0.000416  -0.039252  -0.002999   0.000701   0.000044   0.000006
    10  C   -0.000001  -0.000242  -0.004780   0.000592  -0.000067  -0.000025
    11  H    0.000000   0.000070  -0.000455  -0.000149  -0.000004  -0.000001
    12  H    0.000000  -0.000209   0.000778   0.000042   0.000000  -0.000041
    13  H   -0.000106  -0.000073   0.000006   0.002868  -0.001096  -0.000225
    14  O    0.000001  -0.019254   0.054045  -0.000013   0.000000   0.000000
    15  H    0.000000   0.002602  -0.003467   0.000000   0.000000   0.000000
    16  O   -0.000173  -0.000010   0.000001   0.003795  -0.013967   0.000067
    17  H    0.000015   0.000001   0.000000   0.001440   0.033009  -0.000458
    18  O    0.234125   0.000270  -0.000076   0.000214  -0.000008   0.000001
    19  H    0.382685   0.006504  -0.000102   0.000002   0.000001   0.000000
    20  O    0.006504   8.343872   0.219239   0.000003   0.000000   0.000000
    21  H   -0.000102   0.219239   0.345077  -0.000011   0.000000   0.000000
    22  H    0.000002   0.000003  -0.000011   0.677242  -0.050635  -0.001674
    23  O    0.000001   0.000000   0.000000  -0.050635   8.339726   0.186496
    24  H    0.000000   0.000000   0.000000  -0.001674   0.186496   0.321826
    25  O    0.000000   0.000000   0.000000   0.000285  -0.025906   0.076624
    26  H    0.000000   0.000000   0.000000  -0.000077   0.002222  -0.006579
    27  H    0.000000   0.000000   0.000000  -0.000020   0.001081  -0.002570
    28  O    0.000000   0.000000   0.000000   0.000019  -0.001425   0.007354
    29  H    0.000000  -0.000004   0.000002  -0.000594   0.002969   0.005039
    30  H    0.000000   0.000000   0.000000   0.000022   0.000159   0.000598
              25         26         27         28         29         30
     1  O   -0.000187   0.000312   0.000010  -0.026594   0.062405   0.002031
     2  C    0.000000   0.000000   0.000000  -0.000011   0.000401   0.000002
     3  C   -0.000022   0.000018   0.000001  -0.000023   0.000689  -0.000009
     4  C    0.000000   0.000000   0.000000   0.000000  -0.000032   0.000000
     5  C    0.000412   0.000198  -0.000035   0.000879  -0.002031  -0.000219
     6  C   -0.000002  -0.000003   0.000000   0.000900  -0.004873   0.000137
     7  H    0.000000   0.000000   0.000000   0.000000   0.000000   0.000000
     8  H    0.000000   0.000000   0.000000  -0.000082   0.000514  -0.000002
     9  H    0.000000   0.000000   0.000000   0.000000  -0.000021   0.000000
    10  C   -0.000002   0.000018   0.000000  -0.001562  -0.000590  -0.000027
    11  H    0.000000   0.000002   0.000000  -0.000071   0.000420  -0.000005
    12  H    0.000006  -0.000044   0.000000   0.008113   0.002098   0.000023
    13  H    0.000000   0.000000   0.000000   0.000000  -0.000022   0.000000
    14  O    0.000000   0.000000   0.000000   0.000007   0.000015  -0.000001
    15  H    0.000000   0.000000   0.000000   0.000001  -0.000002   0.000000
    16  O    0.000000   0.000000   0.000000   0.000000  -0.000027   0.000000
    17  H    0.000007  -0.000003  -0.000002   0.000001  -0.000031   0.000003
    18  O    0.000000   0.000000   0.000000   0.000000   0.000000   0.000000
    19  H    0.000000   0.000000   0.000000   0.000000   0.000000   0.000000
    20  O    0.000000   0.000000   0.000000   0.000000  -0.000004   0.000000
    21  H    0.000000   0.000000   0.000000   0.000000   0.000002   0.000000
    22  H    0.000285  -0.000077  -0.000020   0.000019  -0.000594   0.000022
    23  O   -0.025906   0.002222   0.001081  -0.001425   0.002969   0.000159
    24  H    0.076624  -0.006579  -0.002570   0.007354   0.005039   0.000598
    25  O    8.361331   0.191810   0.241121  -0.031652   0.002139   0.002429
    26  H    0.191810   0.337708  -0.011481   0.073253  -0.004545  -0.004930
    27  H    0.241121  -0.011481   0.375039   0.001261  -0.000075   0.000017
    28  O   -0.031652   0.073253   0.001261   8.345081   0.199063   0.243598
    29  H    0.002139  -0.004545  -0.000075   0.199063   0.310668  -0.018375
    30  H    0.002429  -0.004930   0.000017   0.243598  -0.018375   0.378190
 Mulliken charges:
               1
     1  O   -0.566582
     2  C    0.094249
     3  C    0.108813
     4  C    0.129581
     5  C    0.335473
     6  C    0.116968
     7  H    0.154093
     8  H    0.137659
     9  H    0.127109
    10  C   -0.081944
    11  H    0.165907
    12  H    0.159825
    13  H    0.156939
    14  O   -0.619080
    15  H    0.406583
    16  O   -0.651626
    17  H    0.411531
    18  O   -0.637922
    19  H    0.404404
    20  O   -0.678604
    21  H    0.417323
    22  H    0.127422
    23  O   -0.667751
    24  H    0.427201
    25  O   -0.818394
    26  H    0.422121
    27  H    0.395652
    28  O   -0.818111
    29  H    0.444799
    30  H    0.396361
 Sum of Mulliken charges =   0.00000
 Mulliken charges with hydrogens summed into heavy atoms:
               1
     1  O   -0.566582
     2  C    0.221358
     3  C    0.265752
     4  C    0.283673
     5  C    0.462895
     6  C    0.254627
    10  C    0.243788
    14  O   -0.212496
    16  O   -0.240096
    18  O   -0.233518
    20  O   -0.261281
    23  O   -0.240550
    25  O   -0.000621
    28  O    0.023049
 Electronic spatial extent (au):  <R**2>=           3463.6247
 Charge=              0.0000 electrons
 Dipole moment (field-independent basis, Debye):
    X=             -1.7095    Y=              3.0179    Z=              2.1968  Tot=              4.1056
 Quadrupole moment (field-independent basis, Debye-Ang):
   XX=            -73.8687   YY=            -89.4398   ZZ=            -83.1021
   XY=              3.5213   XZ=             -5.4008   YZ=              6.1976
 Traceless Quadrupole moment (field-independent basis, Debye-Ang):
   XX=              8.2682   YY=             -7.3030   ZZ=             -0.9652
   XY=              3.5213   XZ=             -5.4008   YZ=              6.1976
 Octapole moment (field-independent basis, Debye-Ang**2):
  XXX=            -86.1576  YYY=             18.6890  ZZZ=             10.1538  XYY=              3.7597
  XXY=            -11.8786  XXZ=             31.9712  XZZ=             -7.7287  YZZ=             17.8892
  YYZ=             19.4809  XYZ=              6.2846
 Hexadecapole moment (field-independent basis, Debye-Ang**3):
 XXXX=          -1595.4142 YYYY=          -1572.0755 ZZZZ=           -266.6152 XXXY=             -9.2834
 XXXZ=            -84.4940 YYYX=             82.1143 YYYZ=             72.5835 ZZZX=            -32.4040
 ZZZY=             14.0769 XXYY=           -634.2586 XXZZ=           -414.7847 YYZZ=           -284.4317
 XXYZ=             14.9557 YYXZ=             23.8137 ZZXY=              9.7390
 N-N= 1.088993499388D+03 E-N=-4.150260202550D+03  KE= 8.328894980820D+02
 Calling FoFJK, ICntrl=      2127 FMM=F ISym2X=0 I1Cent= 0 IOpClX= 0 NMat=1 NMatS=1 NMatT=0.
 ***** Axes restored to original set *****
 -------------------------------------------------------------------
 Center     Atomic                   Forces (Hartrees/Bohr)
 Number     Number              X              Y              Z
 -------------------------------------------------------------------
      1        8           0.000199176   -0.005495531   -0.000544048
      2        6           0.005613015    0.006645557    0.005758343
      3        6           0.000271339    0.000999366    0.005358434
      4        6          -0.004618408    0.006029376    0.001321313
      5        6          -0.000141985   -0.003749888   -0.004599418
      6        6           0.002870965    0.002225973   -0.000939754
      7        1           0.000464718   -0.000557060   -0.001361149
      8        1          -0.000113739   -0.000361958   -0.000372126
      9        1          -0.001379527   -0.000348196   -0.000829105
     10        6           0.000215213    0.001764887    0.001172727
     11        1          -0.000022773   -0.000026916   -0.000141372
     12        1          -0.000034409   -0.000476408   -0.000766346
     13        1          -0.000690722   -0.000326555   -0.000432667
     14        8          -0.001097614    0.000371654   -0.000144421
     15        1           0.000059878   -0.000213429   -0.000141471
     16        8           0.000774450   -0.000025413   -0.000367726
     17        1          -0.000227675    0.000144312   -0.000218683
     18        8           0.016750899   -0.000812683   -0.000247332
     19        1          -0.013794020   -0.000065518   -0.002343330
     20        8          -0.001697177   -0.008104839   -0.001770613
     21        1          -0.000443814   -0.002109900   -0.000310298
     22        1          -0.000191085    0.000227845    0.000336559
     23        8           0.005625138    0.008312321    0.004714258
     24        1          -0.007252516   -0.013865467   -0.006800495
     25        8           0.003281603    0.006082973    0.001236292
     26        1          -0.006574805    0.000522021   -0.002819389
     27        1           0.001650275   -0.001294248    0.001355547
     28        8          -0.002098339   -0.000237976   -0.001761008
     29        1           0.002190486    0.004256575    0.005153197
     30        1           0.000411453    0.000489128    0.000504083
 -------------------------------------------------------------------
 Cartesian Forces:  Max     0.016750899 RMS     0.003977961

 GradGradGradGradGradGradGradGradGradGradGradGradGradGradGradGradGradGrad
 Berny optimization.
 FormGI is forming the generalized inverse of G from B-inverse, IUseBI=4.
 Internal  Forces:  Max     0.013304021 RMS     0.002282741
 Search for a local minimum.
 Step number   1 out of a maximum of  180
 All quantities printed in internal units (Hartrees-Bohrs-Radians)
 Mixed Optimization -- RFO/linear search
 Second derivative matrix not updated -- first step.
 ITU=  0
     Eigenvalues ---    0.00267   0.00463   0.00578   0.00720   0.00908
     Eigenvalues ---    0.01233   0.01262   0.01269   0.01347   0.01441
     Eigenvalues ---    0.01539   0.01781   0.02030   0.02687   0.03873
     Eigenvalues ---    0.04440   0.04661   0.04728   0.04881   0.05008
     Eigenvalues ---    0.05271   0.05377   0.05757   0.05776   0.06220
     Eigenvalues ---    0.06397   0.06470   0.06555   0.07039   0.07084
     Eigenvalues ---    0.07096   0.07325   0.07776   0.08031   0.09156
     Eigenvalues ---    0.10610   0.10845   0.11670   0.12799   0.13501
     Eigenvalues ---    0.13981   0.14248   0.15732   0.16000   0.16000
     Eigenvalues ---    0.16000   0.16000   0.16274   0.16567   0.18156
     Eigenvalues ---    0.19101   0.20298   0.21420   0.22058   0.25582
     Eigenvalues ---    0.26792   0.27362   0.28718   0.28833   0.33456
     Eigenvalues ---    0.33572   0.33638   0.33642   0.33759   0.33853
     Eigenvalues ---    0.34323   0.34699   0.39062   0.40329   0.40637
     Eigenvalues ---    0.42613   0.43759   0.46718   0.47591   0.48823
     Eigenvalues ---    0.50091   0.50540   0.51690   0.52626   0.53214
     Eigenvalues ---    0.53404   0.536091000.000001000.000001000.00000
     Eigenvalues --- 1000.000001000.000001000.000001000.000001000.00000
     Eigenvalues --- 1000.000001000.000001000.000001000.000001000.00000
     Eigenvalues --- 1000.000001000.000001000.000001000.000001000.00000
     Eigenvalues --- 1000.000001000.000001000.000001000.000001000.00000
     Eigenvalues --- 1000.000001000.000001000.000001000.000001000.00000
     Eigenvalues --- 1000.000001000.000001000.000001000.000001000.00000
     Eigenvalues --- 1000.000001000.000001000.000001000.000001000.00000
     Eigenvalues --- 1000.000001000.000001000.000001000.000001000.00000
     Eigenvalues --- 1000.000001000.000001000.000001000.000001000.00000
     Eigenvalues --- 1000.000001000.000001000.000001000.000001000.00000
     Eigenvalues --- 1000.000001000.000001000.000001000.000001000.00000
     Eigenvalues --- 1000.000001000.000001000.000001000.000001000.00000
     Eigenvalues --- 1000.000001000.000001000.000001000.000001000.00000
     Eigenvalues --- 1000.000001000.000001000.000001000.000001000.00000
     Eigenvalues --- 1000.000001000.000001000.000001000.000001000.00000
     Eigenvalues --- 1000.000001000.000001000.000001000.000001000.00000
     Eigenvalues --- 1000.000001000.000001000.00000
 RFO step:  Lambda=-5.43631536D-03 EMin= 2.67010265D-03
 Linear search not attempted -- first point.
 Iteration  1 RMS(Cart)=  0.03740648 RMS(Int)=  0.00150146
 Iteration  2 RMS(Cart)=  0.00136176 RMS(Int)=  0.00025513
 Iteration  3 RMS(Cart)=  0.00000479 RMS(Int)=  0.00025509
 Iteration  4 RMS(Cart)=  0.00000000 RMS(Int)=  0.00025509
 Iteration  1 RMS(Cart)=  0.00000788 RMS(Int)=  0.00000911
 Iteration  2 RMS(Cart)=  0.00000593 RMS(Int)=  0.00000984
 Iteration  3 RMS(Cart)=  0.00000447 RMS(Int)=  0.00001127
 Iteration  4 RMS(Cart)=  0.00000339 RMS(Int)=  0.00001275
 Iteration  5 RMS(Cart)=  0.00000258 RMS(Int)=  0.00001407
 Iteration  6 RMS(Cart)=  0.00000197 RMS(Int)=  0.00001519
 Iteration  7 RMS(Cart)=  0.00000151 RMS(Int)=  0.00001611
 Iteration  8 RMS(Cart)=  0.00000117 RMS(Int)=  0.00001686
 Iteration  9 RMS(Cart)=  0.00000090 RMS(Int)=  0.00001746
 Variable       Old X    -DE/DX   Delta X   Delta X   Delta X     New X
                                 (Linear)    (Quad)   (Total)
    R1        2.74058   0.00243   0.00000   0.00831   0.00861   2.74920
    R2        2.70687   0.00428   0.00000   0.01351   0.01355   2.72043
    R3        3.29920   0.00335   0.00000   0.06050   0.06092   3.36012
    R4        2.90190  -0.00489   0.00000  -0.01711  -0.01722   2.88468
    R5        2.91342  -0.00011   0.00000   0.00017   0.00007   2.91349
    R6        2.07939   0.00097   0.00000   0.00284   0.00284   2.08223
    R7        2.70697  -0.00727   0.00000  -0.01764  -0.01764   2.68932
    R8        2.91811   0.00003   0.00000  -0.00435  -0.00439   2.91372
    R9        2.90005   0.00059   0.00000  -0.00068  -0.00060   2.89944
   R10        2.07738   0.00046   0.00000   0.00134   0.00134   2.07872
   R11        2.68150  -0.00068   0.00000  -0.00158  -0.00158   2.67993
   R12        2.07945  -0.00116   0.00000  -0.00338  -0.00338   2.07607
   R13        2.66744   0.00388   0.00000   0.00876   0.00876   2.67620
   R14        2.08259  -0.00029   0.00000  -0.00084  -0.00084   2.08174
   R15        2.61916  -0.00005   0.00000  -0.00140  -0.00173   2.61743
   R16        2.08059  -0.00040   0.00000  -0.00116  -0.00116   2.07943
   R17        2.90590   0.00140   0.00000   0.00499   0.00500   2.91091
   R18        2.06788   0.00015   0.00000   0.00042   0.00042   2.06830
   R19        2.07570  -0.00045   0.00000  -0.00149  -0.00150   2.07420
   R20        2.71109  -0.00075   0.00000  -0.00183  -0.00183   2.70925
   R21        1.83454  -0.00018   0.00000  -0.00034  -0.00034   1.83420
   R22        1.84005   0.00020   0.00000   0.00037   0.00037   1.84042
   R23        1.86024  -0.01330   0.00000  -0.02604  -0.02604   1.83420
   R24        1.84897  -0.00192   0.00000  -0.00368  -0.00368   1.84529
   R25        1.86368   0.00141   0.00000   0.00052   0.00018   1.86386
   R26        3.38261   0.00109   0.00000  -0.00346  -0.00377   3.37884
   R27        1.87258  -0.00014   0.00000   0.00038   0.00029   1.87287
   R28        1.83089  -0.00091   0.00000  -0.00169  -0.00169   1.82921
   R29        3.32635   0.00262   0.00000   0.04774   0.04776   3.37411
   R30        1.86305   0.00285   0.00000   0.00751   0.00792   1.87097
   R31        1.83279   0.00021   0.00000   0.00039   0.00039   1.83318
    A1        2.04318   0.00049   0.00000   0.00515   0.00469   2.04787
    A2        2.00065   0.00230   0.00000   0.02241   0.02312   2.02377
    A3        2.11851  -0.00228   0.00000  -0.01747  -0.01801   2.10049
    A4        1.94061  -0.00046   0.00000  -0.00695  -0.00679   1.93383
    A5        1.89302   0.00089   0.00000   0.00049   0.00046   1.89348
    A6        1.89836  -0.00548   0.00000  -0.04201  -0.04175   1.85661
    A7        1.92693  -0.00079   0.00000  -0.00391  -0.00413   1.92280
    A8        1.88908   0.00533   0.00000   0.04131   0.04106   1.93014
    A9        1.91565   0.00042   0.00000   0.01053   0.01005   1.92570
   A10        1.97718  -0.00016   0.00000  -0.00583  -0.00584   1.97134
   A11        1.87607  -0.00007   0.00000   0.00550   0.00541   1.88149
   A12        1.88067   0.00029   0.00000   0.00107   0.00115   1.88183
   A13        1.87674  -0.00140   0.00000  -0.00447  -0.00444   1.87230
   A14        1.90777   0.00136   0.00000   0.00370   0.00368   1.91145
   A15        1.94628  -0.00005   0.00000   0.00000  -0.00001   1.94627
   A16        1.94056   0.00246   0.00000   0.01419   0.01408   1.95464
   A17        1.87929  -0.00091   0.00000  -0.00370  -0.00387   1.87543
   A18        1.94598  -0.00235   0.00000  -0.01912  -0.01931   1.92667
   A19        1.86569   0.00036   0.00000   0.00528   0.00541   1.87110
   A20        1.87735   0.00071   0.00000   0.01702   0.01715   1.89450
   A21        1.95402  -0.00010   0.00000  -0.01249  -0.01274   1.94128
   A22        1.96243  -0.00249   0.00000  -0.00928  -0.00911   1.95332
   A23        1.87975   0.00118   0.00000   0.00196   0.00201   1.88176
   A24        1.87740   0.00165   0.00000   0.01025   0.01008   1.88748
   A25        1.92643   0.00018   0.00000   0.00113   0.00101   1.92745
   A26        1.87492   0.00053   0.00000  -0.00235  -0.00221   1.87272
   A27        1.94318  -0.00108   0.00000  -0.00161  -0.00171   1.94147
   A28        1.97806  -0.00070   0.00000  -0.00690  -0.00675   1.97132
   A29        1.88229  -0.00047   0.00000  -0.00350  -0.00357   1.87872
   A30        1.86136  -0.00021   0.00000  -0.00562  -0.00560   1.85577
   A31        1.86780  -0.00060   0.00000  -0.00062  -0.00068   1.86712
   A32        1.96148   0.00199   0.00000   0.01286   0.01271   1.97419
   A33        1.91114  -0.00010   0.00000   0.00357   0.00357   1.91471
   A34        1.91110  -0.00032   0.00000  -0.00218  -0.00220   1.90890
   A35        1.91564  -0.00064   0.00000  -0.00281  -0.00281   1.91284
   A36        1.97057   0.00155   0.00000   0.00793   0.00792   1.97849
   A37        1.88221   0.00003   0.00000  -0.00403  -0.00405   1.87817
   A38        1.84686  -0.00041   0.00000  -0.00048  -0.00047   1.84639
   A39        1.93427  -0.00026   0.00000   0.00107   0.00107   1.93534
   A40        1.88463  -0.00008   0.00000  -0.00050  -0.00050   1.88412
   A41        1.84043  -0.00049   0.00000  -0.00295  -0.00295   1.83749
   A42        1.90126  -0.00646   0.00000  -0.03906  -0.03906   1.86220
   A43        1.85888  -0.00178   0.00000  -0.01077  -0.01077   1.84812
   A44        1.88762   0.00402   0.00000   0.01825   0.01706   1.90469
   A45        2.77483   0.01196   0.00000   0.05770   0.05791   2.83274
   A46        1.49753   0.00676   0.00000   0.03434   0.03398   1.53151
   A47        2.22820  -0.00305   0.00000  -0.02395  -0.02416   2.20404
   A48        1.84214  -0.00125   0.00000   0.00210   0.00268   1.84482
   A49        2.77120  -0.00143   0.00000  -0.00315  -0.00323   2.76798
   A50        1.57852   0.00299   0.00000   0.04228   0.04354   1.62207
   A51        1.85239   0.00007   0.00000   0.00810   0.00813   1.86052
   A52        1.80500  -0.00101   0.00000  -0.00292  -0.00313   1.80187
   A53        3.13503   0.00401   0.00000   0.04611   0.04487   3.17990
   A54        3.34195  -0.00176   0.00000  -0.11015  -0.10992   3.23203
    D1        0.85000  -0.00010   0.00000   0.00316   0.00321   0.85321
    D2       -1.27614   0.00043   0.00000   0.00626   0.00630  -1.26984
    D3        2.91075   0.00015   0.00000   0.00143   0.00158   2.91233
    D4       -2.79168   0.00018   0.00000   0.01716   0.01720  -2.77448
    D5        1.36536   0.00072   0.00000   0.02026   0.02029   1.38565
    D6       -0.73094   0.00043   0.00000   0.01543   0.01557  -0.71537
    D7        0.02616  -0.00026   0.00000   0.00000  -0.00001   0.02615
    D8       -2.03816   0.00121   0.00000   0.00722   0.00715  -2.03101
    D9        2.19363   0.00167   0.00000   0.00775   0.00767   2.20130
   D10       -2.57958  -0.00202   0.00000  -0.02763  -0.02747  -2.60705
   D11        1.63928  -0.00055   0.00000  -0.02041  -0.02030   1.61898
   D12       -0.41212  -0.00009   0.00000  -0.01989  -0.01978  -0.43190
   D13       -0.08626   0.00016   0.00000  -0.00115  -0.00138  -0.08764
   D14        1.77877   0.00016   0.00000   0.01109   0.01054   1.78931
   D15        2.60277   0.00111   0.00000  -0.01596  -0.01515   2.58762
   D16       -1.81539   0.00112   0.00000  -0.00372  -0.00323  -1.81861
   D17        0.86281   0.00001   0.00000   0.00780   0.00786   0.87067
   D18       -1.17549  -0.00125   0.00000  -0.00421  -0.00421  -1.17970
   D19        2.95778   0.00100   0.00000   0.02612   0.02597   2.98375
   D20       -1.25910   0.00070   0.00000   0.01671   0.01692  -1.24219
   D21        2.98578  -0.00056   0.00000   0.00470   0.00485   2.99063
   D22        0.83586   0.00168   0.00000   0.03504   0.03503   0.87089
   D23        2.94135   0.00283   0.00000   0.02788   0.02802   2.96937
   D24        0.90305   0.00157   0.00000   0.01587   0.01595   0.91900
   D25       -1.24687   0.00381   0.00000   0.04621   0.04613  -1.20074
   D26       -0.90418   0.00018   0.00000  -0.00156  -0.00159  -0.90576
   D27        1.16852  -0.00119   0.00000  -0.01034  -0.01035   1.15817
   D28       -3.01611  -0.00052   0.00000   0.00130   0.00129  -3.01482
   D29        1.19783   0.00047   0.00000  -0.00813  -0.00816   1.18968
   D30       -3.01265  -0.00090   0.00000  -0.01692  -0.01692  -3.02957
   D31       -0.91410  -0.00023   0.00000  -0.00528  -0.00528  -0.91938
   D32       -2.98826   0.00383   0.00000   0.02809   0.02820  -2.96006
   D33       -0.91556   0.00245   0.00000   0.01931   0.01944  -0.89612
   D34        1.18299   0.00312   0.00000   0.03095   0.03108   1.21407
   D35       -3.03937  -0.00064   0.00000  -0.01453  -0.01423  -3.05359
   D36       -0.92885  -0.00126   0.00000  -0.02309  -0.02367  -0.95252
   D37        1.17528   0.00129   0.00000   0.00368   0.00396   1.17923
   D38       -0.02133   0.00153   0.00000   0.00000   0.00001  -0.02132
   D39        2.02527   0.00199   0.00000   0.00636   0.00637   2.03164
   D40       -2.15653   0.00245   0.00000   0.00367   0.00365  -2.15288
   D41        2.04944  -0.00034   0.00000  -0.00536  -0.00539   2.04406
   D42       -2.18714   0.00012   0.00000   0.00100   0.00097  -2.18617
   D43       -0.08576   0.00058   0.00000  -0.00169  -0.00175  -0.08751
   D44       -2.13400  -0.00028   0.00000  -0.00172  -0.00173  -2.13572
   D45       -0.08739   0.00018   0.00000   0.00464   0.00463  -0.08276
   D46        2.01399   0.00064   0.00000   0.00196   0.00191   2.01590
   D47       -0.83846  -0.00097   0.00000  -0.00195  -0.00210  -0.84056
   D48        1.26093  -0.00101   0.00000  -0.00489  -0.00493   1.25600
   D49       -2.90067  -0.00188   0.00000  -0.00766  -0.00780  -2.90846
   D50       -2.90884   0.00014   0.00000  -0.00235  -0.00244  -2.91128
   D51       -0.80946   0.00010   0.00000  -0.00529  -0.00526  -0.81473
   D52        1.31213  -0.00078   0.00000  -0.00806  -0.00813   1.30400
   D53        1.25885   0.00025   0.00000  -0.00181  -0.00189   1.25696
   D54       -2.92495   0.00021   0.00000  -0.00475  -0.00472  -2.92967
   D55       -0.80335  -0.00066   0.00000  -0.00753  -0.00759  -0.81094
   D56        2.85767   0.00019   0.00000  -0.00706  -0.00704   2.85063
   D57        0.70215  -0.00064   0.00000  -0.00288  -0.00288   0.69927
   D58       -1.37060   0.00026   0.00000   0.00028   0.00026  -1.37034
   D59        1.25886  -0.00316   0.00000  -0.08742  -0.08716   1.17169
   D60       -2.89249  -0.00110   0.00000  -0.07038  -0.07049  -2.96299
   D61       -0.84786  -0.00028   0.00000  -0.06051  -0.06065  -0.90851
   D62        0.92575   0.00351   0.00000   0.04531   0.04543   0.97117
   D63        3.04222   0.00176   0.00000   0.03869   0.03898   3.08119
   D64       -1.12988   0.00168   0.00000   0.03760   0.03779  -1.09210
   D65       -1.15185  -0.00023   0.00000  -0.01905  -0.01910  -1.17096
   D66        0.91114  -0.00076   0.00000  -0.02692  -0.02698   0.88417
   D67        3.07858  -0.00047   0.00000  -0.02193  -0.02198   3.05660
   D68        1.02579   0.00004   0.00000  -0.02339  -0.02337   1.00242
   D69        3.08879  -0.00049   0.00000  -0.03126  -0.03125   3.05754
   D70       -1.02696  -0.00020   0.00000  -0.02627  -0.02624  -1.05321
   D71        3.09908   0.00049   0.00000  -0.01368  -0.01367   3.08541
   D72       -1.12111  -0.00005   0.00000  -0.02156  -0.02154  -1.14265
   D73        1.04633   0.00024   0.00000  -0.01656  -0.01654   1.02979
   D74       -1.29288   0.00015   0.00000   0.00559   0.00558  -1.28730
   D75        2.90018  -0.00008   0.00000   0.00407   0.00406   2.90424
   D76        0.86431   0.00025   0.00000   0.00856   0.00858   0.87289
   D77        2.15674  -0.00119   0.00000  -0.06023  -0.06000   2.09674
   D78       -3.03907   0.00200   0.00000   0.03998   0.03992  -2.99915
   D79        1.38656  -0.00125   0.00000   0.01403   0.01454   1.40110
   D80       -0.08840   0.00004   0.00000   0.00063   0.00073  -0.08767
   D81        2.14548  -0.00130   0.00000  -0.01399  -0.01370   2.13178
   D82        0.53845  -0.00090   0.00000  -0.03845  -0.03783   0.50062
   D83       -1.27866  -0.00075   0.00000  -0.04874  -0.04895  -1.32761
         Item               Value     Threshold  Converged?
 Maximum Force            0.013304     0.000450     NO 
 RMS     Force            0.002280     0.000300     NO 
 Maximum Displacement     0.189789     0.001800     NO 
 RMS     Displacement     0.037311     0.001200     NO 
 Predicted change in Energy=-2.938455D-03
 GradGradGradGradGradGradGradGradGradGradGradGradGradGradGradGradGradGrad

                          Input orientation:                          
 ---------------------------------------------------------------------
 Center     Atomic      Atomic             Coordinates (Angstroms)
 Number     Number       Type             X           Y           Z
 ---------------------------------------------------------------------
      1          8           0       -1.479661    0.338243    0.260916
      2          6           0        0.927899    0.414574   -0.353904
      3          6           0       -0.283416   -1.804821   -0.075619
      4          6           0        1.060978   -1.057129    0.028989
      5          6           0       -1.441364   -0.895954   -0.508349
      6          6           0       -0.248100    1.071284    0.396273
      7          1           0        1.373887   -1.096831    1.081343
      8          1           0        0.017865    1.082248    1.463979
      9          1           0        0.767948    0.479403   -1.442174
     10          6           0       -0.543530    2.506043   -0.080148
     11          1           0       -0.751168    2.496240   -1.154724
     12          1           0       -1.439542    2.885458    0.427770
     13          1           0       -0.175599   -2.584689   -0.843867
     14          8           0        0.561659    3.402222    0.095484
     15          1           0        0.635351    3.604459    1.041935
     16          8           0       -0.569388   -2.363554    1.196075
     17          1           0       -1.517742   -2.583894    1.172231
     18          8           0        2.001684   -1.702225   -0.810353
     19          1           0        2.869133   -1.319347   -0.602919
     20          8           0        2.158029    1.034834    0.002956
     21          1           0        2.036266    1.988393   -0.168566
     22          1           0       -1.342510   -0.627186   -1.572087
     23          8           0       -2.618022   -1.587676   -0.272867
     24          1           0       -3.384122   -1.005675   -0.490073
     25          8           0       -4.874228   -0.359387   -1.237644
     26          1           0       -4.708945    0.484313   -0.744599
     27          1           0       -5.781892   -0.616195   -1.020460
     28          8           0       -3.925131    1.623190    0.385275
     29          1           0       -3.040011    1.190434    0.287634
     30          1           0       -4.202370    1.363067    1.277757
 ---------------------------------------------------------------------
                    Distance matrix (angstroms):
                    1          2          3          4          5
     1  O    0.000000
     2  C    2.485996   0.000000
     3  C    2.477293   2.543706   0.000000
     4  C    2.907868   1.526508   1.541875   0.000000
     5  C    1.454812   2.711963   1.534319   2.564453   0.000000
     6  C    1.439588   1.541754   2.914774   2.525614   2.472296
     7  H    3.297768   2.131475   2.141603   1.098607   3.239306
     8  H    2.059972   2.139778   3.285772   2.779247   3.151620
     9  H    2.823506   1.101870   2.861908   2.147351   2.764904
    10  C    2.385795   2.571826   4.318706   3.909290   3.544438
    11  H    2.681733   2.791758   4.458967   4.160707   3.521527
    12  H    2.552989   3.510136   4.856824   4.685682   3.895561
    13  H    3.385950   3.233164   1.100011   2.150450   2.136951
    14  O    3.685420   3.043373   5.277947   4.487711   4.780275
    15  H    3.968807   3.494183   5.599408   4.789324   5.193250
    16  O    3.000471   3.516006   1.418157   2.393100   2.412312
    17  H    3.061182   4.159454   1.920324   3.207461   2.383133
    18  O    4.175031   2.417063   2.402508   1.416182   3.549064
    19  H    4.733479   2.614743   3.233002   1.933260   4.332273
    20  O    3.712758   1.423128   3.745727   2.362310   4.116431
    21  H    3.907581   1.933839   4.447250   3.203970   4.530874
    22  H    2.076237   2.779207   2.178972   2.919769   1.101611
    23  O    2.299991   4.072976   2.352965   3.729295   1.385084
    24  H    2.448892   4.541935   3.228743   4.475598   1.945940
    25  O    3.775640   5.919855   4.951276   6.108835   3.550258
    26  H    3.385362   5.650798   5.027223   6.022167   3.555002
    27  H    4.589343   6.821149   5.704278   6.936903   4.379579
    28  O    2.765299   5.055594   5.022526   5.672066   3.648801
    29  H    1.778099   4.093634   4.086847   4.683647   2.746321
    30  H    3.081781   5.466408   5.217790   5.926179   3.989549
                    6          7          8          9         10
     6  C    0.000000
     7  H    2.793006   0.000000
     8  H    1.100388   2.594916   0.000000
     9  H    2.182329   3.036414   3.061335   0.000000
    10  C    1.540385   4.243377   2.174094   2.771706   0.000000
    11  H    2.165449   4.735611   3.073824   2.541254   1.094497
    12  H    2.170657   4.919467   2.539553   3.762818   1.097622
    13  H    3.861262   2.884624   4.337050   3.261428   5.160832
    14  O    2.485850   4.676869   2.747867   3.309050   1.433676
    15  H    2.759409   4.759108   2.630772   3.994290   1.963504
    16  O    3.541331   2.322513   3.505736   4.102588   5.034122
    17  H    3.946446   3.252866   3.985449   4.630689   5.331510
    18  O    3.769592   2.083061   4.106265   2.584725   4.972004
    19  H    4.053473   2.263187   4.262565   2.890472   5.152976
    20  O    2.438336   2.514318   2.591745   2.080680   3.077301
    21  H    2.525560   3.394057   2.749590   2.346861   2.632703
    22  H    2.820811   3.826234   3.740385   2.386514   3.561091
    23  O    3.624135   4.243837   4.134372   4.135806   4.593386
    24  H    3.864454   5.011617   4.444238   4.511279   4.535324
    25  O    5.110535   6.705256   5.771451   5.707850   5.320285
[...]
 026864,-0.00038022,0.00010770,-0.00004409,0.00011231,0.00001106,0.0000
 2214,0.00033893,-0.00007594,0.00025810,-0.00073622,-0.00022728,-0.0005
 4756,-0.00023545,0.00009233,-0.00003993,0.00005353,0.00003121,-0.00012
 321,-0.00050033,-0.00014208,-0.00010855,0.00016866,0.00002168,-0.00153
 353,-0.00137500,0.00104836,0.11879974,-0.10749858,0.10432615,-0.091509
 30,0.11025632,0.00094012,0.00318772,0.00019396,-0.00015977,-0.00026558
 ,0.00038589,0.00438126,0.00447889,-0.00037169,0.00015412,-0.00109549,0
 .00100765,0.00800594,-0.01047919,0.00619104,-0.00100245,-0.00066822,-0
 .00010572,0.00040022,0.00024734,0.00007187,0.00020401,0.00020544,0.000
 06487,0.00000984,-0.00000030,-0.00010436,0.00026706,-0.00040033,0.0003
 8374,0.00005288,0.00002212,-0.00009024,-0.00002571,0.00002475,0.000028
 96,-0.00029747,0.00015712,-0.00008564,0.00010092,0.00059019,-0.0001606
 1,-0.00001786,-0.00016066,-0.00002884,-0.00059035,0.00000653,0.0001285
 9,-0.00027121,-0.00044550,-0.00024169,0.00072557,-0.00001882,-0.000303
 69,0.00001272,-0.00001344,-0.00000541,0.00047681,0.00033273,-0.0001815
 4,-0.00003676,-0.00012501,0.00007826,0.00210961,-0.00031866,-0.0001363
 4,-0.15083128,0.09958269,-0.12968591,0.12901600,-0.08806907,0.12860377
 ,-0.00137583,-0.00232026,-0.00132891,0.00031582,0.00019859,-0.00000976
 ,-0.00038252,-0.00098148,-0.00025258,0.00045791,0.00026540,-0.00035713
 ,0.00614754,0.00545776,-0.00064906,0.00116921,0.00070570,0.00028337,-0
 .00016939,-0.00008340,-0.00001011,-0.00023327,-0.00017472,-0.00013149,
 0.00000802,0.00000768,-0.00008030,-0.00004902,0.00048903,-0.00000287,0
 .00001667,0.00005687,-0.00004299,0.00000509,-0.00004602,-0.00002144,0.
 00002985,-0.00002281,0.00004863,-0.00024073,-0.00067161,0.00000427,-0.
 00001040,0.00018338,0.00003583,-0.00107460,0.00045593,-0.00044790,0.00
 058025,-0.00092001,0.00111905,-0.00061760,0.00009648,0.00021665,0.0000
 7837,-0.00002821,-0.00001077,-0.00062023,-0.00038721,0.00000369,0.0000
 7296,0.00015278,-0.00004253,-0.00003632,-0.00058910,0.00025734,-0.0181
 6602,0.01109395,-0.01043681,-0.00031017,-0.00647267,0.00076992,0.49672
 328,-0.00040083,0.00418778,0.00146632,-0.00003923,-0.00037698,-0.00017
 834,0.00095383,0.00108430,0.00017151,-0.00025165,-0.00064195,0.0003631
 6,-0.00532413,-0.00909784,0.00141115,-0.00040572,0.00010207,0.00013354
 ,0.00016688,0.00011353,0.00001342,0.00011072,0.00011841,0.00002266,0.0
 0000390,0.00000100,0.00005265,0.00083753,-0.00033309,0.00012150,0.0000
 9668,-0.00000507,-0.00010254,-0.00001775,0.00031103,0.00017343,-0.0001
 5559,0.00018959,-0.00004031,-0.00051376,0.00035471,-0.00011330,0.00009
 822,-0.00012776,0.00000045,0.00078575,0.00014100,0.00005916,-0.0006802
 7,0.00051948,-0.00093470,0.00035545,0.00025448,-0.00010372,0.00003720,
 -0.00008446,0.00000107,0.00008423,0.00051282,0.00007758,0.00016872,-0.
 00021121,-0.00003201,0.00053783,0.00058560,-0.00064905,0.01867729,0.00
 109079,0.00626842,-0.01239458,-0.01011152,-0.00163388,0.17494264,0.328
 95244,-0.00192038,-0.00016822,0.00079587,0.00016780,-0.00001294,-0.000
 34662,-0.00059337,-0.00071595,-0.00012729,0.00030171,0.00011267,-0.000
 28707,0.00248191,0.00263683,-0.00248094,0.00077629,0.00074310,0.000279
 30,-0.00008536,-0.00005340,0.00002501,-0.00006620,-0.00012561,-0.00001
 505,-0.00001981,0.00000796,0.00007130,0.00037040,0.00015791,-0.0004982
 5,-0.00008081,0.00002243,0.00010047,0.00005801,0.00026284,0.00002867,-
 0.00004137,0.00010228,0.00006820,-0.00040494,-0.00042733,0.00015488,0.
 00009703,0.00011163,0.00002154,-0.00052522,0.00020115,0.00027473,0.000
 45350,-0.00057399,0.00037377,-0.00044639,0.00014541,0.00027428,0.00004
 981,-0.00003204,-0.00004370,-0.00049597,-0.00012806,0.00017949,0.00011
 992,0.00004506,-0.00010882,-0.00067321,-0.00034290,0.00068419,-0.01077
 882,0.00482743,0.00105580,0.00341780,-0.00260244,-0.00963018,-0.027346
 28,0.21465051,0.26678976,0.00166653,-0.00085868,0.00009464,-0.00015669
 ,0.00015310,0.00020572,-0.00015435,0.00003237,-0.00009081,-0.00016892,
 0.00017891,0.00000450,-0.00042579,0.00244249,0.00063652,-0.00068454,-0
 .00078639,-0.00033236,0.00000707,-0.00001067,-0.00000110,0.00013104,0.
 00007747,0.00008687,0.00000105,-0.00000654,-0.00000667,-0.00037990,-0.
 00018303,-0.00000777,-0.00005948,-0.00002875,0.00008472,-0.00000148,-0
 .00015140,-0.00007827,0.00007748,-0.00011401,0.00001138,0.00043065,0.0
 0030527,0.00003967,-0.00003422,-0.00006743,-0.00002452,0.00002574,-0.0
 0027760,0.00010590,0.00002162,0.00016774,-0.00000958,0.00018826,-0.000
 18441,-0.00008606,-0.00006524,0.00005773,0.00001126,0.00039076,-0.0000
 3102,-0.00008800,-0.00013391,0.00000160,0.00005697,0.00010368,-0.00006
 065,0.00001460,-0.00210482,-0.00115646,-0.00224846,0.00329184,0.003844
 03,0.00551557,-0.05742880,0.01319616,0.02645502,0.07153185,0.00086791,
 -0.00305374,-0.00144046,-0.00000934,0.00018325,0.00021558,-0.00013915,
 -0.00048997,-0.00026473,0.00011055,0.00033215,-0.00014865,0.00376637,0
 .00401248,0.00079699,0.00022502,0.00002406,-0.00015279,-0.00007436,-0.
 00004721,-0.00001530,-0.00010009,-0.00007900,-0.00002791,0.00000590,0.
 00000081,-0.00006404,-0.00077479,0.00024197,0.00011582,-0.00005255,0.0
 0001832,0.00005162,0.00000664,-0.00030442,-0.00018371,0.00009036,-0.00
 013648,0.00002718,0.00052329,-0.00016767,0.00003114,-0.00010718,0.0000
 6898,-0.00001045,-0.00039269,-0.00002543,-0.00016928,0.00031328,-0.000
 20165,0.00042623,-0.00010886,-0.00018504,0.00000527,-0.00003429,0.0000
 5636,0.00000819,0.00002376,-0.00030832,-0.00009217,-0.00014874,0.00014
 907,0.00004931,-0.00010115,-0.00036641,-0.00005516,-0.00556805,0.00111
 887,-0.00079579,0.00745793,-0.00779230,-0.00035685,-0.02641408,-0.2090
 5512,-0.18684076,0.01778399,0.22847917,0.00224648,-0.00233045,-0.00205
 819,-0.00005545,0.00027825,0.00042104,-0.00009906,-0.00037713,-0.00013
 957,-0.00009373,0.00028983,-0.00003239,0.00172167,0.00318705,0.0018598
 3,-0.00030475,-0.00075151,-0.00030740,-0.00004913,-0.00002497,-0.00002
 951,-0.00006058,0.00005229,-0.00003851,0.00002556,-0.00002207,-0.00012
 140,-0.00072965,0.00016029,0.00061528,0.00012469,-0.00001367,-0.000142
 39,-0.00012008,-0.00050798,-0.00004902,0.00012166,-0.00017603,-0.00000
 071,0.00051372,0.00012867,-0.00016630,-0.00015282,-0.00002770,-0.00001
 141,-0.00012701,-0.00012543,-0.00034814,0.00006688,0.00007986,0.000350
 69,0.00009061,-0.00020564,-0.00012551,-0.00005162,0.00005508,0.0000351
 3,0.00031721,-0.00016865,-0.00020900,-0.00015491,0.00005739,0.00010647
 ,0.00023235,-0.00029008,-0.00039893,-0.00427253,-0.00006757,-0.0036064
 6,0.00627977,-0.00089282,0.00655541,-0.01118201,-0.20474326,-0.2187752
 8,0.00213031,0.19285166,0.21321962,0.00020985,0.00020600,-0.00002495,-
 0.00002758,-0.00002650,0.00001295,0.00005230,0.00010597,-0.00003936,-0
 .00004737,-0.00003376,0.00002472,-0.00010587,-0.00053953,0.00027822,-0
 .00008219,-0.00003322,-0.00002435,0.00001226,0.00000731,0.00000370,0.0
 0000687,0.00001184,0.00000530,0.00000244,-0.00000164,-0.00000073,-0.00
 001059,-0.00003332,0.00003674,0.00000519,0.00000087,-0.00000760,-0.000
 00960,-0.00001401,0.00000063,-0.00000932,0.00000959,0.00000183,0.00003
 333,0.00006580,-0.00001256,-0.00000675,-0.00002050,-0.00000286,0.00002
 679,0.00000159,-0.00000790,-0.00007282,0.00002438,-0.00002780,0.000062
 99,0.00000429,-0.00001755,-0.00001452,-0.00000317,0.00000218,0.0000602
 0,0.00004424,-0.00000593,-0.00000913,-0.00001669,0.00000624,0.00012883
 ,0.00000767,-0.00008285,0.00095560,0.00118763,-0.00073408,-0.00409815,
 -0.00223820,0.00104404,-0.42902830,-0.18654934,0.01399659,-0.00306834,
 0.00313345,0.00499793,0.43458811,0.00009512,-0.00007331,0.00001905,-0.
 00002675,0.00001618,0.00000763,-0.00004841,0.00007806,0.00001376,-0.00
 001486,0.00002127,0.00002074,-0.00058265,0.00004734,-0.00007302,-0.000
 05350,-0.00005382,-0.00003007,0.00000909,0.00000218,-0.00000201,0.0000
 1356,0.00000672,0.00001116,-0.00000164,-0.00000129,0.00000671,-0.00004
 174,-0.00000246,-0.00000612,-0.00000549,0.00000118,0.00000754,0.000001
 64,-0.00001307,-0.00001031,0.00002024,-0.00001923,-0.00001204,0.000052
 60,0.00000053,0.00000627,-0.00001348,0.00000547,-0.00000333,0.00011236
 ,-0.00013126,0.00009141,0.00000230,0.00014195,-0.00009153,0.00003188,-
 0.00004869,-0.00001333,-0.00000900,0.00001784,-0.00000117,0.00004362,-
 0.00002386,-0.00000372,-0.00002338,0.00001125,0.00000574,-0.00013884,0
 .00004318,0.00001498,0.00206762,-0.00315579,0.00224409,0.00041673,0.00
 604428,-0.00272678,-0.15221751,-0.10063450,-0.01903056,-0.03461099,-0.
 01029216,0.00800710,0.18405935,0.10849533,0.00028902,0.00009784,-0.000
 04432,-0.00005716,-0.00001983,0.00003431,-0.00004434,0.00016453,0.0001
 0360,-0.00008710,-0.00000646,0.00004402,-0.00034061,-0.00035159,-0.000
 01648,-0.00018259,-0.00011369,-0.00005231,0.00001041,0.00000163,-0.000
 00405,0.00001734,0.00001946,0.00000922,-0.00000244,-0.00000202,0.00000
 053,-0.00005373,-0.00005888,0.00002637,-0.00000335,-0.00001266,0.00000
 091,-0.00000567,-0.00003122,-0.00000220,0.00001377,-0.00001909,-0.0000
 2254,0.00008080,0.00010323,-0.00000921,-0.00001122,-0.00002630,-0.0000
 0244,0.00010200,-0.00007522,-0.00004990,-0.00010202,0.00009681,0.00000
 486,0.00010463,-0.00003388,-0.00006443,-0.00001424,0.00000901,0.000012
 02,0.00011147,0.00004056,-0.00002486,-0.00002708,-0.00001335,0.0000210
 8,-0.00002132,0.00007014,-0.00000716,0.00021765,0.00112568,-0.00081778
 ,-0.00195509,-0.00133523,0.00019632,0.05458572,0.00026682,-0.02608373,
 -0.03309410,-0.01256344,0.00372478,-0.02016269,0.01327674,0.02541508,-
 0.01412627,0.00942371,0.00682367,0.00030585,-0.00097047,-0.00106724,0.
 00046161,0.00059378,0.00151784,0.00070009,-0.00065724,0.00004749,-0.00
 589956,-0.00770258,-0.00356631,0.00187764,0.00421834,0.00194585,-0.000
 03226,0.00001876,-0.00000277,-0.00028558,-0.00031211,-0.00022249,-0.00
 001369,0.00006523,0.00012440,0.00137489,0.00034631,-0.00081344,-0.0001
 3368,0.00009478,0.00012762,-0.00041099,0.00055812,0.00024396,-0.000401
 35,0.00051523,-0.00021599,-0.00130533,-0.00107511,0.00015657,0.0001765
 5,0.00028257,0.00011264,0.00013982,0.00068738,-0.00053559,-0.00020200,
 -0.00033273,0.00005354,-0.00055930,0.00057878,0.00023160,0.00020411,-0
 .00019475,-0.00002895,-0.00153844,0.00007775,0.00039909,0.00040185,0.0
 0010313,-0.00019488,-0.00006155,0.00087134,0.00061393,0.00476384,0.000
 99214,0.00086433,-0.00407941,0.00164942,-0.00171146,0.00560329,-0.0062
 1337,-0.00811707,-0.01058064,-0.00047273,0.00685032,0.00069950,0.00126
 302,0.00129630,0.48868337,0.00762203,0.00355226,-0.00084654,0.00006988
 ,0.00066508,0.00022523,-0.00022365,0.00026681,-0.00004257,-0.00050087,
 -0.00015242,0.00018506,-0.00242494,-0.00064818,0.00081494,-0.00124656,
 -0.00352908,-0.00124410,0.00008073,0.00003624,0.00001410,0.00035551,0.
 00026606,0.00023790,-0.00001254,-0.00003702,0.00002045,0.00191459,-0.0
 0142408,-0.00064571,-0.00009656,0.00004738,0.00006884,-0.00033686,0.00
 072040,0.00029554,0.00005334,-0.00004113,0.00001630,-0.00114509,0.0008
 2933,0.00008062,0.00031608,-0.00026978,0.00000764,0.00049926,-0.000264
 98,0.00017701,-0.00035043,0.00045710,-0.00031820,0.00030021,0.00010126
 ,-0.00009555,-0.00001103,-0.00001950,0.00000062,0.00077480,0.00048029,
 -0.00009026,0.00018101,-0.00041805,-0.00002190,0.00019967,0.00003284,-
 0.00028341,0.00330889,-0.00159538,-0.00119532,-0.00195798,0.00211776,0
 .00114630,-0.00331893,-0.00377933,-0.01254195,0.00130672,-0.00806273,0
 .00504966,0.00096009,-0.00048217,-0.00001711,-0.10903561,0.18329304,0.
 00394907,-0.00015759,0.00341712,0.00001088,0.00002958,-0.00001387,0.00
 001261,0.00020926,-0.00029999,-0.00016702,-0.00012107,0.00000713,-0.00
 159444,-0.00112339,-0.00025479,-0.00043524,-0.00092457,-0.00057217,0.0
 0008189,0.00002040,0.00003996,0.00044348,0.00005667,0.00022439,-0.0000
 4589,0.00001574,0.00011779,0.00019105,-0.00026833,-0.00025096,-0.00030
 074,0.00005132,0.00033330,-0.00016656,0.00019763,-0.00059803,0.0000016
 1,-0.00000212,0.00006352,0.00002362,0.00026077,0.00023715,0.00020456,-
 0.00005814,-0.00008373,0.00010772,-0.00003241,0.00056792,-0.00009688,0
 .00003115,-0.00044716,0.00010587,0.00003552,0.00005990,-0.00000657,0.0
 0000523,-0.00003056,0.00024553,0.00017565,0.00009102,0.00002836,-0.000
 09163,-0.00005821,-0.00009400,0.00023640,0.00024217,0.00266863,-0.0008
 0887,0.00154743,-0.00341168,0.00260639,-0.00204167,-0.00588134,-0.0148
 0231,-0.01273491,0.00534959,0.00345987,0.00143130,0.00082252,-0.001598
 53,-0.00196374,-0.16785571,-0.15622268,0.42804014,-0.00266941,-0.00541
 867,-0.00432600,-0.00022733,0.00147831,0.00123345,-0.00068812,-0.00110
 618,-0.00246640,-0.00105084,0.00076740,-0.00008170,0.00981951,0.011903
 40,0.00524217,-0.00541561,-0.00645883,-0.00285740,0.00006872,-0.000013
 57,0.00002108,0.00063505,0.00060888,0.00048733,0.00000157,-0.00010221,
 -0.00014787,-0.00035172,-0.00159618,0.00066886,0.00011190,-0.00006874,
 -0.00009402,0.00003597,-0.00056355,0.00012290,0.00065724,-0.00077199,0
 .00038073,0.00086388,0.00177187,-0.00019889,-0.00000245,-0.00045431,-0
 .00014211,-0.00025104,-0.00086628,0.00096258,0.00035244,0.00030548,-0.
 00015776,0.00068922,-0.00064138,-0.00025321,-0.00023808,0.00021871,0.0
 0002666,0.00206760,0.00008025,-0.00048753,-0.00035781,-0.00029734,0.00
 020956,-0.00003026,-0.00153429,-0.00108468,-0.00654489,-0.00028437,0.0
 0039236,0.00397486,-0.00272474,0.00051687,-0.00009845,0.00388565,0.003
 88638,-0.00533897,-0.00367730,-0.00918863,-0.00029544,0.00003255,-0.00
 009315,-0.35828466,0.13872745,0.03887011,0.37615336,-0.00263097,-0.008
 67496,-0.00171362,-0.00028330,-0.00138427,-0.00062570,0.00036982,-0.00
 027436,0.00001623,0.00059923,-0.00004308,-0.00019218,0.00281149,-0.002
 91821,-0.00210302,0.00089577,0.00619902,0.00248471,-0.00006580,-0.0000
 2199,-0.00000411,-0.00051458,-0.00042995,-0.00042004,0.00003073,0.0000
 6387,0.00004748,-0.00310009,0.00188004,0.00088123,0.00006783,-0.000080
 27,0.00000169,0.00000469,-0.00169549,-0.00058988,-0.00009840,0.0001234
 5,-0.00001258,0.00159443,-0.00097298,-0.00006090,-0.00030160,0.0002674
 4,-0.00003779,-0.00045354,0.00047226,-0.00019480,0.00021663,-0.0005174
 3,0.00026737,-0.00033513,0.00000941,0.00014034,0.00004053,-0.00001957,
 -0.00001211,-0.00124313,-0.00041199,0.00028071,-0.00015900,0.00051455,
 -0.00002273,-0.00019714,0.00032165,0.00053646,-0.00078095,0.00166560,0
 .00187434,-0.00148234,-0.00089294,-0.00239962,0.00144271,-0.00211080,-
 0.00044455,-0.00324509,0.00334800,0.00097675,-0.00003068,0.00016327,0.
 00013217,0.17039578,-0.09293630,0.00003181,-0.14292365,0.09208881,-0.0
 0251483,-0.00147240,-0.00381998,0.00007227,-0.00034490,-0.00038132,0.0
 0013791,0.00013530,0.00070345,0.00033050,-0.00010457,0.00003398,0.0007
 4688,-0.00223840,-0.00171279,0.00097885,0.00249655,0.00094487,-0.00006
 916,-0.00000529,-0.00003533,-0.00074713,-0.00020381,-0.00028301,0.0000
 3498,-0.00000217,-0.00006134,0.00032625,0.00069941,0.00033683,0.000346
 35,0.00002022,-0.00040258,0.00006033,-0.00027492,0.00038513,-0.0001400
 8,0.00019603,-0.00009388,-0.00033734,-0.00055898,-0.00022508,-0.000163
 32,0.00008695,0.00008792,0.00005555,0.00015039,-0.00066564,-0.00003193
 ,0.00000077,0.00034901,-0.00020512,0.00013352,0.00001074,0.00005799,-0
 .00005853,0.00001453,-0.00064200,-0.00008323,0.00008406,0.00009106,0.0
 0008467,-0.00001452,0.00009070,-0.00025049,-0.00022422,0.00024737,0.00
 092577,-0.00033221,-0.00043015,-0.00146470,-0.00024792,0.00210469,-0.0
 0101231,-0.00153115,-0.00702738,0.00222863,0.00133945,0.00007998,0.000
 32351,0.00041750,-0.00788806,0.02108916,-0.04936325,-0.02818476,-0.003
 85204,0.05879099,-0.00096209,0.00114754,-0.00082558,-0.00012942,0.0000
 0499,-0.00000595,-0.00006368,0.00008449,0.00018208,-0.00008480,0.00006
 467,0.00005631,-0.00043072,0.00031423,0.00024103,-0.00018643,-0.000092
 48,0.00013769,-0.00000917,-0.00000004,-0.00001343,-0.00012449,0.000017
 75,-0.00005423,0.00002863,-0.00001399,-0.00002652,-0.00003599,-0.00020
 171,-0.00003970,0.00004947,-0.00000355,-0.00005983,-0.00002649,0.00000
 871,0.00013512,0.00000254,-0.00000787,-0.00003754,0.00004825,0.0001374
 2,-0.00004443,-0.00005458,-0.00005790,0.00002125,0.00013825,-0.0001955
 1,-0.00013513,-0.00003802,0.00021009,0.00004802,0.00011414,-0.00008056
 ,-0.00006816,-0.00003069,0.00002308,0.00001062,0.00013516,0.00002656,-
 0.00003787,-0.00004795,-0.00001416,0.00003178,0.00003174,-0.00004375,-
 0.00009812,0.00015929,-0.00041116,-0.00050345,0.00025705,0.00010920,0.
 00024082,-0.00136662,-0.00199246,-0.00103697,0.00291853,0.00386689,0.0
 0092281,0.00004166,-0.00043344,-0.00057123,-0.10747769,-0.03600918,0.1
 2693898,-0.01358622,-0.02062423,0.04261960,0.12073034,0.00056029,-0.00
 123001,-0.00006299,0.00003995,0.00005080,-0.00000980,0.00006076,-0.000
 08603,-0.00019152,0.00009501,0.00004641,-0.00003796,0.00110013,0.00084
 650,-0.00010234,0.00026290,0.00014947,0.00023027,-0.00001311,-0.000003
 22,-0.00000174,-0.00006517,0.00000241,-0.00005747,0.00000600,-0.000006
 68,-0.00002060,-0.00005953,0.00004679,-0.00010531,0.00005720,-0.000016
 18,-0.00005062,0.00019444,0.00014847,0.00024611,0.00000484,-0.00001988
 ,0.00003282,-0.00003488,-0.00018985,-0.00003129,-0.00006320,0.00006291
 ,0.00003546,-0.00020298,0.00005409,0.00011924,0.00018198,-0.00018310,-
 0.00001966,-0.00009726,-0.00001993,0.00003781,0.00000647,0.00000763,-0
 .00000123,-0.00010666,-0.00011843,-0.00001872,-0.00001053,0.00005189,0
 .00000931,-0.00011382,-0.00011840,0.00007115,-0.00120132,0.00015681,0.
 00085026,0.00024217,-0.00012925,-0.00080441,-0.00090089,-0.00194939,0.
 00001352,0.00222554,0.00253419,-0.00044892,-0.00028949,-0.00016441,-0.
 00072466,-0.06576887,-0.07920570,0.16878823,0.00972363,0.00626722,-0.0
 1664413,0.05416639,0.07301483,-0.00099662,0.00002409,0.00015691,0.0000
 1535,-0.00002630,-0.00003563,0.00000523,-0.00008141,0.00007769,0.00007
 576,0.00002125,-0.00000357,0.00063871,0.00027796,-0.00013728,0.0003547
 9,0.00027078,0.00028103,-0.00002582,-0.00000780,-0.00000864,-0.0000814
 2,-0.00003924,-0.00006873,0.00000883,0.00000015,-0.00002229,0.00000190
 ,-0.00002049,-0.00010718,0.00000267,0.00001058,-0.00001089,0.00025823,
 0.00024545,0.00005795,-0.00001057,0.00001065,-0.00001849,-0.00005089,-
 0.00012367,0.00000137,-0.00001698,0.00003122,0.00003069,-0.00006800,0.
 00005716,-0.00014258,0.00007759,-0.00007930,0.00013468,-0.00006655,0.0
 0001361,0.00000092,0.00000923,-0.00000924,0.00000615,-0.00012903,-0.00
 005493,-0.00000835,0.00001000,0.00002814,0.00000558,-0.00006395,-0.000
 02710,0.00005535,-0.00090262,0.00031417,0.00030474,0.00049364,-0.00043
 768,-0.00046888,-0.00119489,-0.00090762,0.00148572,0.00229187,0.002913
 99,-0.00309888,-0.00016237,-0.00045390,-0.00084545,0.17081081,0.144135
 92,-0.36770721,-0.00325692,0.00501438,-0.00410426,-0.16802799,-0.15110
 080,0.37418954\\-0.00017218,0.00038551,-0.00055816,0.00003959,-0.00000
 386,-0.00090332,0.00020857,-0.00028040,-0.00108705,-0.00021197,0.00029
 348,0.00108199,-0.00003375,-0.00006620,0.00093136,0.00015278,-0.000346
 18,0.00054332,-0.00000348,-0.00000004,0.00000492,0.00000379,-0.0000034
 1,-0.00000339,0.00000356,0.00000179,0.00000387,0.00000858,0.00000806,-
 0.00000502,0.00000014,-0.00000418,-0.00000144,-0.00000051,-0.00000202,
 -0.00000139,0.00000309,-0.00000138,0.00000276,0.,-0.00000498,0.0000045
 4,0.00000059,0.00000411,-0.00000297,0.00000363,0.00000004,-0.00000055,
 -0.00000022,0.00000605,-0.00000399,-0.00001068,0.00000391,0.00001432,-
 0.00000244,-0.00000235,0.00000356,0.00001017,0.00000802,0.00000882,0.0
 0000113,-0.00000240,-0.00000177,-0.00000569,-0.00000314,0.00000384,-0.
 00000894,-0.00000496,-0.00000260,0.00001513,0.00001261,-0.00000881,-0.
 00001292,-0.00000600,0.00000353,0.00001117,0.00000515,-0.00000714,-0.0
 0000395,0.00001183,-0.00000719,-0.00000842,-0.00003108,-0.00002240,0.0
 0000410,0.00001116,0.00001067,0.00000917,0.00001085,-0.00000031\\\@


 A SCIENTIST IS SOMEONE WHOSE CURIOSITY SURVIVES
 EDUCATION'S ASSAULTS ON IT.
                          - SIR HERMANN BONDI
 Job cpu time:       0 days  1 hours 33 minutes 15.2 seconds.
 File lengths (MBytes):  RWF=    334 Int=      0 D2E=      0 Chk=      7 Scr=      2
 Normal termination of Gaussian 09 at Wed Jan 18 21:48:56 2017.
