 Entering Gaussian System, Link 0=g09
 Initial command:
 /global/software/gaussian/g09.e01/l1.exe "/scratch/10461013.yak.local/Gau-27160.inp" -scrdir="/scratch/10461013.yak.local/"
 Entering Link 1 = /global/software/gaussian/g09.e01/l1.exe PID=     27161.
  
 Copyright (c) 1988,1990,1992,1993,1995,1998,2003,2009,2015,
            Gaussian, Inc.  All Rights Reserved.
  
 This is part of the Gaussian(R) 09 program.  It is based on
 the Gaussian(R) 03 system (copyright 2003, Gaussian, Inc.),
 the Gaussian(R) 98 system (copyright 1998, Gaussian, Inc.),
 the Gaussian(R) 94 system (copyright 1995, Gaussian, Inc.),
 the Gaussian 92(TM) system (copyright 1992, Gaussian, Inc.),
 the Gaussian 90(TM) system (copyright 1990, Gaussian, Inc.),
 the Gaussian 88(TM) system (copyright 1988, Gaussian, Inc.),
 the Gaussian 86(TM) system (copyright 1986, Carnegie Mellon
 University), and the Gaussian 82(TM) system (copyright 1983,
 Carnegie Mellon University). Gaussian is a federally registered
 trademark of Gaussian, Inc.
  
 This software contains proprietary and confidential information,
 including trade secrets, belonging to Gaussian, Inc.
  
 This software is provided under written license and may be
 used, copied, transmitted, or stored only in accord with that
 written license.
  
 The following legend is applicable only to US Government
 contracts under FAR:
  
                    RESTRICTED RIGHTS LEGEND
  
 Use, reproduction and disclosure by the US Government is
 subject to restrictions as set forth in subparagraphs (a)
 and (c) of the Commercial Computer Software - Restricted
 Rights clause in FAR 52.227-19.
  
 Gaussian, Inc.
 340 Quinnipiac St., Bldg. 40, Wallingford CT 06492
  
  
 ---------------------------------------------------------------
 Warning -- This program may not be used in any manner that
 competes with the business of Gaussian, Inc. or will provide
 assistance to any competitor of Gaussian, Inc.  The licensee
 of this program is prohibited from giving any competitor of
 Gaussian, Inc. access to this program.  By using this program,
 the user acknowledges that Gaussian, Inc. is engaged in the
 business of creating and licensing software in the field of
 computational chemistry and represents and warrants to the
 licensee that it is not a competitor of Gaussian, Inc. and that
 it will not use this program in any manner prohibited above.
 ---------------------------------------------------------------
  

 Cite this work as:
 Gaussian 09, Revision E.01,
 M. J. Frisch, G. W. Trucks, H. B. Schlegel, G. E. Scuseria, 
 M. A. Robb, J. R. Cheeseman, G. Scalmani, V. Barone, B. Mennucci, 
 G. A. Petersson, H. Nakatsuji, M. Caricato, X. Li, H. P. Hratchian, 
 A. F. Izmaylov, J. Bloino, G. Zheng, J. L. Sonnenberg, M. Hada, 
 M. Ehara, K. Toyota, R. Fukuda, J. Hasegawa, M. Ishida, T. Nakajima, 
 Y. Honda, O. Kitao, H. Nakai, T. Vreven, J. A. Montgomery, Jr., 
 J. E. Peralta, F. Ogliaro, M. Bearpark, J. J. Heyd, E. Brothers, 
 K. N. Kudin, V. N. Staroverov, T. Keith, R. Kobayashi, J. Normand, 
 K. Raghavachari, A. Rendell, J. C. Burant, S. S. Iyengar, J. Tomasi, 
 M. Cossi, N. Rega, J. M. Millam, M. Klene, J. E. Knox, J. B. Cross, 
 V. Bakken, C. Adamo, J. Jaramillo, R. Gomperts, R. E. Stratmann, 
 O. Yazyev, A. J. Austin, R. Cammi, C. Pomelli, J. W. Ochterski, 
 R. L. Martin, K. Morokuma, V. G. Zakrzewski, G. A. Voth, 
 P. Salvador, J. J. Dannenberg, S. Dapprich, A. D. Daniels, 
 O. Farkas, J. B. Foresman, J. V. Ortiz, J. Cioslowski, 
 and D. J. Fox, Gaussian, Inc., Wallingford CT, 2013.
 
 ******************************************
 Gaussian 09:  ES64L-G09RevE.01 30-Nov-2015
                13-Jan-2017 
 ******************************************
 -------------------------------------
 # b3lyp/6-31g(d) irc=(calcfc,forward)
 -------------------------------------
 1/10=4,14=-1,18=10,22=1,26=3,38=1,44=3/1,23;
 2/12=2,17=6,18=5,29=1,40=1/2;
 3/5=1,6=6,7=1,11=2,16=1,25=1,30=1,71=2,74=-5,140=1/1,2,3;
 4//1;
 5/5=2,38=5/2;
 8/6=4,10=90,11=11/1;
 11/6=1,8=1,9=11,15=111,16=1/1,2,10;
 10/6=1,13=1/2;
 6/7=2,8=2,9=2,10=2,28=1/1;
 7/10=1,18=20,25=1/1,2,3,16;
 1/10=4,14=-1,18=10,22=1,26=3,44=3/23(2);
 2/29=1/2;
 99/5=20/99;
 2/29=1/2;
 3/5=1,6=6,7=1,11=2,16=1,25=1,30=1,71=2,74=-5,140=1/1,2,3;
 4/5=5,16=3,69=1/1;
 5/5=2,38=5/2;
 8/6=4,10=90,11=11/1;
 11/6=1,8=1,9=11,15=111,16=1/1,2,10;
 10/6=1,13=1/2;
 7/10=1,18=20,25=1/1,2,3,16;
 1/14=-1,18=10,22=1,26=3,44=3/23(-8);
 2/29=1/2;
 6/7=2,8=2,9=2,10=2,19=2,28=1/1;
 99/5=20,9=1/99;
 ---------------------------------
 glo_2w_alpha_ts_boat4_B3LYP_631Gd
 ---------------------------------
 Symbolic Z-matrix:
 Charge =  0 Multiplicity = 1
 8                    -0.62648   0.32253   0.56067 
 6                     1.66692   0.18252  -0.24697 
 6                     0.25059  -1.93165  -0.1992 
 6                     1.58186  -1.27565   0.20637 
 6                    -0.87748  -0.93034  -0.51408 
 6                     0.60636   1.04602   0.45779 
 1                     1.6341   -1.29994   1.30564 
 1                     0.96943   1.21988   1.48165 
 1                     1.52097   0.22133  -1.33873 
 6                     0.40348   2.39579  -0.24666 
 1                     0.06921   2.23284  -1.27641 
 1                    -0.3662    2.99001   0.26353 
 1                     0.4364   -2.47663  -1.14175 
 8                     1.6375    3.12006  -0.34531 
 1                     1.83346   3.48931   0.53056 
 8                    -0.17931  -2.80812   0.81667 
 1                    -1.15529  -2.79016   0.74291 
 8                     2.6482   -2.01465  -0.36755 
 1                     3.44475  -1.47488  -0.22406 
 8                     2.97507   0.64627   0.07276 
 1                     3.02278   1.55641  -0.27221 
 1                    -0.72539  -0.39318  -1.46417 
 8                    -2.06575  -1.4001   -0.28771 
 8                    -3.77515   0.24144  -0.87662 
 1                    -3.05484  -0.58429  -0.71188 
 1                    -3.33542   1.00964   0.06745 
 1                    -4.66077  -0.10687  -0.68937 
 8                    -2.7006    1.54268   0.86343 
 1                    -1.67278   0.97555   0.75651 
 1                    -3.0587    1.30982   1.736 
 
 IRC-IRC-IRC-IRC-IRC-IRC-IRC-IRC-IRC-IRC-IRC-IRC-IRC-IRC-IRC-IRC-IRC-IRC
 ------------------------------------------------------------------------
 INPUT DATA FOR L123
 ------------------------------------------------------------------------
 GENERAL PARAMETERS:
 Rxn path following direction = Forward
 Maximum points per path      =  10
 Step size                    =   0.100 bohr
 Integration scheme           = HPC                                 
    Redo corrector integration= Yes                                 
    DWI Weight Power          =  2
    DWI will use Hessian update vectors when possible.
    Max correction cycles     =  20
 Initial Hessian              = CalcFC
 Hessian evaluation           = All updating
 Hessian updating method      = Bofill                              
 ------------------------------------------------------------------------
 IRC-IRC-IRC-IRC-IRC-IRC-IRC-IRC-IRC-IRC-IRC-IRC-IRC-IRC-IRC-IRC-IRC-IRC
                          Input orientation:                          
 ---------------------------------------------------------------------
 Center     Atomic      Atomic             Coordinates (Angstroms)
 Number     Number       Type             X           Y           Z
 ---------------------------------------------------------------------
      1          8           0       -0.626483    0.322533    0.560673
      2          6           0        1.666915    0.182524   -0.246974
      3          6           0        0.250591   -1.931647   -0.199200
      4          6           0        1.581864   -1.275651    0.206372
      5          6           0       -0.877477   -0.930342   -0.514080
      6          6           0        0.606356    1.046021    0.457788
      7          1           0        1.634100   -1.299941    1.305640
      8          1           0        0.969430    1.219879    1.481650
      9          1           0        1.520974    0.221329   -1.338733
     10          6           0        0.403475    2.395791   -0.246657
     11          1           0        0.069208    2.232835   -1.276409
     12          1           0       -0.366202    2.990012    0.263527
     13          1           0        0.436397   -2.476627   -1.141752
     14          8           0        1.637504    3.120060   -0.345309
     15          1           0        1.833457    3.489309    0.530561
     16          8           0       -0.179306   -2.808116    0.816674
     17          1           0       -1.155290   -2.790157    0.742909
     18          8           0        2.648198   -2.014648   -0.367545
     19          1           0        3.444748   -1.474879   -0.224059
     20          8           0        2.975070    0.646270    0.072755
     21          1           0        3.022784    1.556410   -0.272209
     22          1           0       -0.725394   -0.393184   -1.464169
     23          8           0       -2.065748   -1.400102   -0.287708
     24          8           0       -3.775146    0.241444   -0.876618
     25          1           0       -3.054838   -0.584288   -0.711876
     26          1           0       -3.335417    1.009644    0.067454
     27          1           0       -4.660765   -0.106871   -0.689372
     28          8           0       -2.700595    1.542682    0.863431
     29          1           0       -1.672784    0.975548    0.756512
     30          1           0       -3.058698    1.309824    1.735997
 ---------------------------------------------------------------------
                    Distance matrix (angstroms):
                    1          2          3          4          5
     1  O    0.000000
     2  C    2.435482   0.000000
     3  C    2.535349   2.545187   0.000000
     4  C    2.748912   1.529389   1.538541   0.000000
     5  C    1.669667   2.789937   1.540876   2.585855   0.000000
     6  C    1.433148   1.538539   3.069969   2.530808   2.655616
     7  H    2.880561   2.146949   2.139554   1.100776   3.123460
     8  H    2.049480   2.133244   3.643364   2.868637   3.466620
     9  H    2.868720   1.102153   2.747310   2.152210   2.785492
    10  C    2.451733   2.548496   4.330398   3.882438   3.574285
    11  H    2.740093   2.795743   4.305368   4.098322   3.388664
    12  H    2.696569   3.503736   4.981694   4.689788   4.029299
    13  H    3.444309   3.063639   1.104505   2.138195   2.123967
    14  O    3.711145   2.939329   5.240670   4.430544   4.770678
    15  H    4.010073   3.401047   5.694276   4.782598   5.289022
    16  O    3.172770   3.672030   1.408904   2.413014   2.405075
    17  H    3.162544   4.216817   1.897659   3.173895   2.261883
    18  O    4.128867   2.409361   2.404943   1.418649   3.691555
    19  H    4.519006   2.430679   3.226747   1.922316   4.366035
    20  O    3.648843   1.424274   3.760638   2.377532   4.203831
    21  H    3.941230   1.930435   4.456111   3.213388   4.631897
    22  H    2.149888   2.745204   2.218008   2.982096   1.101970
    23  O    2.399730   4.054521   2.378193   3.683025   1.297654
    24  O    3.462147   5.478682   4.624692   5.672037   3.146586
    25  H    2.887666   4.806151   3.606116   4.777046   2.213544
    26  H    2.837906   5.079992   4.645616   5.424161   3.184839
    27  H    4.245283   6.349724   5.262271   6.413955   3.875835
    28  O    2.425359   4.707247   4.680774   5.168576   3.367067
    29  H    1.248810   3.576236   3.614490   3.995408   2.424734
    30  H    2.876074   5.247323   5.020310   5.528042   3.852131
                    6          7          8          9         10
     6  C    0.000000
     7  H    2.697897   0.000000
     8  H    1.100156   2.611945   0.000000
     9  H    2.178103   3.052830   3.042345   0.000000
    10  C    1.535996   4.193149   2.165668   2.677633   0.000000
    11  H    2.168985   4.647190   3.073007   2.481464   1.094842
    12  H    2.182363   4.846742   2.530041   3.714065   1.098084
    13  H    3.872527   2.967964   4.564046   2.914460   4.954063
    14  O    2.451503   4.718268   2.719336   3.066449   1.434268
    15  H    2.735092   4.855657   2.607954   3.777777   1.960790
    16  O    3.949739   2.408759   4.241053   4.088309   5.343309
    17  H    4.230952   3.212181   4.597887   4.534829   5.504820
    18  O    3.770675   2.082966   4.086557   2.685784   4.950290
    19  H    3.856983   2.376769   4.037123   2.796520   4.922595
    20  O    2.432870   2.665698   2.517261   2.070572   3.126651
    21  H    2.575367   3.546377   2.721312   2.274939   2.750635
    22  H    2.745685   3.749835   3.761948   2.332280   3.245776
    23  O    3.698570   4.029599   4.382606   4.074097   4.528526
    24  O    4.650327   6.033080   5.387928   5.316281   4.743304
    25  H    4.174969   5.154481   4.925577   4.688286   4.588816
    26  H    3.961219   5.618130   4.536062   5.116966   3.999923
    27  H    5.512504   6.710351   6.178406   6.224410   5.666202
    28  O    3.368552   5.202464   3.735703   4.941371   3.405193
    29  H    2.299713   4.051527   2.750785   3.893455   2.708189
    30  H    3.890505   5.386876   4.037152   5.622471   4.134838
                   11         12         13         14         15
    11  H    0.000000
    12  H    1.770396   0.000000
    13  H    4.725674   5.701150   0.000000
    14  O    2.028218   2.098197   5.779263   0.000000
    15  H    2.820717   2.271366   6.351441   0.970511   0.000000
    16  O    5.463876   5.827451   2.079521   6.308270   6.617449
    17  H    5.550449   5.853445   2.486708   6.626808   6.957686
    18  O    5.051568   5.876349   2.388490   5.233280   5.635951
    19  H    5.123364   5.890359   3.300884   4.939058   5.273412
    20  O    3.575118   4.085783   4.203852   2.843149   3.097699
    21  H    3.192112   3.718528   4.869383   2.090298   2.407288
    22  H    2.750022   3.815753   2.407166   4.379271   5.059686
    23  O    4.328256   4.739770   2.854650   5.843737   6.307115
    24  O    4.347934   4.524981   5.019492   6.153495   6.632134
    25  H    4.244354   4.577750   3.994304   5.989544   6.483307
    26  H    3.859227   3.574429   5.276632   5.417949   5.751562
    27  H    5.309565   5.379774   5.639278   7.085172   7.523009
    28  O    3.567497   2.811412   5.478715   4.771612   4.945481
    29  H    2.957714   2.451174   4.468732   4.095235   4.320159
    30  H    4.439632   3.498676   5.902062   5.446384   5.489664
                   16         17         18         19         20
    16  O    0.000000
    17  H    0.978932   0.000000
    18  O    3.166504   4.037455   0.000000
    19  H    3.999302   4.881120   0.972847   0.000000
    20  O    4.736696   5.414611   2.716835   2.192708   0.000000
    21  H    5.521606   6.113870   3.591916   3.060896   0.974490
    22  H    3.366356   3.286561   3.900366   4.483082   4.139569
    23  O    2.600159   1.955341   4.754506   5.511371   5.452286
    24  O    5.009703   4.321703   6.827038   7.449729   6.828661
    25  H    3.943420   3.254311   5.889746   6.578430   6.204008
    26  H    5.009756   4.432570   6.718572   7.226927   6.320943
    27  H    5.445032   4.641100   7.560696   8.233305   7.710644
    28  O    5.028770   4.601737   6.540603   6.932067   5.800163
    29  H    4.068195   3.801121   5.373608   5.758059   4.709405
    30  H    5.108178   4.628070   6.931498   7.341063   6.293889
                   21         22         23         24         25
    21  H    0.000000
    22  H    4.389820   0.000000
    23  O    5.885097   2.048046   0.000000
    24  O    6.950273   3.170009   2.442034   0.000000
    25  H    6.458590   2.455356   1.350470   1.108069   0.000000
    26  H    6.390700   3.335568   2.746830   1.294127   1.796301
    27  H    7.872576   4.021123   2.927096   0.969900   1.675540
    28  O    5.834975   3.614792   3.223062   2.423974   2.670409
    29  H    4.841903   2.775320   2.624601   2.761512   2.549377
    30  H    6.409221   4.311103   3.524916   2.912128   3.095118
                   26         27         28         29         30
    26  H    0.000000
    27  H    1.891015   0.000000
    28  O    1.149221   2.995745   0.000000
    29  H    1.800087   3.491453   1.178757   0.000000
    30  H    1.717765   3.233583   0.971510   1.729708   0.000000
 Symmetry turned off by external request.
 Stoichiometry    C6H16O8
 Framework group  C1[X(C6H16O8)]
 Deg. of freedom    84
 Full point group                 C1      NOp   1
 Rotational constants (GHZ):      0.7169958      0.5300926      0.3328667
 Standard basis: 6-31G(d) (6D, 7F)
   242 basis functions,   456 primitive gaussians,   242 cartesian basis functions
    58 alpha electrons       58 beta electrons
       nuclear repulsion energy      1103.6035990466 Hartrees.
 NAtoms=   30 NActive=   30 NUniq=   30 SFac= 1.00D+00 NAtFMM=   60 NAOKFM=F Big=F
 Integral buffers will be    131072 words long.
 Raffenetti 2 integral format.
 Two-electron integral symmetry is turned off.
 One-electron integrals computed using PRISM.
 NBasis=   242 RedAO= T EigKep=  1.36D-03  NBF=   242
 NBsUse=   242 1.00D-06 EigRej= -1.00D+00 NBFU=   242
 ExpMin= 1.61D-01 ExpMax= 5.48D+03 ExpMxC= 8.25D+02 IAcc=1 IRadAn=         1 AccDes= 0.00D+00
 Harris functional with IExCor=  402 and IRadAn=       1 diagonalized for initial guess.
 HarFok:  IExCor=  402 AccDes= 0.00D+00 IRadAn=         1 IDoV= 1 UseB2=F ITyADJ=14
 ICtDFT=  3500011 ScaDFX=  1.000000  1.000000  1.000000  1.000000
 FoFCou: FMM=F IPFlag=           0 FMFlag=      100000 FMFlg1=           0
         NFxFlg=           0 DoJE=T BraDBF=F KetDBF=T FulRan=T
         wScrn=  0.000000 ICntrl=     500 IOpCl=  0 I1Cent=   200000004 NGrid=           0
         NMat0=    1 NMatS0=      1 NMatT0=    0 NMatD0=    1 NMtDS0=    0 NMtDT0=    0
 Symmetry not used in FoFCou.
 Requested convergence on RMS density matrix=1.00D-08 within 128 cycles.
 Requested convergence on MAX density matrix=1.00D-06.
 Requested convergence on             energy=1.00D-06.
 No special actions if energy rises.
 Integral accuracy reduced to 1.0D-05 until final iterations.
 Initial convergence to 1.0D-05 achieved.  Increase integral accuracy.
 SCF Done:  E(RB3LYP) =  -839.961546095     A.U. after   14 cycles
            NFock= 14  Conv=0.65D-08     -V/T= 2.0086
 DoSCS=F DFT=T ScalE2(SS,OS)=  1.000000  1.000000
 Range of M.O.s used for correlation:     1   242
 NBasis=   242 NAE=    58 NBE=    58 NFC=     0 NFV=     0
 NROrb=    242 NOA=    58 NOB=    58 NVA=   184 NVB=   184
 Symmetrizing basis deriv contribution to polar:
 IMax=3 JMax=2 DiffMx= 0.00D+00
 G2DrvN: will do    31 centers at a time, making    1 passes.
 Calling FoFCou, ICntrl=  3107 FMM=F I1Cent=   0 AccDes= 0.00D+00.
 End of G2Drv F.D. properties file   721 does not exist.
 End of G2Drv F.D. properties file   722 does not exist.
 End of G2Drv F.D. properties file   788 does not exist.
          IDoAtm=111111111111111111111111111111
          Differentiating once with respect to nuclear coordinates.
          There are    93 degrees of freedom in the 1st order CPHF.  IDoFFX=6 NUNeed=     0.
     87 vectors produced by pass  0 Test12= 1.15D-14 1.08D-09 XBig12= 1.14D-01 6.98D-02.
 AX will form    87 AO Fock derivatives at one time.
     87 vectors produced by pass  1 Test12= 1.15D-14 1.08D-09 XBig12= 1.17D-02 1.16D-02.
     87 vectors produced by pass  2 Test12= 1.15D-14 1.08D-09 XBig12= 1.28D-04 2.07D-03.
     87 vectors produced by pass  3 Test12= 1.15D-14 1.08D-09 XBig12= 3.09D-07 5.63D-05.
     87 vectors produced by pass  4 Test12= 1.15D-14 1.08D-09 XBig12= 4.19D-10 1.94D-06.
     67 vectors produced by pass  5 Test12= 1.15D-14 1.08D-09 XBig12= 3.48D-13 6.70D-08.
      3 vectors produced by pass  6 Test12= 1.15D-14 1.08D-09 XBig12= 2.84D-16 1.58D-09.
 InvSVY:  IOpt=1 It=  1 EMax= 4.44D-16
 Solved reduced A of dimension   505 with    93 vectors.
 End of Minotr F.D. properties file   721 does not exist.
 End of Minotr F.D. properties file   722 does not exist.
 End of Minotr F.D. properties file   788 does not exist.

 **********************************************************************

            Population analysis using the SCF density.

 **********************************************************************

 Alpha  occ. eigenvalues --  -19.18919 -19.18105 -19.17339 -19.16247 -19.15132
 Alpha  occ. eigenvalues --  -19.12817 -19.11675 -19.11349 -10.28421 -10.25274
 Alpha  occ. eigenvalues --  -10.25249 -10.24076 -10.22559 -10.22309  -1.06603
 Alpha  occ. eigenvalues --   -1.05095  -1.03668  -1.02815  -1.01758  -1.00393
 Alpha  occ. eigenvalues --   -0.99409  -0.97369  -0.77821  -0.75169  -0.68746
 Alpha  occ. eigenvalues --   -0.63560  -0.62505  -0.57480  -0.55864  -0.55277
 Alpha  occ. eigenvalues --   -0.53729  -0.53385  -0.52576  -0.50385  -0.49534
 Alpha  occ. eigenvalues --   -0.48782  -0.46031  -0.45397  -0.44326  -0.42922
 Alpha  occ. eigenvalues --   -0.41397  -0.41127  -0.39859  -0.38928  -0.37331
 Alpha  occ. eigenvalues --   -0.37015  -0.36311  -0.34655  -0.33106  -0.32767
 Alpha  occ. eigenvalues --   -0.32379  -0.30810  -0.29080  -0.27747  -0.26900
 Alpha  occ. eigenvalues --   -0.25948  -0.25632  -0.23590
 Alpha virt. eigenvalues --    0.03413   0.04302   0.06894   0.08228   0.08481
 Alpha virt. eigenvalues --    0.09294   0.11470   0.12767   0.13613   0.14624
 Alpha virt. eigenvalues --    0.15795   0.16461   0.17206   0.18277   0.19270
 Alpha virt. eigenvalues --    0.19662   0.21061   0.23308   0.24510   0.25120
 Alpha virt. eigenvalues --    0.25662   0.26567   0.28238   0.30304   0.30499
 Alpha virt. eigenvalues --    0.32766   0.34127   0.39286   0.51082   0.52285
 Alpha virt. eigenvalues --    0.53466   0.55534   0.57052   0.58068   0.60692
 Alpha virt. eigenvalues --    0.61194   0.62130   0.63717   0.64858   0.65798
 Alpha virt. eigenvalues --    0.67307   0.68669   0.72040   0.72847   0.73408
 Alpha virt. eigenvalues --    0.75293   0.76515   0.77375   0.77930   0.79973
 Alpha virt. eigenvalues --    0.80343   0.80814   0.83552   0.83899   0.84724
 Alpha virt. eigenvalues --    0.85557   0.85873   0.87217   0.88000   0.89837
 Alpha virt. eigenvalues --    0.90278   0.91532   0.92843   0.93878   0.94607
 Alpha virt. eigenvalues --    0.96923   0.97098   1.00297   1.00611   1.02455
 Alpha virt. eigenvalues --    1.03773   1.05272   1.06425   1.08107   1.08877
 Alpha virt. eigenvalues --    1.09648   1.11046   1.14002   1.15437   1.16843
 Alpha virt. eigenvalues --    1.18558   1.20349   1.21413   1.26815   1.28017
 Alpha virt. eigenvalues --    1.29782   1.31614   1.33418   1.37134   1.40477
 Alpha virt. eigenvalues --    1.43331   1.46460   1.47004   1.50378   1.52349
 Alpha virt. eigenvalues --    1.53396   1.55107   1.56820   1.59466   1.59809
 Alpha virt. eigenvalues --    1.61242   1.65248   1.67131   1.68531   1.69849
 Alpha virt. eigenvalues --    1.70028   1.70800   1.72153   1.72413   1.73786
 Alpha virt. eigenvalues --    1.74773   1.75757   1.76649   1.77681   1.79879
 Alpha virt. eigenvalues --    1.80178   1.82696   1.84094   1.85453   1.86460
 Alpha virt. eigenvalues --    1.89346   1.90893   1.91783   1.93892   1.95376
 Alpha virt. eigenvalues --    1.97006   1.99892   2.01639   2.04003   2.04189
 Alpha virt. eigenvalues --    2.07732   2.10073   2.11175   2.12640   2.15635
 Alpha virt. eigenvalues --    2.20728   2.22925   2.25021   2.27945   2.29434
 Alpha virt. eigenvalues --    2.31173   2.32905   2.35977   2.39394   2.40569
 Alpha virt. eigenvalues --    2.41476   2.45854   2.48484   2.49767   2.50869
 Alpha virt. eigenvalues --    2.53097   2.54443   2.56906   2.59238   2.61602
 Alpha virt. eigenvalues --    2.61729   2.65669   2.67697   2.71947   2.75336
 Alpha virt. eigenvalues --    2.77834   2.81574   2.82783   2.85904   2.91360
 Alpha virt. eigenvalues --    2.94431   2.96796   2.98086   3.01574   3.08827
 Alpha virt. eigenvalues --    3.73053   3.74976   3.80791   3.84845   3.88479
 Alpha virt. eigenvalues --    3.95012   4.06579   4.19501   4.24542   4.38006
 Alpha virt. eigenvalues --    4.45678   4.48046   4.66057   4.82096
          Condensed to atoms (all electrons):
               1          2          3          4          5          6
     1  O    8.651523  -0.025635  -0.023734  -0.000156   0.055605   0.120015
     2  C   -0.025635   5.002770  -0.024022   0.318135  -0.000741   0.288924
     3  C   -0.023734  -0.024022   4.980000   0.311362   0.284818  -0.010978
     4  C   -0.000156   0.318135   0.311362   4.914307  -0.031882  -0.033847
     5  C    0.055605  -0.000741   0.284818  -0.031882   4.761446  -0.010007
     6  C    0.120015   0.288924  -0.010978  -0.033847  -0.010007   5.046337
     7  H    0.001061  -0.054128  -0.049416   0.346528   0.001189  -0.001394
     8  H   -0.032485  -0.045173   0.000099  -0.007986   0.001547   0.352600
     9  H    0.002275   0.345267  -0.005529  -0.045271  -0.000014  -0.056240
    10  C   -0.025846  -0.032861  -0.000174   0.003911  -0.001779   0.327795
    11  H    0.003326  -0.009908   0.000006  -0.000075   0.000758  -0.040691
    12  H    0.001531   0.004971  -0.000007  -0.000095  -0.000064  -0.044112
    13  H    0.002616  -0.000165   0.339441  -0.056030  -0.045196   0.000841
    14  O    0.001542   0.001526  -0.000001   0.000089   0.000041  -0.040033
    15  H    0.000012  -0.001750   0.000001  -0.000009  -0.000001  -0.001127
    16  O   -0.000350   0.002280   0.256881  -0.045817  -0.020181   0.000627
    17  H    0.000863  -0.000349  -0.049135   0.006826  -0.017982   0.000005
    18  O    0.000018  -0.032529  -0.036125   0.233264   0.001801   0.003559
    19  H   -0.000009  -0.014038   0.006456  -0.030369  -0.000260   0.000816
    20  O    0.001402   0.222428   0.002250  -0.037358   0.000219  -0.041287
    21  H    0.000029  -0.021494  -0.000201   0.005259   0.000003  -0.004870
    22  H   -0.054709  -0.003154  -0.073590   0.001551   0.351374   0.007271
    23  O   -0.048828   0.000174  -0.043493   0.001997   0.335991   0.001946
    24  O   -0.000837   0.000000  -0.000169   0.000001   0.008343   0.000011
    25  H    0.002592   0.000010   0.002571  -0.000033  -0.016049  -0.000155
    26  H    0.004760   0.000009   0.000070  -0.000003  -0.000439  -0.000179
    27  H    0.000012  -0.000000   0.000001  -0.000000  -0.000292   0.000001
    28  O   -0.094779  -0.000076  -0.000051   0.000004   0.002981   0.004047
    29  H    0.104236   0.001652   0.000641   0.000000  -0.001202  -0.005730
    30  H    0.004465   0.000004   0.000002  -0.000000  -0.000173  -0.000047
               7          8          9         10         11         12
     1  O    0.001061  -0.032485   0.002275  -0.025846   0.003326   0.001531
     2  C   -0.054128  -0.045173   0.345267  -0.032861  -0.009908   0.004971
     3  C   -0.049416   0.000099  -0.005529  -0.000174   0.000006  -0.000007
     4  C    0.346528  -0.007986  -0.045271   0.003911  -0.000075  -0.000095
     5  C    0.001189   0.001547  -0.000014  -0.001779   0.000758  -0.000064
     6  C   -0.001394   0.352600  -0.056240   0.327795  -0.040691  -0.044112
     7  H    0.635139   0.005004   0.007830   0.000003   0.000002   0.000008
     8  H    0.005004   0.631742   0.007451  -0.058220   0.005902  -0.004893
     9  H    0.007830   0.007451   0.662075  -0.008392   0.005350   0.000089
    10  C    0.000003  -0.058220  -0.008392   4.963973   0.370531   0.363025
    11  H    0.000002   0.005902   0.005350   0.370531   0.563016  -0.036795
    12  H    0.000008  -0.004893   0.000089   0.363025  -0.036795   0.588889
    13  H    0.006957   0.000012   0.002694   0.000016  -0.000005  -0.000000
    14  O   -0.000011   0.002232   0.000119   0.219580  -0.033800  -0.026574
    15  H    0.000001   0.004724   0.000155  -0.029233   0.006854  -0.008279
    16  O    0.005537   0.000010  -0.000019  -0.000002   0.000000  -0.000000
    17  H   -0.000090   0.000007   0.000012  -0.000001   0.000000   0.000000
    18  O   -0.039811  -0.000074   0.001986  -0.000054  -0.000002   0.000000
    19  H   -0.001951   0.000026   0.000053  -0.000015   0.000000   0.000000
    20  O   -0.001615   0.004976  -0.040858  -0.000125   0.000081  -0.000217
    21  H   -0.000236  -0.000266  -0.004478  -0.004196  -0.000064   0.000450
    22  H   -0.000017  -0.000338   0.001578   0.000093   0.001162  -0.000015
    23  O   -0.000081  -0.000077   0.000037  -0.000018  -0.000037   0.000005
    24  O   -0.000000   0.000000   0.000000  -0.000015   0.000010   0.000013
    25  H    0.000001   0.000004  -0.000001   0.000009  -0.000005  -0.000009
    26  H    0.000000   0.000003  -0.000000   0.000040   0.000029   0.000146
    27  H    0.000000  -0.000000   0.000000   0.000000  -0.000000  -0.000000
    28  O    0.000001   0.000065   0.000005  -0.000774   0.000052   0.004131
    29  H   -0.000052  -0.001548  -0.000142  -0.001097  -0.000526   0.002657
    30  H   -0.000000   0.000016  -0.000000  -0.000038   0.000002  -0.000007
              13         14         15         16         17         18
     1  O    0.002616   0.001542   0.000012  -0.000350   0.000863   0.000018
     2  C   -0.000165   0.001526  -0.001750   0.002280  -0.000349  -0.032529
     3  C    0.339441  -0.000001   0.000001   0.256881  -0.049135  -0.036125
     4  C   -0.056030   0.000089  -0.000009  -0.045817   0.006826   0.233264
     5  C   -0.045196   0.000041  -0.000001  -0.020181  -0.017982   0.001801
     6  C    0.000841  -0.040033  -0.001127   0.000627   0.000005   0.003559
     7  H    0.006957  -0.000011   0.000001   0.005537  -0.000090  -0.039811
     8  H    0.000012   0.002232   0.004724   0.000010   0.000007  -0.000074
     9  H    0.002694   0.000119   0.000155  -0.000019   0.000012   0.001986
    10  C    0.000016   0.219580  -0.029233  -0.000002  -0.000001  -0.000054
    11  H   -0.000005  -0.033800   0.006854   0.000000   0.000000  -0.000002
    12  H   -0.000000  -0.026574  -0.008279  -0.000000   0.000000   0.000000
    13  H    0.639098  -0.000000  -0.000000  -0.039095   0.002212   0.003701
    14  O   -0.000000   8.227956   0.235074   0.000000  -0.000000  -0.000000
    15  H   -0.000000   0.235074   0.390311  -0.000000  -0.000000   0.000000
    16  O   -0.039095   0.000000  -0.000000   8.283352   0.228878   0.001058
    17  H    0.002212  -0.000000  -0.000000   0.228878   0.367987  -0.000152
    18  O    0.003701  -0.000000   0.000000   0.001058  -0.000152   8.284209
    19  H   -0.000228   0.000006  -0.000001  -0.000154   0.000016   0.233961
    20  O   -0.000141  -0.011916   0.002006  -0.000009   0.000001  -0.007379
    21  H    0.000009   0.042407  -0.002268   0.000001  -0.000000   0.000121
    22  H    0.003724  -0.000029  -0.000001   0.003014   0.002437  -0.000020
    23  O   -0.001647   0.000000  -0.000000  -0.022222   0.051566  -0.000009
    24  O    0.000002   0.000000  -0.000000  -0.000002   0.000089  -0.000000
    25  H   -0.000133  -0.000000   0.000000   0.000075  -0.000543   0.000000
    26  H   -0.000001   0.000000   0.000000  -0.000000  -0.000013   0.000000
    27  H   -0.000000  -0.000000  -0.000000   0.000001  -0.000014   0.000000
    28  O    0.000001   0.000007   0.000001   0.000001   0.000004   0.000000
    29  H   -0.000047  -0.000029  -0.000018  -0.000050  -0.000016   0.000001
    30  H   -0.000000  -0.000000  -0.000000  -0.000000   0.000001   0.000000
              19         20         21         22         23         24
     1  O   -0.000009   0.001402   0.000029  -0.054709  -0.048828  -0.000837
     2  C   -0.014038   0.222428  -0.021494  -0.003154   0.000174   0.000000
     3  C    0.006456   0.002250  -0.000201  -0.073590  -0.043493  -0.000169
     4  C   -0.030369  -0.037358   0.005259   0.001551   0.001997   0.000001
     5  C   -0.000260   0.000219   0.000003   0.351374   0.335991   0.008343
     6  C    0.000816  -0.041287  -0.004870   0.007271   0.001946   0.000011
     7  H   -0.001951  -0.001615  -0.000236  -0.000017  -0.000081  -0.000000
     8  H    0.000026   0.004976  -0.000266  -0.000338  -0.000077   0.000000
     9  H    0.000053  -0.040858  -0.004478   0.001578   0.000037   0.000000
    10  C   -0.000015  -0.000125  -0.004196   0.000093  -0.000018  -0.000015
    11  H    0.000000   0.000081  -0.000064   0.001162  -0.000037   0.000010
    12  H    0.000000  -0.000217   0.000450  -0.000015   0.000005   0.000013
    13  H   -0.000228  -0.000141   0.000009   0.003724  -0.001647   0.000002
    14  O    0.000006  -0.011916   0.042407  -0.000029   0.000000   0.000000
    15  H   -0.000001   0.002006  -0.002268  -0.000001  -0.000000  -0.000000
    16  O   -0.000154  -0.000009   0.000001   0.003014  -0.022222  -0.000002
    17  H    0.000016   0.000001  -0.000000   0.002437   0.051566   0.000089
    18  O    0.233961  -0.007379   0.000121  -0.000020  -0.000009  -0.000000
    19  H    0.374265   0.024982  -0.000543   0.000009   0.000001   0.000000
    20  O    0.024982   8.327953   0.223356   0.000005  -0.000000   0.000000
    21  H   -0.000543   0.223356   0.355854  -0.000007  -0.000000  -0.000000
    22  H    0.000009   0.000005  -0.000007   0.699839  -0.052957   0.002282
    23  O    0.000001  -0.000000  -0.000000  -0.052957   8.405801  -0.089061
    24  O    0.000000   0.000000  -0.000000   0.002282  -0.089061   8.500097
    25  H   -0.000000  -0.000000   0.000000  -0.005933   0.124605   0.136055
    26  H   -0.000000  -0.000000   0.000000  -0.000178   0.005630   0.136332
    27  H   -0.000000  -0.000000  -0.000000  -0.000080   0.004296   0.230166
    28  O   -0.000000   0.000000  -0.000000  -0.000234  -0.002364  -0.098358
    29  H    0.000000  -0.000014   0.000003   0.001353   0.007057   0.004194
    30  H    0.000000  -0.000000   0.000000   0.000014   0.000410   0.004652
              25         26         27         28         29         30
     1  O    0.002592   0.004760   0.000012  -0.094779   0.104236   0.004465
     2  C    0.000010   0.000009  -0.000000  -0.000076   0.001652   0.000004
     3  C    0.002571   0.000070   0.000001  -0.000051   0.000641   0.000002
     4  C   -0.000033  -0.000003  -0.000000   0.000004   0.000000  -0.000000
     5  C   -0.016049  -0.000439  -0.000292   0.002981  -0.001202  -0.000173
     6  C   -0.000155  -0.000179   0.000001   0.004047  -0.005730  -0.000047
     7  H    0.000001   0.000000   0.000000   0.000001  -0.000052  -0.000000
     8  H    0.000004   0.000003  -0.000000   0.000065  -0.001548   0.000016
     9  H   -0.000001  -0.000000   0.000000   0.000005  -0.000142  -0.000000
    10  C    0.000009   0.000040   0.000000  -0.000774  -0.001097  -0.000038
    11  H   -0.000005   0.000029  -0.000000   0.000052  -0.000526   0.000002
    12  H   -0.000009   0.000146  -0.000000   0.004131   0.002657  -0.000007
    13  H   -0.000133  -0.000001  -0.000000   0.000001  -0.000047  -0.000000
    14  O   -0.000000   0.000000  -0.000000   0.000007  -0.000029  -0.000000
    15  H    0.000000   0.000000  -0.000000   0.000001  -0.000018  -0.000000
    16  O    0.000075  -0.000000   0.000001   0.000001  -0.000050  -0.000000
    17  H   -0.000543  -0.000013  -0.000014   0.000004  -0.000016   0.000001
    18  O    0.000000   0.000000   0.000000   0.000000   0.000001   0.000000
    19  H   -0.000000  -0.000000  -0.000000  -0.000000   0.000000   0.000000
    20  O   -0.000000  -0.000000  -0.000000   0.000000  -0.000014  -0.000000
    21  H    0.000000   0.000000  -0.000000  -0.000000   0.000003   0.000000
    22  H   -0.005933  -0.000178  -0.000080  -0.000234   0.001353   0.000014
    23  O    0.124605   0.005630   0.004296  -0.002364   0.007057   0.000410
    24  O    0.136055   0.136332   0.230166  -0.098358   0.004194   0.004652
    25  H    0.306267  -0.013288  -0.004005   0.008142  -0.000726  -0.000336
    26  H   -0.013288   0.292297  -0.004818   0.129975  -0.007285  -0.004432
    27  H   -0.004005  -0.004818   0.367596   0.004080  -0.000120  -0.000276
    28  O    0.008142   0.129975   0.004080   8.495527   0.136210   0.231526
    29  H   -0.000726  -0.007285  -0.000120   0.136210   0.282367  -0.005002
    30  H   -0.000336  -0.004432  -0.000276   0.231526  -0.005002   0.356298
 Mulliken charges:
               1
     1  O   -0.650514
     2  C    0.077872
     3  C    0.132025
     4  C    0.145697
     5  C    0.340142
     6  C    0.135899
     7  H    0.139544
     8  H    0.134641
     9  H    0.123966
    10  C   -0.086139
    11  H    0.164827
    12  H    0.155153
    13  H    0.141362
    14  O   -0.618183
    15  H    0.403548
    16  O   -0.653812
    17  H    0.407392
    18  O   -0.647524
    19  H    0.406976
    20  O   -0.668743
    21  H    0.411130
    22  H    0.115554
    23  O   -0.678718
    24  O   -0.833807
    25  H    0.460884
    26  H    0.461345
    27  H    0.403452
    28  O   -0.820123
    29  H    0.483232
    30  H    0.412923
 Sum of Mulliken charges =  -0.00000
 Mulliken charges with hydrogens summed into heavy atoms:
               1
     1  O   -0.650514
     2  C    0.201838
     3  C    0.273387
     4  C    0.285241
     5  C    0.455696
     6  C    0.270540
    10  C    0.233841
    14  O   -0.214635
    16  O   -0.246420
    18  O   -0.240548
    20  O   -0.257612
    23  O   -0.678718
    24  O    0.030528
    28  O    0.537377
 APT charges:
               1
     1  O   -0.393617
     2  C   -0.144527
     3  C   -0.345805
     4  C   -0.197420
     5  C   -0.175883
     6  C   -0.267419
     7  H    0.344770
     8  H    0.389494
     9  H    0.300252
    10  C   -0.566717
    11  H    0.316370
    12  H    0.448661
    13  H    0.453330
    14  O   -0.863231
    15  H    0.741032
    16  O   -0.620199
    17  H    0.529100
    18  O   -0.790442
    19  H    0.682875
    20  O   -0.808458
    21  H    0.621584
    22  H    0.283621
    23  O   -0.405392
    24  O   -1.350821
    25  H    0.323362
    26  H    0.404160
    27  H    1.012365
    28  O   -1.080823
    29  H    0.396725
    30  H    0.763053
 Sum of APT charges =  -0.00000
 APT charges with hydrogens summed into heavy atoms:
               1
     1  O   -0.393617
     2  C    0.155725
     3  C    0.107525
     4  C    0.147350
     5  C    0.107738
     6  C    0.122075
    10  C    0.198315
    14  O   -0.122198
    16  O   -0.091100
    18  O   -0.107568
    20  O   -0.186874
    23  O   -0.405392
    24  O   -0.015094
    28  O    0.483115
 Electronic spatial extent (au):  <R**2>=           3294.0348
 Charge=             -0.0000 electrons
 Dipole moment (field-independent basis, Debye):
    X=             -3.2270    Y=              5.0694    Z=              1.8353  Tot=              6.2834
 Quadrupole moment (field-independent basis, Debye-Ang):
   XX=            -70.3683   YY=            -92.9949   ZZ=            -81.4562
   XY=              7.4574   XZ=             -4.9683   YZ=              8.3154
 Traceless Quadrupole moment (field-independent basis, Debye-Ang):
   XX=             11.2381   YY=            -11.3884   ZZ=              0.1503
   XY=              7.4574   XZ=             -4.9683   YZ=              8.3154
 Octapole moment (field-independent basis, Debye-Ang**2):
  XXX=            -97.7086  YYY=             47.7666  ZZZ=             12.4897  XYY=             -4.6902
  XXY=              5.0551  XXZ=             27.8315  XZZ=            -11.0293  YZZ=              9.6674
  YYZ=             15.3755  XYZ=              0.1106
 Hexadecapole moment (field-independent basis, Debye-Ang**3):
 XXXX=          -1492.7437 YYYY=          -1602.3893 ZZZZ=           -236.3796 XXXY=             54.4550
 XXXZ=            -70.5186 YYYX=            102.0143 YYYZ=             85.5391 ZZZX=            -37.7019
 ZZZY=             15.4685 XXYY=           -605.6211 XXZZ=           -363.5396 YYZZ=           -295.9982
 XXYZ=             27.7739 YYXZ=             29.9801 ZZXY=             -1.4600
 N-N= 1.103603599047D+03 E-N=-4.179901064081D+03  KE= 8.328148055675D+02
  Exact polarizability:   0.000   0.000   0.000   0.000   0.000   0.000
 Approx polarizability: 151.179   6.922 132.303   1.322   4.358 121.851
 Calling FoFJK, ICntrl=    100147 FMM=F ISym2X=0 I1Cent= 0 IOpClX= 0 NMat=1 NMatS=1 NMatT=0.
 -------------------------------------------------------------------
 Center     Atomic                   Forces (Hartrees/Bohr)
 Number     Number              X              Y              Z
 -------------------------------------------------------------------
      1        8          -0.000000687   -0.000000057   -0.000000959
      2        6          -0.000000074    0.000001293    0.000002527
      3        6           0.000002106   -0.000000069    0.000001086
      4        6           0.000000336    0.000000210    0.000002848
      5        6           0.000001185   -0.000000945   -0.000000463
      6        6          -0.000001041    0.000000195   -0.000000068
      7        1          -0.000000301    0.000000729    0.000000466
      8        1          -0.000001014    0.000000552    0.000000373
      9        1           0.000000625    0.000000257    0.000000386
     10        6          -0.000000919    0.000000050   -0.000000284
     11        1          -0.000000085   -0.000000195   -0.000000537
     12        1          -0.000001096    0.000000170   -0.000000635
     13        1           0.000001045    0.000000104    0.000001357
     14        8          -0.000001768    0.000001395    0.000001175
     15        1          -0.000001310    0.000000287   -0.000000335
     16        8           0.000000906    0.000001068    0.000000611
     17        1           0.000000888   -0.000000197   -0.000000116
     18        8           0.000001625    0.000002116    0.000004768
     19        1           0.000000557    0.000000898    0.000001933
     20        8          -0.000000555    0.000002778    0.000003496
     21        1          -0.000000269    0.000000329    0.000001368
     22        1           0.000000750   -0.000000533   -0.000000134
     23        8           0.000001681   -0.000002059   -0.000001853
     24        8           0.000010229    0.000001693   -0.000008532
     25        1           0.000001310   -0.000000978   -0.000000991
     26        1           0.000000058   -0.000000811   -0.000001246
     27        1          -0.000010001   -0.000005673    0.000001119
     28        8          -0.000005538   -0.000003402    0.000003222
     29        1          -0.000000742   -0.000000074   -0.000000749
     30        1           0.000002098    0.000000867   -0.000009832
 -------------------------------------------------------------------
 Cartesian Forces:  Max     0.000010229 RMS     0.000002562
 IRC-IRC-IRC-IRC-IRC-IRC-IRC-IRC-IRC-IRC-IRC-IRC-IRC-IRC-IRC-IRC-IRC-IRC
          ******** Start new reaction path calculation ********
 Supplied step size of   0.1000 bohr.
    Integration on MW PES will use step size of   0.1070 sqrt(amu)*bohr.
 Point Number:   0          Path Number:   1
 Calculating another point on the path.
 IRC-IRC-IRC-IRC-IRC-IRC-IRC-IRC-IRC-IRC-IRC-IRC-IRC-IRC-IRC-IRC-IRC-IRC
                          Input orientation:                          
 ---------------------------------------------------------------------
 Center     Atomic      Atomic             Coordinates (Angstroms)
 Number     Number       Type             X           Y           Z
 ---------------------------------------------------------------------
      1          8           0       -0.649461    0.347949    0.558293
      2          6           0        1.643622    0.209639   -0.248011
      3          6           0        0.226841   -1.904666   -0.200556
      4          6           0        1.558363   -1.248602    0.205248
      5          6           0       -0.899090   -0.900300   -0.513484
      6          6           0        0.582550    1.072022    0.456297
      7          1           0        1.610464   -1.273012    1.304499
      8          1           0        0.945247    1.246287    1.480453
      9          1           0        1.497768    0.248193   -1.339902
     10          6           0        0.380003    2.422550   -0.247696
     11          1           0        0.045761    2.259926   -1.277537
     12          1           0       -0.389605    3.016814    0.262606
     13          1           0        0.412751   -2.450168   -1.142697
     14          8           0        1.614066    3.147098   -0.346384
     15          1           0        1.810045    3.515972    0.529619
     16          8           0       -0.202841   -2.781156    0.815669
     17          1           0       -1.178548   -2.764538    0.742515
     18          8           0        2.624727   -1.987713   -0.368606
     19          1           0        3.421094   -1.447629   -0.225271
     20          8           0        2.951808    0.673205    0.071639
     21          1           0        2.999108    1.583483   -0.272978
     22          1           0       -0.748639   -0.367742   -1.465974
     23          8           0       -2.090915   -1.372221   -0.289157
     24          8           0       -3.797207    0.269097   -0.876184
     25          1           0       -3.060004   -0.570217   -0.705752
     26          1           0       -3.372621    1.018494    0.043242
     27          1           0       -4.683411   -0.077572   -0.687309
     28          8           0       -2.723904    1.569240    0.862208
     29          1           0       -1.725312    1.018444    0.761607
     30          1           0       -3.080487    1.337617    1.735838
 ---------------------------------------------------------------------
                    Distance matrix (angstroms):
                    1          2          3          4          5
     1  O    0.000000
     2  C    2.434644   0.000000
     3  C    2.533384   2.545547   0.000000
     4  C    2.747382   1.529438   1.538846   0.000000
     5  C    1.664075   2.787082   1.540907   2.583982   0.000000
     6  C    1.432668   1.538060   3.068983   2.529927   2.650620
     7  H    2.879514   2.147008   2.139764   1.100756   3.121191
     8  H    2.049508   2.133062   3.642856   2.868193   3.461965
     9  H    2.867698   1.102263   2.747393   2.152105   2.783331
    10  C    2.452220   2.548275   4.330182   3.882145   3.570442
    11  H    2.740304   2.795847   4.305404   4.098339   3.385787
    12  H    2.697739   3.503566   4.981515   4.689525   4.025627
    13  H    3.442546   3.064324   1.104430   2.138491   2.125776
    14  O    3.711769   2.939254   5.240799   4.430529   4.767107
    15  H    4.010781   3.400624   5.694120   4.782231   5.284973
    16  O    3.171279   3.672288   1.409104   2.413125   2.406039
    17  H    3.162506   4.218000   1.898389   3.174492   2.265174
    18  O    4.127320   2.409454   2.405201   1.418706   3.690629
    19  H    4.517466   2.430321   3.226879   1.922167   4.364244
    20  O    3.648529   1.424226   3.760978   2.377580   4.200917
    21  H    3.940763   1.930133   4.456220   3.213278   4.628496
    22  H    2.149350   2.745854   2.216975   2.981804   1.101586
    23  O    2.398946   4.055951   2.379778   3.684691   1.301337
    24  O    3.460093   5.477295   4.623276   5.670541   3.146128
    25  H    2.872552   4.789761   3.583201   4.755990   2.194419
    26  H    2.851404   5.089379   4.643321   5.429602   3.179634
    27  H    4.243270   6.348766   5.261728   6.413089   3.876620
    28  O    2.426361   4.707057   4.680212   5.168137   3.364685
    29  H    1.283883   3.608769   3.644342   4.028840   2.447464
    30  H    2.876794   5.246447   5.020004   5.527221   3.850483
                    6          7          8          9         10
     6  C    0.000000
     7  H    2.697265   0.000000
     8  H    1.100370   2.611577   0.000000
     9  H    2.177762   3.052805   3.042346   0.000000
    10  C    1.536410   4.192913   2.165547   2.677711   0.000000
    11  H    2.169202   4.647242   3.072955   2.481790   1.094868
    12  H    2.182847   4.846486   2.529773   3.714226   1.098114
    13  H    3.871878   2.967994   4.563798   2.915014   4.954340
    14  O    2.452399   4.718347   2.719878   3.066635   1.434441
    15  H    2.735875   4.855372   2.608339   3.777698   1.960819
    16  O    3.948793   2.408636   4.240323   4.088461   5.343127
    17  H    4.231144   3.212330   4.598019   4.536042   5.505949
    18  O    3.770004   2.082981   4.086371   2.685652   4.950134
    19  H    3.856230   2.376778   4.036892   2.795961   4.922096
    20  O    2.433187   2.665879   2.517829   2.070583   3.126717
    21  H    2.575497   3.546312   2.721501   2.274939   2.750343
    22  H    2.745926   3.749720   3.762415   2.332727   3.247116
    23  O    3.698302   4.031102   4.382508   4.075347   4.528514
    24  O    4.647845   6.031283   5.385119   5.315283   4.741459
    25  H    4.161191   5.133060   4.911336   4.673888   4.582588
    26  H    3.977042   5.627868   4.556474   5.121244   4.017239
    27  H    5.509968   6.708892   6.175240   6.224064   5.664100
    28  O    3.368179   5.201996   3.734862   4.941353   3.405035
    29  H    2.328587   4.083246   2.774985   3.924012   2.724437
    30  H    3.889166   5.385764   4.034861   5.622050   4.133579
                   11         12         13         14         15
    11  H    0.000000
    12  H    1.770442   0.000000
    13  H    4.726294   5.701451   0.000000
    14  O    2.028225   2.098223   5.779850   0.000000
    15  H    2.820667   2.271325   6.351685   0.970494   0.000000
    16  O    5.464048   5.827282   2.079352   6.308384   6.617201
    17  H    5.552007   5.854637   2.486983   6.628110   6.958579
    18  O    5.051699   5.876217   2.388707   5.233376   5.635696
    19  H    5.123095   5.889882   3.301043   4.938779   5.272824
    20  O    3.575341   4.085831   4.204389   2.843316   3.097530
    21  H    3.192017   3.718154   4.869908   2.090125   2.406771
    22  H    2.751585   3.817344   2.406207   4.380634   5.060878
    23  O    4.328368   4.739464   2.856369   5.844176   6.307322
    24  O    4.346595   4.523112   5.018882   6.151865   6.630215
    25  H    4.240569   4.575537   3.973055   5.982851   6.476146
    26  H    3.869231   3.597192   5.269450   5.435974   5.773559
    27  H    5.308233   5.377205   5.639810   7.083286   7.520601
    28  O    3.567436   2.811395   5.478493   4.771615   4.945409
    29  H    2.972556   2.454913   4.497661   4.112209   4.334768
    30  H    4.438977   3.497279   5.902203   5.445062   5.487941
                   16         17         18         19         20
    16  O    0.000000
    17  H    0.978587   0.000000
    18  O    3.166575   4.037691   0.000000
    19  H    3.999345   4.881350   0.972850   0.000000
    20  O    4.736877   5.415533   2.716852   2.192333   0.000000
    21  H    5.521567   6.114681   3.592040   3.060717   0.974476
    22  H    3.365762   3.287381   3.899759   4.482430   4.140185
    23  O    2.602030   1.958394   4.756303   5.512895   5.453714
    24  O    5.008580   4.322094   6.825838   7.448135   6.827215
    25  H    3.919994   3.233017   5.868487   6.557847   6.188079
    26  H    5.008142   4.428800   6.721241   7.232457   6.333911
    27  H    5.444613   4.642008   7.560363   8.232469   7.709490
    28  O    5.028306   4.602617   6.540235   6.931458   5.800136
    29  H    4.093629   3.822338   5.407144   5.791455   4.740327
    30  H    5.108018   4.629443   6.930799   7.339899   6.292820
                   21         22         23         24         25
    21  H    0.000000
    22  H    4.390459   0.000000
    23  O    5.885982   2.048312   0.000000
    24  O    6.948479   3.169729   2.439253   0.000000
    25  H    6.445042   2.441586   1.325103   1.130027   0.000000
    26  H    6.404541   3.329364   2.732906   1.259846   1.784019
    27  H    7.870951   4.021561   2.925009   0.970161   1.696611
    28  O    5.834528   3.615799   3.221569   2.421643   2.673712
    29  H    4.869269   2.799557   2.636863   2.745291   2.541336
    30  H    6.407595   4.312466   3.524639   2.911714   3.098647
                   26         27         28         29         30
    26  H    0.000000
    27  H    1.858288   0.000000
    28  O    1.181042   2.992100   0.000000
    29  H    1.797130   3.471449   1.144850   0.000000
    30  H    1.747016   3.231681   0.971612   1.699264   0.000000
 Symmetry turned off by external request.
 Stoichiometry    C6H16O8
 Framework group  C1[X(C6H16O8)]
 Deg. of freedom    84
 Full point group                 C1      NOp   1
 Rotational constants (GHZ):      0.7172414      0.5301679      0.3329091
 Standard basis: 6-31G(d) (6D, 7F)
   242 basis functions,   456 primitive gaussians,   242 cartesian basis functions
    58 alpha electrons       58 beta electrons
       nuclear repulsion energy      1103.6406015965 Hartrees.
 NAtoms=   30 NActive=   30 NUniq=   30 SFac= 1.00D+00 NAtFMM=   60 NAOKFM=F Big=F
 Integral buffers will be    131072 words long.
 Raffenetti 2 integral format.
 Two-electron integral symmetry is turned off.
 One-electron integrals computed using PRISM.
 NBasis=   242 RedAO= T EigKep=  1.35D-03  NBF=   242
 NBsUse=   242 1.00D-06 EigRej= -1.00D+00 NBFU=   242
 Initial guess from the checkpoint file:  "/scratch/10461013.yak.local/Gau-27161.chk"
 B after Tr=    -0.044514    0.050863   -0.002059
         Rot=    1.000000    0.000027    0.000029   -0.000034 Ang=   0.01 deg.
 ExpMin= 1.61D-01 ExpMax= 5.48D+03 ExpMxC= 8.25D+02 IAcc=1 IRadAn=         1 AccDes= 0.00D+00
 Harris functional with IExCor=  402 and IRadAn=       1 diagonalized for initial guess.
 HarFok:  IExCor=  402 AccDes= 0.00D+00 IRadAn=         1 IDoV= 1 UseB2=F ITyADJ=14
 ICtDFT=  3500011 ScaDFX=  1.000000  1.000000  1.000000  1.000000
 FoFCou: FMM=F IPFlag=           0 FMFlag=      100000 FMFlg1=           0
         NFxFlg=           0 DoJE=T BraDBF=F KetDBF=T FulRan=T
         wScrn=  0.000000 ICntrl=     500 IOpCl=  0 I1Cent=   200000004 NGrid=           0
         NMat0=    1 NMatS0=      1 NMatT0=    0 NMatD0=    1 NMtDS0=    0 NMtDT0=    0
 Symmetry not used in FoFCou.
 Requested convergence on RMS density matrix=1.00D-08 within 128 cycles.
 Requested convergence on MAX density matrix=1.00D-06.
 Requested convergence on             energy=1.00D-06.
 No special actions if energy rises.
 Integral accuracy reduced to 1.0D-05 until final iterations.
 Initial convergence to 1.0D-05 achieved.  Increase integral accuracy.
 SCF Done:  E(RB3LYP) =  -839.961847569     A.U. after   11 cycles
            NFock= 11  Conv=0.75D-08     -V/T= 2.0086
 DoSCS=F DFT=T ScalE2(SS,OS)=  1.000000  1.000000
 Range of M.O.s used for correlation:     1   242
 NBasis=   242 NAE=    58 NBE=    58 NFC=     0 NFV=     0
 NROrb=    242 NOA=    58 NOB=    58 NVA=   184 NVB=   184
 Symmetrizing basis deriv contribution to polar:
 IMax=3 JMax=2 DiffMx= 0.00D+00
 Calling FoFJK, ICntrl=      2147 FMM=F ISym2X=0 I1Cent= 0 IOpClX= 0 NMat=1 NMatS=1 NMatT=0.
 -------------------------------------------------------------------
 Center     Atomic                   Forces (Hartrees/Bohr)
 Number     Number              X              Y              Z
 -------------------------------------------------------------------
      1        8           0.000967905   -0.002549854   -0.002029484
      2        6           0.000188754    0.000148617    0.000033907
      3        6          -0.000332506   -0.000008780   -0.000333690
      4        6          -0.000046070    0.000072997   -0.000063499
      5        6           0.002149147    0.003463093    0.001852413
      6        6          -0.000378650   -0.001106101   -0.000487430
      7        1          -0.000017371   -0.000004831   -0.000006274
      8        1          -0.000074805   -0.000057470   -0.000012961
      9        1           0.000024439   -0.000010854   -0.000009450
     10        6          -0.000027166   -0.000249875    0.000028367
     11        1           0.000000926    0.000009879   -0.000006083
     12        1           0.000003075   -0.000022620    0.000012843
     13        1          -0.000015752   -0.000050953    0.000013182
     14        8           0.000030239    0.000076124   -0.000013053
     15        1           0.000002474   -0.000028865    0.000011376
     16        8          -0.000120799   -0.000034801    0.000093461
     17        1           0.000025766   -0.000138407    0.000070679
     18        8          -0.000019962   -0.000072890    0.000013205
     19        1          -0.000017745    0.000026157   -0.000011973
     20        8           0.000292030   -0.000072718   -0.000071700
     21        1          -0.000020830    0.000009864    0.000029207
     22        1           0.000013641   -0.000152289   -0.000064518
     23        8          -0.002638469    0.001373343   -0.000592444
     24        8           0.001604250    0.001363844    0.002056130
     25        1           0.002235359   -0.001748209    0.000796657
     26        1          -0.001725731   -0.002017845   -0.002723108
     27        1           0.000076293    0.000242237    0.000285110
     28        8          -0.000098354    0.000122537    0.000531286
     29        1          -0.002253965    0.001299210    0.000550550
     30        1           0.000173879    0.000119461    0.000047292
 -------------------------------------------------------------------
 Cartesian Forces:  Max     0.003463093 RMS     0.000956545
 IRC-IRC-IRC-IRC-IRC-IRC-IRC-IRC-IRC-IRC-IRC-IRC-IRC-IRC-IRC-IRC-IRC-IRC
 Pt  1 Step number   1 out of a maximum of  20
 Modified Bulirsch-Stoer Extrapolation Cycles:
    EPS =    0.000010000000000
 Maximum DWI energy   std dev =  0.000002800 at pt    52
 Maximum DWI gradient std dev =  0.100368206 at pt     2
 CORRECTOR INTEGRATION CONVERGENCE:
   Recorrection delta-x convergence threshold:    0.010000
   Delta-x Convergence Met
 Point Number:   1          Path Number:   1
   CHANGE IN THE REACTION COORDINATE =    0.10684
   NET REACTION COORDINATE UP TO THIS POINT =    0.10684
  # OF POINTS ALONG THE PATH =   1
  # OF STEPS =   1

 Calculating another point on the path.
 IRC-IRC-IRC-IRC-IRC-IRC-IRC-IRC-IRC-IRC-IRC-IRC-IRC-IRC-IRC-IRC-IRC-IRC
                          Input orientation:                          
 ---------------------------------------------------------------------
 Center     Atomic      Atomic             Coordinates (Angstroms)
 Number     Number       Type             X           Y           Z
 ---------------------------------------------------------------------
      1          8           0       -0.648817    0.346347    0.557095
      2          6           0        1.643774    0.209763   -0.247983
      3          6           0        0.226549   -1.904689   -0.200828
      4          6           0        1.558338   -1.248538    0.205200
      5          6           0       -0.897299   -0.897525   -0.512074
      6          6           0        0.582321    1.071210    0.455914
      7          1           0        1.610277   -1.273076    1.304434
      8          1           0        0.944494    1.245722    1.480373
      9          1           0        1.497988    0.248097   -1.339997
     10          6           0        0.379960    2.422379   -0.247675
     11          1           0        0.045765    2.260028   -1.277597
     12          1           0       -0.389648    3.016530    0.262725
     13          1           0        0.412600   -2.450668   -1.142575
     14          8           0        1.614089    3.147126   -0.346386
     15          1           0        1.810021    3.515789    0.529706
     16          8           0       -0.202912   -2.781170    0.815724
     17          1           0       -1.178295   -2.766178    0.743379
     18          8           0        2.624702   -1.987754   -0.368599
     19          1           0        3.420916   -1.447395   -0.225380
     20          8           0        2.951965    0.673158    0.071595
     21          1           0        2.998900    1.583583   -0.272691
     22          1           0       -0.748645   -0.369204   -1.466627
     23          8           0       -2.092608   -1.371390   -0.289545
     24          8           0       -3.796135    0.269793   -0.874969
     25          1           0       -3.038757   -0.585980   -0.697535
     26          1           0       -3.388646    0.999096    0.017548
     27          1           0       -4.682887   -0.075126   -0.684317
     28          8           0       -2.723933    1.569342    0.862467
     29          1           0       -1.749055    1.031784    0.767157
     30          1           0       -3.079043    1.338623    1.736826
 ---------------------------------------------------------------------
                    Distance matrix (angstroms):
                    1          2          3          4          5
     1  O    0.000000
     2  C    2.433676   0.000000
     3  C    2.531378   2.545910   0.000000
     4  C    2.745728   1.529482   1.539173   0.000000
     5  C    1.658941   2.784400   1.540872   2.582218   0.000000
     6  C    1.432258   1.537610   3.068201   2.529169   2.646166
     7  H    2.878290   2.147075   2.139965   1.100734   3.119083
     8  H    2.049379   2.132937   3.642385   2.867787   3.457680
     9  H    2.866598   1.102369   2.747499   2.152021   2.781242
    10  C    2.452742   2.548117   4.330040   3.881920   3.566940
    11  H    2.740568   2.795948   4.305459   4.098365   3.383125
    12  H    2.698832   3.503365   4.981262   4.689217   4.022169
    13  H    3.440753   3.064959   1.104353   2.138768   2.127351
    14  O    3.712328   2.939161   5.240924   4.430487   4.763793
    15  H    4.011482   3.400330   5.694088   4.781993   5.281309
    16  O    3.169714   3.672520   1.409268   2.413235   2.406936
    17  H    3.162730   4.219371   1.899283   3.175221   2.268697
    18  O    4.125635   2.409533   2.405449   1.418738   3.689671
    19  H    4.515806   2.430003   3.227027   1.922015   4.362515
    20  O    3.648033   1.424159   3.761303   2.377596   4.198161
    21  H    3.940195   1.929860   4.456359   3.213178   4.625319
    22  H    2.148821   2.746628   2.216070   2.981679   1.101087
    23  O    2.398323   4.057379   2.381337   3.686363   1.304925
    24  O    3.458653   5.476251   4.622209   5.669433   3.146040
    25  H    2.855722   4.770892   3.556393   4.731511   2.171934
    26  H    2.867727   5.100864   4.642122   5.436886   3.175608
    27  H    4.241753   6.348086   5.261523   6.412568   3.877716
    28  O    2.427977   4.707273   4.680259   5.168200   3.363240
    29  H    1.313192   3.635591   3.669179   4.056416   2.466608
    30  H    2.877912   5.245836   5.020011   5.526715   3.849405
                    6          7          8          9         10
     6  C    0.000000
     7  H    2.696731   0.000000
     8  H    1.100518   2.611239   0.000000
     9  H    2.177442   3.052801   3.042383   0.000000
    10  C    1.536765   4.192746   2.165495   2.677808   0.000000
    11  H    2.169387   4.647301   3.072935   2.482078   1.094890
    12  H    2.183189   4.846192   2.529498   3.714311   1.098098
    13  H    3.871382   2.967997   4.563559   2.915540   4.954644
    14  O    2.453091   4.718411   2.720430   3.066775   1.434600
    15  H    2.736541   4.855237   2.608851   3.777692   1.960852
    16  O    3.948023   2.408493   4.239594   4.088600   5.342984
    17  H    4.231778   3.212517   4.598340   4.537488   5.507401
    18  O    3.769404   2.082994   4.086217   2.685541   4.950027
    19  H    3.855536   2.376791   4.036724   2.795482   4.921694
    20  O    2.433385   2.666054   2.518417   2.070584   3.126807
    21  H    2.575509   3.546280   2.721759   2.274951   2.750101
    22  H    2.746348   3.749704   3.762913   2.333336   3.248465
    23  O    3.698276   4.032591   4.382450   4.076588   4.528579
    24  O    4.645900   6.029886   5.382715   5.314551   4.739925
    25  H    4.145954   5.108180   4.895376   4.657306   4.576049
    26  H    3.995741   5.639865   4.580042   5.127000   4.037136
    27  H    5.507870   6.707766   6.172353   6.223954   5.662209
    28  O    3.368195   5.201927   3.734152   4.941776   3.405031
    29  H    2.352391   4.109277   2.794575   3.949374   2.737945
    30  H    3.888165   5.384947   4.032771   5.621859   4.132489
                   11         12         13         14         15
    11  H    0.000000
    12  H    1.770444   0.000000
    13  H    4.726886   5.701642   0.000000
    14  O    2.028236   2.098341   5.780380   0.000000
    15  H    2.820617   2.271361   6.352000   0.970483   0.000000
    16  O    5.464202   5.827006   2.079188   6.308461   6.617053
    17  H    5.553864   5.855997   2.487432   6.629642   6.959798
    18  O    5.051816   5.876030   2.388874   5.233434   5.635569
    19  H    5.122869   5.889420   3.301177   4.938511   5.272412
    20  O    3.575539   4.085866   4.204863   2.843438   3.097491
    21  H    3.191931   3.717831   4.870403   2.089928   2.406386
    22  H    2.753121   3.818734   2.405409   4.382012   5.062142
    23  O    4.328519   4.739083   2.858071   5.844640   6.307630
    24  O    4.345496   4.521400   5.018563   6.150526   6.628618
    25  H    4.236804   4.573615   3.948036   5.975648   6.468483
    26  H    3.881047   3.622726   5.262721   5.456541   5.798464
    27  H    5.307078   5.374675   5.640673   7.081597   7.518402
    28  O    3.567653   2.811215   5.478915   4.771704   4.945313
    29  H    2.985127   2.457978   4.521869   4.126184   4.346687
    30  H    4.438486   3.495882   5.902648   5.443890   5.486358
                   16         17         18         19         20
    16  O    0.000000
    17  H    0.978177   0.000000
    18  O    3.166627   4.037972   0.000000
    19  H    3.999373   4.881642   0.972861   0.000000
    20  O    4.737020   5.416583   2.716860   2.191998   0.000000
    21  H    5.521532   6.115699   3.592169   3.060582   0.974479
    22  H    3.365195   3.288497   3.899338   4.482012   4.140913
    23  O    2.603854   1.961717   4.758063   5.514421   5.455119
    24  O    5.007801   4.323107   6.824959   7.446914   6.826093
    25  H    3.892407   3.207930   5.843624   6.533938   6.169745
    26  H    5.007635   4.426034   6.725380   7.239784   6.349214
    27  H    5.444536   4.643516   7.560336   8.231973   7.708587
    28  O    5.028388   4.604336   6.540363   6.931326   5.800383
    29  H    4.114794   3.840682   5.434823   5.818940   4.765712
    30  H    5.108156   4.631325   6.930390   7.339048   6.291971
                   21         22         23         24         25
    21  H    0.000000
    22  H    4.391236   0.000000
    23  O    5.886901   2.048447   0.000000
    24  O    6.947034   3.169475   2.436843   0.000000
    25  H    6.429682   2.425512   1.295578   1.156482   0.000000
    26  H    6.420796   3.323346   2.719049   1.222504   1.773763
    27  H    7.869601   4.022033   2.923301   0.970385   1.721717
    28  O    5.834347   3.617236   3.220808   2.420150   2.679204
    29  H    4.891712   2.820173   2.647620   2.732717   2.534919
    30  H    6.406212   4.313878   3.524685   2.911716   3.103520
                   26         27         28         29         30
    26  H    0.000000
    27  H    1.822533   0.000000
    28  O    1.216927   2.989033   0.000000
    29  H    1.803120   3.455343   1.117336   0.000000
    30  H    1.779621   3.230007   0.971514   1.674299   0.000000
 Symmetry turned off by external request.
 Stoichiometry    C6H16O8
 Framework group  C1[X(C6H16O8)]
 Deg. of freedom    84
 Full point group                 C1      NOp   1
 Rotational constants (GHZ):      0.7174221      0.5302103      0.3329353
 Standard basis: 6-31G(d) (6D, 7F)
   242 basis functions,   456 primitive gaussians,   242 cartesian basis functions
    58 alpha electrons       58 beta electrons
       nuclear repulsion energy      1103.6743325055 Hartrees.
 NAtoms=   30 NActive=   30 NUniq=   30 SFac= 1.00D+00 NAtFMM=   60 NAOKFM=F Big=F
 Integral buffers will be    131072 words long.
 Raffenetti 2 integral format.
 Two-electron integral symmetry is turned off.
 One-electron integrals computed using PRISM.
 NBasis=   242 RedAO= T EigKep=  1.35D-03  NBF=   242
 NBsUse=   242 1.00D-06 EigRej= -1.00D+00 NBFU=   242
 Initial guess from the checkpoint file:  "/scratch/10461013.yak.local/Gau-27161.chk"
 B after Tr=    -0.000141   -0.000181   -0.000055
         Rot=    1.000000    0.000030    0.000033   -0.000040 Ang=   0.01 deg.
 ExpMin= 1.61D-01 ExpMax= 5.48D+03 ExpMxC= 8.25D+02 IAcc=1 IRadAn=         1 AccDes= 0.00D+00
 Harris functional with IExCor=  402 and IRadAn=       1 diagonalized for initial guess.
 HarFok:  IExCor=  402 AccDes= 0.00D+00 IRadAn=         1 IDoV= 1 UseB2=F ITyADJ=14
 ICtDFT=  3500011 ScaDFX=  1.000000  1.000000  1.000000  1.000000
 FoFCou: FMM=F IPFlag=           0 FMFlag=      100000 FMFlg1=           0
         NFxFlg=           0 DoJE=T BraDBF=F KetDBF=T FulRan=T
         wScrn=  0.000000 ICntrl=     500 IOpCl=  0 I1Cent=   200000004 NGrid=           0
         NMat0=    1 NMatS0=      1 NMatT0=    0 NMatD0=    1 NMtDS0=    0 NMtDT0=    0
 Symmetry not used in FoFCou.
 Requested convergence on RMS density matrix=1.00D-08 within 128 cycles.
 Requested convergence on MAX density matrix=1.00D-06.
 Requested convergence on             energy=1.00D-06.
 No special actions if energy rises.
 Integral accuracy reduced to 1.0D-05 until final iterations.
 Initial convergence to 1.0D-05 achieved.  Increase integral accuracy.
 SCF Done:  E(RB3LYP) =  -839.962816359     A.U. after   11 cycles
            NFock= 11  Conv=0.55D-08     -V/T= 2.0086
 DoSCS=F DFT=T ScalE2(SS,OS)=  1.000000  1.000000
 Range of M.O.s used for correlation:     1   242
 NBasis=   242 NAE=    58 NBE=    58 NFC=     0 NFV=     0
 NROrb=    242 NOA=    58 NOB=    58 NVA=   184 NVB=   184
 Symmetrizing basis deriv contribution to polar:
 IMax=3 JMax=2 DiffMx= 0.00D+00
 Calling FoFJK, ICntrl=      2147 FMM=F ISym2X=0 I1Cent= 0 IOpClX= 0 NMat=1 NMatS=1 NMatT=0.
 -------------------------------------------------------------------
 Center     Atomic                   Forces (Hartrees/Bohr)
 Number     Number              X              Y              Z
 -------------------------------------------------------------------
      1        8           0.002093902   -0.005378681   -0.004037300
      2        6           0.000384328    0.000311522    0.000069226
      3        6          -0.000734280   -0.000060744   -0.000698224
      4        6          -0.000070798    0.000159906   -0.000122080
      5        6           0.004545602    0.007011951    0.003571631
      6        6          -0.000608925   -0.002071094   -0.000975062
      7        1          -0.000038271   -0.000014253   -0.000014964
      8        1          -0.000157595   -0.000119711   -0.000020867
      9        1           0.000044149   -0.000020279   -0.000020215
     10        6          -0.000111734   -0.000438065    0.000050813
     11        1           0.000000492    0.000020976   -0.000011184
     12        1          -0.000003978   -0.000061203    0.000025068
     13        1          -0.000031355   -0.000105951    0.000025064
     14        8           0.000074862    0.000098689   -0.000007712
     15        1          -0.000002552   -0.000039727    0.000018172
     16        8          -0.000241337   -0.000054955    0.000193497
     17        1           0.000057443   -0.000338694    0.000179084
     18        8          -0.000082020   -0.000138845    0.000023421
     19        1          -0.000037699    0.000047575   -0.000026210
     20        8           0.000535145   -0.000160274   -0.000147632
     21        1          -0.000042962    0.000020944    0.000057284
     22        1          -0.000007125   -0.000309461   -0.000132683
     23        8          -0.005633082    0.002769407   -0.001276311
     24        8           0.002566495    0.002819501    0.003593695
     25        1           0.005166717   -0.004110814    0.001850803
     26        1          -0.003753160   -0.004200066   -0.005782957
     27        1           0.000158291    0.000551483    0.000573848
     28        8          -0.000227912    0.001130326    0.001813590
     29        1          -0.004182898    0.002415885    0.001077399
     30        1           0.000340260    0.000264653    0.000150805
 -------------------------------------------------------------------
 Cartesian Forces:  Max     0.007011951 RMS     0.001974295
 IRC-IRC-IRC-IRC-IRC-IRC-IRC-IRC-IRC-IRC-IRC-IRC-IRC-IRC-IRC-IRC-IRC-IRC
 Pt  2 Step number   1 out of a maximum of  20
 Modified Bulirsch-Stoer Extrapolation Cycles:
    EPS =    0.000010000000000
 Maximum DWI energy   std dev =  0.000008940 at pt    64
 Maximum DWI gradient std dev =  0.066780331 at pt    55
 CORRECTOR INTEGRATION CONVERGENCE:
   Recorrection delta-x convergence threshold:    0.010000
   Delta-x Convergence Met
 Point Number:   2          Path Number:   1
   CHANGE IN THE REACTION COORDINATE =    0.10687
   NET REACTION COORDINATE UP TO THIS POINT =    0.21371
  # OF POINTS ALONG THE PATH =   2
  # OF STEPS =   1

 Calculating another point on the path.
 IRC-IRC-IRC-IRC-IRC-IRC-IRC-IRC-IRC-IRC-IRC-IRC-IRC-IRC-IRC-IRC-IRC-IRC
                          Input orientation:                          
 ---------------------------------------------------------------------
 Center     Atomic      Atomic             Coordinates (Angstroms)
 Number     Number       Type             X           Y           Z
 ---------------------------------------------------------------------
      1          8           0       -0.648199    0.344802    0.555989
      2          6           0        1.643916    0.209876   -0.247959
      3          6           0        0.226258   -1.904720   -0.201087
      4          6           0        1.558324   -1.248477    0.205156
      5          6           0       -0.895556   -0.894927   -0.510816
      6          6           0        0.582151    1.070508    0.455559
      7          1           0        1.610089   -1.273156    1.304365
      8          1           0        0.943722    1.245138    1.480305
      9          1           0        1.498177    0.248016   -1.340089
     10          6           0        0.379902    2.422241   -0.247658
     11          1           0        0.045759    2.260129   -1.277648
     12          1           0       -0.389717    3.016185    0.262835
     13          1           0        0.412440   -2.451127   -1.142469
     14          8           0        1.614115    3.147138   -0.346382
     15          1           0        1.809982    3.515676    0.529771
     16          8           0       -0.202981   -2.781178    0.815775
     17          1           0       -1.178005   -2.767964    0.744351
     18          8           0        2.624667   -1.987791   -0.368594
     19          1           0        3.420753   -1.447191   -0.225501
     20          8           0        2.952098    0.673111    0.071555
     21          1           0        2.998712    1.583684   -0.272441
     22          1           0       -0.748818   -0.370591   -1.467185
     23          8           0       -2.094244   -1.370622   -0.289918
     24          8           0       -3.795447    0.270528   -0.874063
     25          1           0       -3.014563   -0.604822   -0.688487
     26          1           0       -3.406094    0.979652   -0.009220
     27          1           0       -4.682572   -0.072611   -0.681602
     28          8           0       -2.723978    1.569807    0.863075
     29          1           0       -1.767597    1.042416    0.771960
     30          1           0       -3.077660    1.339798    1.737874
 ---------------------------------------------------------------------
                    Distance matrix (angstroms):
                    1          2          3          4          5
     1  O    0.000000
     2  C    2.432761   0.000000
     3  C    2.529464   2.546264   0.000000
     4  C    2.744151   1.529520   1.539509   0.000000
     5  C    1.654142   2.781834   1.540805   2.580531   0.000000
     6  C    1.431955   1.537195   3.067543   2.528498   2.642051
     7  H    2.877102   2.147147   2.140151   1.100705   3.117081
     8  H    2.049189   2.132824   3.641900   2.867378   3.453604
     9  H    2.865556   1.102471   2.747612   2.151950   2.779203
    10  C    2.453281   2.547997   4.329938   3.881737   3.563656
    11  H    2.740854   2.796052   4.305523   4.098399   3.380604
    12  H    2.699822   3.503134   4.980959   4.688873   4.018856
    13  H    3.439031   3.065553   1.104276   2.139044   2.128755
    14  O    3.712872   2.939062   5.241042   4.430433   4.760648
    15  H    4.012204   3.400111   5.694121   4.781825   5.277895
    16  O    3.168195   3.672732   1.409409   2.413343   2.407789
    17  H    3.163146   4.220835   1.900263   3.176015   2.272331
    18  O    4.124015   2.409599   2.405686   1.418754   3.688706
    19  H    4.514237   2.429717   3.227186   1.921872   4.360840
    20  O    3.647547   1.424084   3.761615   2.377594   4.195514
    21  H    3.939680   1.929617   4.456517   3.213090   4.622300
    22  H    2.148288   2.747477   2.215249   2.981662   1.100500
    23  O    2.397767   4.058764   2.382830   3.687990   1.308409
    24  O    3.457707   5.475614   4.621548   5.668770   3.146363
    25  H    2.837285   4.749655   3.525650   4.703635   2.146140
    26  H    2.885911   5.113917   4.642240   5.445729   3.173081
    27  H    4.240523   6.347621   5.261571   6.412315   3.879028
    28  O    2.429773   4.707686   4.680670   5.168529   3.362382
    29  H    1.336548   3.656744   3.688887   4.078138   2.481787
    30  H    2.879089   5.245335   5.020193   5.526368   3.848660
                    6          7          8          9         10
     6  C    0.000000
     7  H    2.696273   0.000000
     8  H    1.100606   2.610901   0.000000
     9  H    2.177142   3.052806   3.042416   0.000000
    10  C    1.537075   4.192624   2.165484   2.677910   0.000000
    11  H    2.169544   4.647368   3.072922   2.482342   1.094902
    12  H    2.183422   4.845870   2.529210   3.714333   1.098037
    13  H    3.870970   2.967992   4.563286   2.916033   4.954943
    14  O    2.453661   4.718472   2.720995   3.066888   1.434749
    15  H    2.737138   4.855189   2.609456   3.777724   1.960899
    16  O    3.947363   2.408334   4.238838   4.088729   5.342865
    17  H    4.232661   3.212715   4.598733   4.539050   5.509027
    18  O    3.768858   2.082995   4.086054   2.685445   4.949948
    19  H    3.854907   2.376822   4.036594   2.795055   4.921359
    20  O    2.433522   2.666227   2.519001   2.070587   3.126906
    21  H    2.575480   3.546283   2.722079   2.274969   2.749901
    22  H    2.746850   3.749740   3.763372   2.334056   3.249795
    23  O    3.698370   4.034020   4.382365   4.077786   4.528685
    24  O    4.644483   6.028957   5.380765   5.314146   4.738754
    25  H    4.129397   5.079914   4.877912   4.638614   4.569445
    26  H    4.016263   5.653560   4.605438   5.134041   4.058531
    27  H    5.506102   6.706933   6.169723   6.223991   5.660498
    28  O    3.368361   5.202049   3.733417   4.942434   3.405061
    29  H    2.371121   4.129659   2.809644   3.969522   2.748689
    30  H    3.887295   5.384277   4.030734   5.621755   4.131435
                   11         12         13         14         15
    11  H    0.000000
    12  H    1.770409   0.000000
    13  H    4.727438   5.701740   0.000000
    14  O    2.028245   2.098484   5.780860   0.000000
    15  H    2.820575   2.271436   6.352341   0.970478   0.000000
    16  O    5.464346   5.826666   2.079038   6.308516   6.616962
    17  H    5.555880   5.857443   2.487970   6.631294   6.961195
    18  O    5.051928   5.875798   2.389040   5.233470   5.635505
    19  H    5.122678   5.888963   3.301312   4.938260   5.272103
    20  O    3.575721   4.085867   4.205303   2.843533   3.097509
[...]
 Alpha  occ. eigenvalues --  -10.24958 -10.24162 -10.23434 -10.23038  -1.07111
 Alpha  occ. eigenvalues --   -1.04938  -1.03313  -1.02949  -1.01771  -1.00820
 Alpha  occ. eigenvalues --   -0.99701  -0.98926  -0.77749  -0.76167  -0.69670
 Alpha  occ. eigenvalues --   -0.64795  -0.62617  -0.57132  -0.55718  -0.55321
 Alpha  occ. eigenvalues --   -0.54135  -0.53539  -0.52658  -0.51169  -0.50429
 Alpha  occ. eigenvalues --   -0.49092  -0.45907  -0.44856  -0.43534  -0.42597
 Alpha  occ. eigenvalues --   -0.41721  -0.41034  -0.40144  -0.38891  -0.36891
 Alpha  occ. eigenvalues --   -0.36634  -0.36497  -0.34682  -0.33509  -0.32708
 Alpha  occ. eigenvalues --   -0.31671  -0.30974  -0.30114  -0.29902  -0.27878
 Alpha  occ. eigenvalues --   -0.26800  -0.26341  -0.24492
 Alpha virt. eigenvalues --    0.03672   0.05350   0.07546   0.08254   0.09125
 Alpha virt. eigenvalues --    0.09667   0.11288   0.11772   0.13689   0.14656
 Alpha virt. eigenvalues --    0.15601   0.16253   0.16767   0.17810   0.18761
 Alpha virt. eigenvalues --    0.19598   0.20702   0.22874   0.24350   0.25286
 Alpha virt. eigenvalues --    0.26052   0.26946   0.28606   0.30642   0.32057
 Alpha virt. eigenvalues --    0.32443   0.33536   0.37139   0.50801   0.52065
 Alpha virt. eigenvalues --    0.53375   0.56062   0.56382   0.57573   0.60171
 Alpha virt. eigenvalues --    0.61224   0.61577   0.63249   0.65001   0.67186
 Alpha virt. eigenvalues --    0.67875   0.70574   0.72114   0.73039   0.75275
 Alpha virt. eigenvalues --    0.75659   0.77040   0.78082   0.78674   0.79780
 Alpha virt. eigenvalues --    0.80527   0.81205   0.83505   0.83660   0.84637
 Alpha virt. eigenvalues --    0.85741   0.85914   0.86942   0.88657   0.89659
 Alpha virt. eigenvalues --    0.90339   0.91206   0.92055   0.93821   0.96630
 Alpha virt. eigenvalues --    0.96732   0.99033   0.99189   1.00745   1.02130
 Alpha virt. eigenvalues --    1.03143   1.05381   1.07076   1.08032   1.09268
 Alpha virt. eigenvalues --    1.10070   1.10295   1.14699   1.15600   1.16552
 Alpha virt. eigenvalues --    1.18874   1.20158   1.21058   1.24719   1.27154
 Alpha virt. eigenvalues --    1.29861   1.31344   1.33547   1.36404   1.40999
 Alpha virt. eigenvalues --    1.43526   1.46364   1.48262   1.50074   1.51179
 Alpha virt. eigenvalues --    1.53981   1.55786   1.56619   1.59105   1.60485
 Alpha virt. eigenvalues --    1.61835   1.64206   1.66292   1.69282   1.70760
 Alpha virt. eigenvalues --    1.71044   1.71693   1.72120   1.73155   1.73909
 Alpha virt. eigenvalues --    1.74399   1.74777   1.76391   1.77476   1.79880
 Alpha virt. eigenvalues --    1.81047   1.82737   1.83404   1.85119   1.85978
 Alpha virt. eigenvalues --    1.86320   1.90624   1.91635   1.92398   1.94568
 Alpha virt. eigenvalues --    1.96520   1.99452   2.01216   2.03514   2.04061
 Alpha virt. eigenvalues --    2.08343   2.09729   2.11133   2.11632   2.13966
 Alpha virt. eigenvalues --    2.19432   2.23250   2.23487   2.27486   2.28159
 Alpha virt. eigenvalues --    2.30797   2.32655   2.37428   2.38575   2.38988
 Alpha virt. eigenvalues --    2.42889   2.44618   2.47549   2.49578   2.51048
 Alpha virt. eigenvalues --    2.52941   2.53548   2.57104   2.59344   2.60771
 Alpha virt. eigenvalues --    2.63199   2.66999   2.67773   2.71426   2.75442
 Alpha virt. eigenvalues --    2.78893   2.80344   2.83850   2.87960   2.90005
 Alpha virt. eigenvalues --    2.93649   2.98186   2.98335   3.01528   3.08994
 Alpha virt. eigenvalues --    3.74800   3.75301   3.80098   3.85274   3.88732
 Alpha virt. eigenvalues --    3.94267   4.05824   4.16794   4.24174   4.37524
 Alpha virt. eigenvalues --    4.45475   4.48364   4.65960   4.82329
          Condensed to atoms (all electrons):
               1          2          3          4          5          6
     1  O    8.553107  -0.025761  -0.030523  -0.001097   0.119735   0.135156
     2  C   -0.025761   5.006984  -0.023408   0.319062  -0.002126   0.287191
     3  C   -0.030523  -0.023408   4.956976   0.318525   0.287395  -0.011651
     4  C   -0.001097   0.319062   0.318525   4.905717  -0.033310  -0.033298
     5  C    0.119735  -0.002126   0.287395  -0.033310   4.745216  -0.016122
     6  C    0.135156   0.287191  -0.011651  -0.033298  -0.016122   5.037416
     7  H    0.001183  -0.053135  -0.049890   0.346970   0.001034  -0.001342
     8  H   -0.033404  -0.042742   0.000248  -0.008744   0.002674   0.353184
     9  H    0.002106   0.343751  -0.005249  -0.047242   0.000679  -0.056384
    10  C   -0.028350  -0.035462  -0.000276   0.004194  -0.002202   0.326164
    11  H    0.003125  -0.009793   0.000050  -0.000102   0.001080  -0.040557
    12  H    0.001700   0.004977  -0.000008  -0.000098  -0.000102  -0.042418
    13  H    0.002963  -0.000076   0.339979  -0.054796  -0.044776   0.000845
    14  O    0.001473   0.001641   0.000000   0.000081   0.000047  -0.038542
    15  H    0.000012  -0.001712   0.000001  -0.000011   0.000001  -0.001147
    16  O   -0.000475   0.002207   0.248686  -0.044384  -0.019146   0.000624
    17  H    0.000822  -0.000357  -0.040544   0.006244  -0.018400   0.000012
    18  O    0.000038  -0.032752  -0.037080   0.236227   0.001832   0.003617
    19  H   -0.000010  -0.013986   0.006597  -0.031106  -0.000276   0.000826
    20  O    0.001464   0.221749   0.002300  -0.037190   0.000221  -0.041390
    21  H    0.000029  -0.021450  -0.000198   0.005283   0.000010  -0.005093
    22  H   -0.052728  -0.002868  -0.061796   0.001346   0.358195   0.005800
    23  O   -0.045391   0.000188  -0.036645   0.001670   0.307116   0.001806
    24  O   -0.000654   0.000000  -0.000088   0.000001   0.003973   0.000015
    25  H    0.003533   0.000014   0.003059  -0.000010  -0.017086  -0.000198
    26  H    0.002226   0.000002   0.000068  -0.000002  -0.000289  -0.000118
    27  H    0.000023  -0.000000  -0.000001  -0.000000  -0.000142   0.000001
    28  O   -0.073043  -0.000053  -0.000041   0.000003   0.003432   0.004076
    29  H    0.074620   0.001191   0.000433   0.000028  -0.003163  -0.005126
    30  H    0.003470   0.000003  -0.000001  -0.000000  -0.000221  -0.000011
               7          8          9         10         11         12
     1  O    0.001183  -0.033404   0.002106  -0.028350   0.003125   0.001700
     2  C   -0.053135  -0.042742   0.343751  -0.035462  -0.009793   0.004977
     3  C   -0.049890   0.000248  -0.005249  -0.000276   0.000050  -0.000008
     4  C    0.346970  -0.008744  -0.047242   0.004194  -0.000102  -0.000098
     5  C    0.001034   0.002674   0.000679  -0.002202   0.001080  -0.000102
     6  C   -0.001342   0.353184  -0.056384   0.326164  -0.040557  -0.042418
     7  H    0.631100   0.005186   0.007870  -0.000010   0.000003   0.000007
     8  H    0.005186   0.629274   0.007519  -0.059620   0.005871  -0.004648
     9  H    0.007870   0.007519   0.667718  -0.008516   0.005444   0.000084
    10  C   -0.000010  -0.059620  -0.008516   4.975339   0.370050   0.361405
    11  H    0.000003   0.005871   0.005444   0.370050   0.565984  -0.035811
    12  H    0.000007  -0.004648   0.000084   0.361405  -0.035811   0.579790
    13  H    0.006875   0.000010   0.002639   0.000020  -0.000006  -0.000000
    14  O   -0.000011   0.002538   0.000150   0.216213  -0.034151  -0.025927
    15  H    0.000001   0.004497   0.000158  -0.029429   0.006846  -0.008022
    16  O    0.005103   0.000012  -0.000023  -0.000001   0.000000  -0.000000
    17  H   -0.000052   0.000003   0.000009  -0.000001   0.000000   0.000000
    18  O   -0.039843  -0.000072   0.002097  -0.000054  -0.000002   0.000000
    19  H   -0.001870   0.000021   0.000019  -0.000015   0.000000   0.000000
    20  O   -0.001426   0.004508  -0.040689   0.000257   0.000064  -0.000216
    21  H   -0.000237  -0.000249  -0.004449  -0.004207  -0.000056   0.000449
    22  H   -0.000005  -0.000400   0.000921   0.000936   0.000592  -0.000022
    23  O   -0.000083  -0.000068   0.000043  -0.000016  -0.000028   0.000003
    24  O   -0.000000   0.000000  -0.000000  -0.000017   0.000008   0.000013
    25  H   -0.000000   0.000008   0.000000   0.000001   0.000005  -0.000010
    26  H    0.000000   0.000001  -0.000000   0.000088   0.000016   0.000024
    27  H    0.000000  -0.000000   0.000000   0.000000  -0.000000  -0.000001
    28  O    0.000001   0.000071   0.000004  -0.001233   0.000048   0.006087
    29  H   -0.000035  -0.001085  -0.000093  -0.001142  -0.000416   0.002303
    30  H   -0.000000   0.000036  -0.000000  -0.000065   0.000003  -0.000059
              13         14         15         16         17         18
     1  O    0.002963   0.001473   0.000012  -0.000475   0.000822   0.000038
     2  C   -0.000076   0.001641  -0.001712   0.002207  -0.000357  -0.032752
     3  C    0.339979   0.000000   0.000001   0.248686  -0.040544  -0.037080
     4  C   -0.054796   0.000081  -0.000011  -0.044384   0.006244   0.236227
     5  C   -0.044776   0.000047   0.000001  -0.019146  -0.018400   0.001832
     6  C    0.000845  -0.038542  -0.001147   0.000624   0.000012   0.003617
     7  H    0.006875  -0.000011   0.000001   0.005103  -0.000052  -0.039843
     8  H    0.000010   0.002538   0.004497   0.000012   0.000003  -0.000072
     9  H    0.002639   0.000150   0.000158  -0.000023   0.000009   0.002097
    10  C    0.000020   0.216213  -0.029429  -0.000001  -0.000001  -0.000054
    11  H   -0.000006  -0.034151   0.006846   0.000000   0.000000  -0.000002
    12  H   -0.000000  -0.025927  -0.008022  -0.000000   0.000000   0.000000
    13  H    0.634658  -0.000000  -0.000000  -0.039401   0.001754   0.004165
    14  O   -0.000000   8.229982   0.235029   0.000000  -0.000000  -0.000000
    15  H   -0.000000   0.235029   0.390453  -0.000000  -0.000000   0.000000
    16  O   -0.039401   0.000000  -0.000000   8.273130   0.235946   0.001101
    17  H    0.001754  -0.000000  -0.000000   0.235946   0.361704  -0.000134
    18  O    0.004165  -0.000000   0.000000   0.001101  -0.000134   8.280763
    19  H   -0.000248   0.000006  -0.000001  -0.000155   0.000014   0.235140
    20  O   -0.000127  -0.012096   0.001981  -0.000009   0.000001  -0.007457
    21  H    0.000008   0.043160  -0.002301   0.000001  -0.000000   0.000121
    22  H    0.002570  -0.000041  -0.000000   0.003018   0.001633   0.000032
    23  O   -0.000860   0.000000  -0.000000  -0.017276   0.037665  -0.000008
    24  O    0.000002   0.000000  -0.000000  -0.000002   0.000045  -0.000000
    25  H   -0.000222  -0.000000   0.000000   0.000054  -0.000182   0.000000
    26  H   -0.000001   0.000000   0.000000   0.000000  -0.000012   0.000000
    27  H   -0.000000  -0.000000   0.000000   0.000000  -0.000007   0.000000
    28  O    0.000001   0.000008   0.000001   0.000000   0.000002   0.000000
    29  H   -0.000033  -0.000025  -0.000013  -0.000042  -0.000007   0.000000
    30  H   -0.000000  -0.000001  -0.000000   0.000000   0.000001  -0.000000
              19         20         21         22         23         24
     1  O   -0.000010   0.001464   0.000029  -0.052728  -0.045391  -0.000654
     2  C   -0.013986   0.221749  -0.021450  -0.002868   0.000188   0.000000
     3  C    0.006597   0.002300  -0.000198  -0.061796  -0.036645  -0.000088
     4  C   -0.031106  -0.037190   0.005283   0.001346   0.001670   0.000001
     5  C   -0.000276   0.000221   0.000010   0.358195   0.307116   0.003973
     6  C    0.000826  -0.041390  -0.005093   0.005800   0.001806   0.000015
     7  H   -0.001870  -0.001426  -0.000237  -0.000005  -0.000083  -0.000000
     8  H    0.000021   0.004508  -0.000249  -0.000400  -0.000068   0.000000
     9  H    0.000019  -0.040689  -0.004449   0.000921   0.000043  -0.000000
    10  C   -0.000015   0.000257  -0.004207   0.000936  -0.000016  -0.000017
    11  H    0.000000   0.000064  -0.000056   0.000592  -0.000028   0.000008
    12  H    0.000000  -0.000216   0.000449  -0.000022   0.000003   0.000013
    13  H   -0.000248  -0.000127   0.000008   0.002570  -0.000860   0.000002
    14  O    0.000006  -0.012096   0.043160  -0.000041   0.000000   0.000000
    15  H   -0.000001   0.001981  -0.002301  -0.000000  -0.000000  -0.000000
    16  O   -0.000155  -0.000009   0.000001   0.003018  -0.017276  -0.000002
    17  H    0.000014   0.000001  -0.000000   0.001633   0.037665   0.000045
    18  O    0.235140  -0.007457   0.000121   0.000032  -0.000008  -0.000000
    19  H    0.371324   0.025305  -0.000543   0.000003   0.000001   0.000000
    20  O    0.025305   8.329028   0.223451   0.000006  -0.000000   0.000000
    21  H   -0.000543   0.223451   0.354495  -0.000011  -0.000000  -0.000000
    22  H    0.000003   0.000006  -0.000011   0.655562  -0.047307   0.001415
    23  O    0.000001  -0.000000  -0.000000  -0.047307   8.367915  -0.082373
    24  O    0.000000   0.000000  -0.000000   0.001415  -0.082373   8.444891
    25  H   -0.000000  -0.000000   0.000000  -0.004177   0.166736   0.123414
    26  H   -0.000000  -0.000000   0.000000  -0.000193   0.008191   0.173616
    27  H   -0.000000  -0.000000   0.000000  -0.000047   0.004055   0.233326
    28  O   -0.000000   0.000000  -0.000000  -0.000178  -0.001953  -0.081896
    29  H    0.000000  -0.000009   0.000002   0.000957   0.005044   0.006452
    30  H    0.000000  -0.000000   0.000000   0.000007   0.000246   0.004235
              25         26         27         28         29         30
     1  O    0.003533   0.002226   0.000023  -0.073043   0.074620   0.003470
     2  C    0.000014   0.000002  -0.000000  -0.000053   0.001191   0.000003
     3  C    0.003059   0.000068  -0.000001  -0.000041   0.000433  -0.000001
     4  C   -0.000010  -0.000002  -0.000000   0.000003   0.000028  -0.000000
     5  C   -0.017086  -0.000289  -0.000142   0.003432  -0.003163  -0.000221
     6  C   -0.000198  -0.000118   0.000001   0.004076  -0.005126  -0.000011
     7  H   -0.000000   0.000000   0.000000   0.000001  -0.000035  -0.000000
     8  H    0.000008   0.000001  -0.000000   0.000071  -0.001085   0.000036
     9  H    0.000000  -0.000000   0.000000   0.000004  -0.000093  -0.000000
    10  C    0.000001   0.000088   0.000000  -0.001233  -0.001142  -0.000065
    11  H    0.000005   0.000016  -0.000000   0.000048  -0.000416   0.000003
    12  H   -0.000010   0.000024  -0.000001   0.006087   0.002303  -0.000059
    13  H   -0.000222  -0.000001  -0.000000   0.000001  -0.000033  -0.000000
    14  O   -0.000000   0.000000  -0.000000   0.000008  -0.000025  -0.000001
    15  H    0.000000   0.000000   0.000000   0.000001  -0.000013  -0.000000
    16  O    0.000054   0.000000   0.000000   0.000000  -0.000042   0.000000
    17  H   -0.000182  -0.000012  -0.000007   0.000002  -0.000007   0.000001
    18  O    0.000000   0.000000   0.000000   0.000000   0.000000  -0.000000
    19  H   -0.000000  -0.000000  -0.000000  -0.000000   0.000000   0.000000
    20  O   -0.000000  -0.000000  -0.000000   0.000000  -0.000009  -0.000000
    21  H    0.000000   0.000000   0.000000  -0.000000   0.000002   0.000000
    22  H   -0.004177  -0.000193  -0.000047  -0.000178   0.000957   0.000007
    23  O    0.166736   0.008191   0.004055  -0.001953   0.005044   0.000246
    24  O    0.123414   0.173616   0.233326  -0.081896   0.006452   0.004235
    25  H    0.284604  -0.012678  -0.006327   0.004914  -0.000645  -0.000075
    26  H   -0.012678   0.304058  -0.004480   0.099097  -0.008033  -0.006100
    27  H   -0.006327  -0.004480   0.372534   0.003665  -0.000217  -0.000253
    28  O    0.004914   0.099097   0.003665   8.460912   0.174673   0.234160
    29  H   -0.000645  -0.008033  -0.000217   0.174673   0.298684  -0.007175
    30  H   -0.000075  -0.006100  -0.000253   0.234160  -0.007175   0.377100
 Mulliken charges:
               1
     1  O   -0.615348
     2  C    0.076720
     3  C    0.133082
     4  C    0.146041
     5  C    0.324721
     6  C    0.136664
     7  H    0.142605
     8  H    0.135372
     9  H    0.121435
    10  C   -0.084053
    11  H    0.161733
    12  H    0.160497
    13  H    0.144059
    14  O   -0.619534
    15  H    0.403656
    16  O   -0.648970
    17  H    0.413839
    18  O   -0.647732
    19  H    0.408953
    20  O   -0.669729
    21  H    0.411786
    22  H    0.136781
    23  O   -0.668671
    24  O   -0.826377
    25  H    0.455270
    26  H    0.444518
    27  H    0.397870
    28  O   -0.832759
    29  H    0.462872
    30  H    0.394702
 Sum of Mulliken charges =  -0.00000
 Mulliken charges with hydrogens summed into heavy atoms:
               1
     1  O   -0.615348
     2  C    0.198155
     3  C    0.277141
     4  C    0.288645
     5  C    0.461502
     6  C    0.272035
    10  C    0.238177
    14  O   -0.215878
    16  O   -0.235131
    18  O   -0.238779
    20  O   -0.257943
    23  O   -0.213401
    24  O    0.016010
    28  O    0.024814
 APT charges:
               1
     1  O   -0.397588
     2  C   -0.149550
     3  C   -0.353407
     4  C   -0.196108
     5  C   -0.135827
     6  C   -0.251425
     7  H    0.347162
     8  H    0.391514
     9  H    0.298633
    10  C   -0.567112
    11  H    0.316160
    12  H    0.454181
    13  H    0.456704
    14  O   -0.863422
    15  H    0.741365
    16  O   -0.646478
    17  H    0.559338
    18  O   -0.790473
    19  H    0.683645
    20  O   -0.812020
    21  H    0.623240
    22  H    0.308465
    23  O   -0.467723
    24  O   -1.361219
    25  H    0.531084
    26  H    0.284919
    27  H    1.000060
    28  O   -0.981830
    29  H    0.224315
    30  H    0.753397
 Sum of APT charges =  -0.00000
 APT charges with hydrogens summed into heavy atoms:
               1
     1  O   -0.397588
     2  C    0.149084
     3  C    0.103296
     4  C    0.151054
     5  C    0.172638
     6  C    0.140089
    10  C    0.203229
    14  O   -0.122057
    16  O   -0.087141
    18  O   -0.106828
    20  O   -0.188779
    23  O    0.063361
    24  O   -0.076240
    28  O   -0.004119
 Electronic spatial extent (au):  <R**2>=           3297.7495
 Charge=             -0.0000 electrons
 Dipole moment (field-independent basis, Debye):
    X=             -2.6759    Y=              3.8375    Z=              1.4944  Tot=              4.9113
 Quadrupole moment (field-independent basis, Debye-Ang):
   XX=            -72.4239   YY=            -91.8880   ZZ=            -81.5260
   XY=              9.6917   XZ=             -4.1953   YZ=              7.8617
 Traceless Quadrupole moment (field-independent basis, Debye-Ang):
   XX=              9.5220   YY=             -9.9420   ZZ=              0.4200
   XY=              9.6917   XZ=             -4.1953   YZ=              7.8617
 Octapole moment (field-independent basis, Debye-Ang**2):
  XXX=            -84.1304  YYY=             35.2539  ZZZ=             12.1257  XYY=             -2.2304
  XXY=             -3.0533  XXZ=             26.8619  XZZ=             -7.7707  YZZ=              6.4943
  YYZ=             15.7655  XYZ=              1.2604
 Hexadecapole moment (field-independent basis, Debye-Ang**3):
 XXXX=          -1515.3971 YYYY=          -1587.3914 ZZZZ=           -235.7991 XXXY=             63.9642
 XXXZ=            -70.3456 YYYX=            110.5735 YYYZ=             84.1251 ZZZX=            -35.5773
 ZZZY=             15.6872 XXYY=           -606.6616 XXZZ=           -368.7298 YYZZ=           -294.9647
 XXYZ=             24.7286 YYXZ=             31.8708 ZZXY=              0.4395
 N-N= 1.103979930086D+03 E-N=-4.180531410393D+03  KE= 8.329887624750D+02
  Exact polarizability:   0.000   0.000   0.000   0.000   0.000   0.000
 Approx polarizability: 143.006   7.180 128.538   0.756   4.391 120.174

 This type of calculation cannot be archived.


 MICHAEL FARADAY, ASKED BY A POLITICIAN WHAT GOOD
 HIS ELECTRICAL DISCOVERIES WERE, REPLIED 
 "AT PRESENT I DO NOT KNOW, BUT ONE DAY YOU WILL BE
 ABLE TO TAX THEM."
 Job cpu time:       0 days  1 hours  1 minutes 46.6 seconds.
 File lengths (MBytes):  RWF=    220 Int=      0 D2E=      0 Chk=      9 Scr=      1
 Normal termination of Gaussian 09 at Sat Jan 14 00:45:12 2017.
