 Entering Gaussian System, Link 0=g09
 Initial command:
 /global/software/gaussian/g09.e01/l1.exe "/scratch/10461012.yak.local/Gau-30264.inp" -scrdir="/scratch/10461012.yak.local/"
 Entering Link 1 = /global/software/gaussian/g09.e01/l1.exe PID=     30265.
  
 Copyright (c) 1988,1990,1992,1993,1995,1998,2003,2009,2015,
            Gaussian, Inc.  All Rights Reserved.
  
 This is part of the Gaussian(R) 09 program.  It is based on
 the Gaussian(R) 03 system (copyright 2003, Gaussian, Inc.),
 the Gaussian(R) 98 system (copyright 1998, Gaussian, Inc.),
 the Gaussian(R) 94 system (copyright 1995, Gaussian, Inc.),
 the Gaussian 92(TM) system (copyright 1992, Gaussian, Inc.),
 the Gaussian 90(TM) system (copyright 1990, Gaussian, Inc.),
 the Gaussian 88(TM) system (copyright 1988, Gaussian, Inc.),
 the Gaussian 86(TM) system (copyright 1986, Carnegie Mellon
 University), and the Gaussian 82(TM) system (copyright 1983,
 Carnegie Mellon University). Gaussian is a federally registered
 trademark of Gaussian, Inc.
  
 This software contains proprietary and confidential information,
 including trade secrets, belonging to Gaussian, Inc.
  
 This software is provided under written license and may be
 used, copied, transmitted, or stored only in accord with that
 written license.
  
 The following legend is applicable only to US Government
 contracts under FAR:
  
                    RESTRICTED RIGHTS LEGEND
  
 Use, reproduction and disclosure by the US Government is
 subject to restrictions as set forth in subparagraphs (a)
 and (c) of the Commercial Computer Software - Restricted
 Rights clause in FAR 52.227-19.
  
 Gaussian, Inc.
 340 Quinnipiac St., Bldg. 40, Wallingford CT 06492
  
  
 ---------------------------------------------------------------
 Warning -- This program may not be used in any manner that
 competes with the business of Gaussian, Inc. or will provide
 assistance to any competitor of Gaussian, Inc.  The licensee
 of this program is prohibited from giving any competitor of
 Gaussian, Inc. access to this program.  By using this program,
 the user acknowledges that Gaussian, Inc. is engaged in the
 business of creating and licensing software in the field of
 computational chemistry and represents and warrants to the
 licensee that it is not a competitor of Gaussian, Inc. and that
 it will not use this program in any manner prohibited above.
 ---------------------------------------------------------------
  

 Cite this work as:
 Gaussian 09, Revision E.01,
 M. J. Frisch, G. W. Trucks, H. B. Schlegel, G. E. Scuseria, 
 M. A. Robb, J. R. Cheeseman, G. Scalmani, V. Barone, B. Mennucci, 
 G. A. Petersson, H. Nakatsuji, M. Caricato, X. Li, H. P. Hratchian, 
 A. F. Izmaylov, J. Bloino, G. Zheng, J. L. Sonnenberg, M. Hada, 
 M. Ehara, K. Toyota, R. Fukuda, J. Hasegawa, M. Ishida, T. Nakajima, 
 Y. Honda, O. Kitao, H. Nakai, T. Vreven, J. A. Montgomery, Jr., 
 J. E. Peralta, F. Ogliaro, M. Bearpark, J. J. Heyd, E. Brothers, 
 K. N. Kudin, V. N. Staroverov, T. Keith, R. Kobayashi, J. Normand, 
 K. Raghavachari, A. Rendell, J. C. Burant, S. S. Iyengar, J. Tomasi, 
 M. Cossi, N. Rega, J. M. Millam, M. Klene, J. E. Knox, J. B. Cross, 
 V. Bakken, C. Adamo, J. Jaramillo, R. Gomperts, R. E. Stratmann, 
 O. Yazyev, A. J. Austin, R. Cammi, C. Pomelli, J. W. Ochterski, 
 R. L. Martin, K. Morokuma, V. G. Zakrzewski, G. A. Voth, 
 P. Salvador, J. J. Dannenberg, S. Dapprich, A. D. Daniels, 
 O. Farkas, J. B. Foresman, J. V. Ortiz, J. Cioslowski, 
 and D. J. Fox, Gaussian, Inc., Wallingford CT, 2013.
 
 ******************************************
 Gaussian 09:  ES64L-G09RevE.01 30-Nov-2015
                13-Jan-2017 
 ******************************************
 -------------------------------------
 # b3lyp/6-31g(d) irc=(calcfc,reverse)
 -------------------------------------
 1/10=4,14=-1,18=10,22=2,26=3,38=1,44=3/1,23;
 2/12=2,17=6,18=5,29=1,40=1/2;
 3/5=1,6=6,7=1,11=2,16=1,25=1,30=1,71=2,74=-5,140=1/1,2,3;
 4//1;
 5/5=2,38=5/2;
 8/6=4,10=90,11=11/1;
 11/6=1,8=1,9=11,15=111,16=1/1,2,10;
 10/6=1,13=1/2;
 6/7=2,8=2,9=2,10=2,28=1/1;
 7/10=1,18=20,25=1/1,2,3,16;
 1/10=4,14=-1,18=10,22=2,26=3,44=3/23(2);
 2/29=1/2;
 99/5=20/99;
 2/29=1/2;
 3/5=1,6=6,7=1,11=2,16=1,25=1,30=1,71=2,74=-5,140=1/1,2,3;
 4/5=5,16=3,69=1/1;
 5/5=2,38=5/2;
 8/6=4,10=90,11=11/1;
 11/6=1,8=1,9=11,15=111,16=1/1,2,10;
 10/6=1,13=1/2;
 7/10=1,18=20,25=1/1,2,3,16;
 1/14=-1,18=10,22=2,26=3,44=3/23(-8);
 2/29=1/2;
 6/7=2,8=2,9=2,10=2,19=2,28=1/1;
 99/5=20,9=1/99;
 ---------------------------------
 glo_2w_alpha_ts_boat4_B3LYP_631Gd
 ---------------------------------
 Symbolic Z-matrix:
 Charge =  0 Multiplicity = 1
 8                    -0.62648   0.32253   0.56067 
 6                     1.66692   0.18252  -0.24697 
 6                     0.25059  -1.93165  -0.1992 
 6                     1.58186  -1.27565   0.20637 
 6                    -0.87748  -0.93034  -0.51408 
 6                     0.60636   1.04602   0.45779 
 1                     1.6341   -1.29994   1.30564 
 1                     0.96943   1.21988   1.48165 
 1                     1.52097   0.22133  -1.33873 
 6                     0.40348   2.39579  -0.24666 
 1                     0.06921   2.23284  -1.27641 
 1                    -0.3662    2.99001   0.26353 
 1                     0.4364   -2.47663  -1.14175 
 8                     1.6375    3.12006  -0.34531 
 1                     1.83346   3.48931   0.53056 
 8                    -0.17931  -2.80812   0.81667 
 1                    -1.15529  -2.79016   0.74291 
 8                     2.6482   -2.01465  -0.36755 
 1                     3.44475  -1.47488  -0.22406 
 8                     2.97507   0.64627   0.07276 
 1                     3.02278   1.55641  -0.27221 
 1                    -0.72539  -0.39318  -1.46417 
 8                    -2.06575  -1.4001   -0.28771 
 8                    -3.77515   0.24144  -0.87662 
 1                    -3.05484  -0.58429  -0.71188 
 1                    -3.33542   1.00964   0.06745 
 1                    -4.66077  -0.10687  -0.68937 
 8                    -2.7006    1.54268   0.86343 
 1                    -1.67278   0.97555   0.75651 
 1                    -3.0587    1.30982   1.736 
 
 IRC-IRC-IRC-IRC-IRC-IRC-IRC-IRC-IRC-IRC-IRC-IRC-IRC-IRC-IRC-IRC-IRC-IRC
 ------------------------------------------------------------------------
 INPUT DATA FOR L123
 ------------------------------------------------------------------------
 GENERAL PARAMETERS:
 Rxn path following direction = Reverse
 Maximum points per path      =  10
 Step size                    =   0.100 bohr
 Integration scheme           = HPC                                 
    Redo corrector integration= Yes                                 
    DWI Weight Power          =  2
    DWI will use Hessian update vectors when possible.
    Max correction cycles     =  20
 Initial Hessian              = CalcFC
 Hessian evaluation           = All updating
 Hessian updating method      = Bofill                              
 ------------------------------------------------------------------------
 IRC-IRC-IRC-IRC-IRC-IRC-IRC-IRC-IRC-IRC-IRC-IRC-IRC-IRC-IRC-IRC-IRC-IRC
                          Input orientation:                          
 ---------------------------------------------------------------------
 Center     Atomic      Atomic             Coordinates (Angstroms)
 Number     Number       Type             X           Y           Z
 ---------------------------------------------------------------------
      1          8           0       -0.626483    0.322533    0.560673
      2          6           0        1.666915    0.182524   -0.246974
      3          6           0        0.250591   -1.931647   -0.199200
      4          6           0        1.581864   -1.275651    0.206372
      5          6           0       -0.877477   -0.930342   -0.514080
      6          6           0        0.606356    1.046021    0.457788
      7          1           0        1.634100   -1.299941    1.305640
      8          1           0        0.969430    1.219879    1.481650
      9          1           0        1.520974    0.221329   -1.338733
     10          6           0        0.403475    2.395791   -0.246657
     11          1           0        0.069208    2.232835   -1.276409
     12          1           0       -0.366202    2.990012    0.263527
     13          1           0        0.436397   -2.476627   -1.141752
     14          8           0        1.637504    3.120060   -0.345309
     15          1           0        1.833457    3.489309    0.530561
     16          8           0       -0.179306   -2.808116    0.816674
     17          1           0       -1.155290   -2.790157    0.742909
     18          8           0        2.648198   -2.014648   -0.367545
     19          1           0        3.444748   -1.474879   -0.224059
     20          8           0        2.975070    0.646270    0.072755
     21          1           0        3.022784    1.556410   -0.272209
     22          1           0       -0.725394   -0.393184   -1.464169
     23          8           0       -2.065748   -1.400102   -0.287708
     24          8           0       -3.775146    0.241444   -0.876618
     25          1           0       -3.054838   -0.584288   -0.711876
     26          1           0       -3.335417    1.009644    0.067454
     27          1           0       -4.660765   -0.106871   -0.689372
     28          8           0       -2.700595    1.542682    0.863431
     29          1           0       -1.672784    0.975548    0.756512
     30          1           0       -3.058698    1.309824    1.735997
 ---------------------------------------------------------------------
                    Distance matrix (angstroms):
                    1          2          3          4          5
     1  O    0.000000
     2  C    2.435482   0.000000
     3  C    2.535349   2.545187   0.000000
     4  C    2.748912   1.529389   1.538541   0.000000
     5  C    1.669667   2.789937   1.540876   2.585855   0.000000
     6  C    1.433148   1.538539   3.069969   2.530808   2.655616
     7  H    2.880561   2.146949   2.139554   1.100776   3.123460
     8  H    2.049480   2.133244   3.643364   2.868637   3.466620
     9  H    2.868720   1.102153   2.747310   2.152210   2.785492
    10  C    2.451733   2.548496   4.330398   3.882438   3.574285
    11  H    2.740093   2.795743   4.305368   4.098322   3.388664
    12  H    2.696569   3.503736   4.981694   4.689788   4.029299
    13  H    3.444309   3.063639   1.104505   2.138195   2.123967
    14  O    3.711145   2.939329   5.240670   4.430544   4.770678
    15  H    4.010073   3.401047   5.694276   4.782598   5.289022
    16  O    3.172770   3.672030   1.408904   2.413014   2.405075
    17  H    3.162544   4.216817   1.897659   3.173895   2.261883
    18  O    4.128867   2.409361   2.404943   1.418649   3.691555
    19  H    4.519006   2.430679   3.226747   1.922316   4.366035
    20  O    3.648843   1.424274   3.760638   2.377532   4.203831
    21  H    3.941230   1.930435   4.456111   3.213388   4.631897
    22  H    2.149888   2.745204   2.218008   2.982096   1.101970
    23  O    2.399730   4.054521   2.378193   3.683025   1.297654
    24  O    3.462147   5.478682   4.624692   5.672037   3.146586
    25  H    2.887666   4.806151   3.606116   4.777046   2.213544
    26  H    2.837906   5.079992   4.645616   5.424161   3.184839
    27  H    4.245283   6.349724   5.262271   6.413955   3.875835
    28  O    2.425359   4.707247   4.680774   5.168576   3.367067
    29  H    1.248810   3.576236   3.614490   3.995408   2.424734
    30  H    2.876074   5.247323   5.020310   5.528042   3.852131
                    6          7          8          9         10
     6  C    0.000000
     7  H    2.697897   0.000000
     8  H    1.100156   2.611945   0.000000
     9  H    2.178103   3.052830   3.042345   0.000000
    10  C    1.535996   4.193149   2.165668   2.677633   0.000000
    11  H    2.168985   4.647190   3.073007   2.481464   1.094842
    12  H    2.182363   4.846742   2.530041   3.714065   1.098084
    13  H    3.872527   2.967964   4.564046   2.914460   4.954063
    14  O    2.451503   4.718268   2.719336   3.066449   1.434268
    15  H    2.735092   4.855657   2.607954   3.777777   1.960790
    16  O    3.949739   2.408759   4.241053   4.088309   5.343309
    17  H    4.230952   3.212181   4.597887   4.534829   5.504820
    18  O    3.770675   2.082966   4.086557   2.685784   4.950290
    19  H    3.856983   2.376769   4.037123   2.796520   4.922595
    20  O    2.432870   2.665698   2.517261   2.070572   3.126651
    21  H    2.575367   3.546377   2.721312   2.274939   2.750635
    22  H    2.745685   3.749835   3.761948   2.332280   3.245776
    23  O    3.698570   4.029599   4.382606   4.074097   4.528526
    24  O    4.650327   6.033080   5.387928   5.316281   4.743304
    25  H    4.174969   5.154481   4.925577   4.688286   4.588816
    26  H    3.961219   5.618130   4.536062   5.116966   3.999923
    27  H    5.512504   6.710351   6.178406   6.224410   5.666202
    28  O    3.368552   5.202464   3.735703   4.941371   3.405193
    29  H    2.299713   4.051527   2.750785   3.893455   2.708189
    30  H    3.890505   5.386876   4.037152   5.622471   4.134838
                   11         12         13         14         15
    11  H    0.000000
    12  H    1.770396   0.000000
    13  H    4.725674   5.701150   0.000000
    14  O    2.028218   2.098197   5.779263   0.000000
    15  H    2.820717   2.271366   6.351441   0.970511   0.000000
    16  O    5.463876   5.827451   2.079521   6.308270   6.617449
    17  H    5.550449   5.853445   2.486708   6.626808   6.957686
    18  O    5.051568   5.876349   2.388490   5.233280   5.635951
    19  H    5.123364   5.890359   3.300884   4.939058   5.273412
    20  O    3.575118   4.085783   4.203852   2.843149   3.097699
    21  H    3.192112   3.718528   4.869383   2.090298   2.407288
    22  H    2.750022   3.815753   2.407166   4.379271   5.059686
    23  O    4.328256   4.739770   2.854650   5.843737   6.307115
    24  O    4.347934   4.524981   5.019492   6.153495   6.632134
    25  H    4.244354   4.577750   3.994304   5.989544   6.483307
    26  H    3.859227   3.574429   5.276632   5.417949   5.751562
    27  H    5.309565   5.379774   5.639278   7.085172   7.523009
    28  O    3.567497   2.811412   5.478715   4.771612   4.945481
    29  H    2.957714   2.451174   4.468732   4.095235   4.320159
    30  H    4.439632   3.498676   5.902062   5.446384   5.489664
                   16         17         18         19         20
    16  O    0.000000
    17  H    0.978932   0.000000
    18  O    3.166504   4.037455   0.000000
    19  H    3.999302   4.881120   0.972847   0.000000
    20  O    4.736696   5.414611   2.716835   2.192708   0.000000
    21  H    5.521606   6.113870   3.591916   3.060896   0.974490
    22  H    3.366356   3.286561   3.900366   4.483082   4.139569
    23  O    2.600159   1.955341   4.754506   5.511371   5.452286
    24  O    5.009703   4.321703   6.827038   7.449729   6.828661
    25  H    3.943420   3.254311   5.889746   6.578430   6.204008
    26  H    5.009756   4.432570   6.718572   7.226927   6.320943
    27  H    5.445032   4.641100   7.560696   8.233305   7.710644
    28  O    5.028770   4.601737   6.540603   6.932067   5.800163
    29  H    4.068195   3.801121   5.373608   5.758059   4.709405
    30  H    5.108178   4.628070   6.931498   7.341063   6.293889
                   21         22         23         24         25
    21  H    0.000000
    22  H    4.389820   0.000000
    23  O    5.885097   2.048046   0.000000
    24  O    6.950273   3.170009   2.442034   0.000000
    25  H    6.458590   2.455356   1.350470   1.108069   0.000000
    26  H    6.390700   3.335568   2.746830   1.294127   1.796301
    27  H    7.872576   4.021123   2.927096   0.969900   1.675540
    28  O    5.834975   3.614792   3.223062   2.423974   2.670409
    29  H    4.841903   2.775320   2.624601   2.761512   2.549377
    30  H    6.409221   4.311103   3.524916   2.912128   3.095118
                   26         27         28         29         30
    26  H    0.000000
    27  H    1.891015   0.000000
    28  O    1.149221   2.995745   0.000000
    29  H    1.800087   3.491453   1.178757   0.000000
    30  H    1.717765   3.233583   0.971510   1.729708   0.000000
 Symmetry turned off by external request.
 Stoichiometry    C6H16O8
 Framework group  C1[X(C6H16O8)]
 Deg. of freedom    84
 Full point group                 C1      NOp   1
 Rotational constants (GHZ):      0.7169958      0.5300926      0.3328667
 Standard basis: 6-31G(d) (6D, 7F)
   242 basis functions,   456 primitive gaussians,   242 cartesian basis functions
    58 alpha electrons       58 beta electrons
       nuclear repulsion energy      1103.6035990466 Hartrees.
 NAtoms=   30 NActive=   30 NUniq=   30 SFac= 1.00D+00 NAtFMM=   60 NAOKFM=F Big=F
 Integral buffers will be    131072 words long.
 Raffenetti 2 integral format.
 Two-electron integral symmetry is turned off.
 One-electron integrals computed using PRISM.
 NBasis=   242 RedAO= T EigKep=  1.36D-03  NBF=   242
 NBsUse=   242 1.00D-06 EigRej= -1.00D+00 NBFU=   242
 ExpMin= 1.61D-01 ExpMax= 5.48D+03 ExpMxC= 8.25D+02 IAcc=1 IRadAn=         1 AccDes= 0.00D+00
 Harris functional with IExCor=  402 and IRadAn=       1 diagonalized for initial guess.
 HarFok:  IExCor=  402 AccDes= 0.00D+00 IRadAn=         1 IDoV= 1 UseB2=F ITyADJ=14
 ICtDFT=  3500011 ScaDFX=  1.000000  1.000000  1.000000  1.000000
 FoFCou: FMM=F IPFlag=           0 FMFlag=      100000 FMFlg1=           0
         NFxFlg=           0 DoJE=T BraDBF=F KetDBF=T FulRan=T
         wScrn=  0.000000 ICntrl=     500 IOpCl=  0 I1Cent=   200000004 NGrid=           0
         NMat0=    1 NMatS0=      1 NMatT0=    0 NMatD0=    1 NMtDS0=    0 NMtDT0=    0
 Symmetry not used in FoFCou.
 Requested convergence on RMS density matrix=1.00D-08 within 128 cycles.
 Requested convergence on MAX density matrix=1.00D-06.
 Requested convergence on             energy=1.00D-06.
 No special actions if energy rises.
 Integral accuracy reduced to 1.0D-05 until final iterations.
 Initial convergence to 1.0D-05 achieved.  Increase integral accuracy.
 SCF Done:  E(RB3LYP) =  -839.961546095     A.U. after   14 cycles
            NFock= 14  Conv=0.65D-08     -V/T= 2.0086
 DoSCS=F DFT=T ScalE2(SS,OS)=  1.000000  1.000000
 Range of M.O.s used for correlation:     1   242
 NBasis=   242 NAE=    58 NBE=    58 NFC=     0 NFV=     0
 NROrb=    242 NOA=    58 NOB=    58 NVA=   184 NVB=   184
 Symmetrizing basis deriv contribution to polar:
 IMax=3 JMax=2 DiffMx= 0.00D+00
 G2DrvN: will do    31 centers at a time, making    1 passes.
 Calling FoFCou, ICntrl=  3107 FMM=F I1Cent=   0 AccDes= 0.00D+00.
 End of G2Drv F.D. properties file   721 does not exist.
 End of G2Drv F.D. properties file   722 does not exist.
 End of G2Drv F.D. properties file   788 does not exist.
          IDoAtm=111111111111111111111111111111
          Differentiating once with respect to nuclear coordinates.
          There are    93 degrees of freedom in the 1st order CPHF.  IDoFFX=6 NUNeed=     0.
     87 vectors produced by pass  0 Test12= 1.15D-14 1.08D-09 XBig12= 1.14D-01 6.98D-02.
 AX will form    87 AO Fock derivatives at one time.
     87 vectors produced by pass  1 Test12= 1.15D-14 1.08D-09 XBig12= 1.17D-02 1.16D-02.
     87 vectors produced by pass  2 Test12= 1.15D-14 1.08D-09 XBig12= 1.28D-04 2.07D-03.
     87 vectors produced by pass  3 Test12= 1.15D-14 1.08D-09 XBig12= 3.09D-07 5.63D-05.
     87 vectors produced by pass  4 Test12= 1.15D-14 1.08D-09 XBig12= 4.19D-10 1.94D-06.
     67 vectors produced by pass  5 Test12= 1.15D-14 1.08D-09 XBig12= 3.48D-13 6.70D-08.
      3 vectors produced by pass  6 Test12= 1.15D-14 1.08D-09 XBig12= 2.84D-16 1.58D-09.
 InvSVY:  IOpt=1 It=  1 EMax= 4.44D-16
 Solved reduced A of dimension   505 with    93 vectors.
 End of Minotr F.D. properties file   721 does not exist.
 End of Minotr F.D. properties file   722 does not exist.
 End of Minotr F.D. properties file   788 does not exist.

 **********************************************************************

            Population analysis using the SCF density.

 **********************************************************************

 Alpha  occ. eigenvalues --  -19.18919 -19.18105 -19.17339 -19.16247 -19.15132
 Alpha  occ. eigenvalues --  -19.12817 -19.11675 -19.11349 -10.28421 -10.25274
 Alpha  occ. eigenvalues --  -10.25249 -10.24076 -10.22559 -10.22309  -1.06603
 Alpha  occ. eigenvalues --   -1.05095  -1.03668  -1.02815  -1.01758  -1.00393
 Alpha  occ. eigenvalues --   -0.99409  -0.97369  -0.77821  -0.75169  -0.68746
 Alpha  occ. eigenvalues --   -0.63560  -0.62505  -0.57480  -0.55864  -0.55277
 Alpha  occ. eigenvalues --   -0.53729  -0.53385  -0.52576  -0.50385  -0.49534
 Alpha  occ. eigenvalues --   -0.48782  -0.46031  -0.45397  -0.44326  -0.42922
 Alpha  occ. eigenvalues --   -0.41397  -0.41127  -0.39859  -0.38928  -0.37331
 Alpha  occ. eigenvalues --   -0.37015  -0.36311  -0.34655  -0.33106  -0.32767
 Alpha  occ. eigenvalues --   -0.32379  -0.30810  -0.29080  -0.27747  -0.26900
 Alpha  occ. eigenvalues --   -0.25948  -0.25632  -0.23590
 Alpha virt. eigenvalues --    0.03413   0.04302   0.06894   0.08228   0.08481
 Alpha virt. eigenvalues --    0.09294   0.11470   0.12767   0.13613   0.14624
 Alpha virt. eigenvalues --    0.15795   0.16461   0.17206   0.18277   0.19270
 Alpha virt. eigenvalues --    0.19662   0.21061   0.23308   0.24510   0.25120
 Alpha virt. eigenvalues --    0.25662   0.26567   0.28238   0.30304   0.30499
 Alpha virt. eigenvalues --    0.32766   0.34127   0.39286   0.51082   0.52285
 Alpha virt. eigenvalues --    0.53466   0.55534   0.57052   0.58068   0.60692
 Alpha virt. eigenvalues --    0.61194   0.62130   0.63717   0.64858   0.65798
 Alpha virt. eigenvalues --    0.67307   0.68669   0.72040   0.72847   0.73408
 Alpha virt. eigenvalues --    0.75293   0.76515   0.77375   0.77930   0.79973
 Alpha virt. eigenvalues --    0.80343   0.80814   0.83552   0.83899   0.84724
 Alpha virt. eigenvalues --    0.85557   0.85873   0.87217   0.88000   0.89837
 Alpha virt. eigenvalues --    0.90278   0.91532   0.92843   0.93878   0.94607
 Alpha virt. eigenvalues --    0.96923   0.97098   1.00297   1.00611   1.02455
 Alpha virt. eigenvalues --    1.03773   1.05272   1.06425   1.08107   1.08877
 Alpha virt. eigenvalues --    1.09648   1.11046   1.14002   1.15437   1.16843
 Alpha virt. eigenvalues --    1.18558   1.20349   1.21413   1.26815   1.28017
 Alpha virt. eigenvalues --    1.29782   1.31614   1.33418   1.37134   1.40477
 Alpha virt. eigenvalues --    1.43331   1.46460   1.47004   1.50378   1.52349
 Alpha virt. eigenvalues --    1.53396   1.55107   1.56820   1.59466   1.59809
 Alpha virt. eigenvalues --    1.61242   1.65248   1.67131   1.68531   1.69849
 Alpha virt. eigenvalues --    1.70028   1.70800   1.72153   1.72413   1.73786
 Alpha virt. eigenvalues --    1.74773   1.75757   1.76649   1.77681   1.79879
 Alpha virt. eigenvalues --    1.80178   1.82696   1.84094   1.85453   1.86460
 Alpha virt. eigenvalues --    1.89346   1.90893   1.91783   1.93892   1.95376
 Alpha virt. eigenvalues --    1.97006   1.99892   2.01639   2.04003   2.04189
 Alpha virt. eigenvalues --    2.07732   2.10073   2.11175   2.12640   2.15635
 Alpha virt. eigenvalues --    2.20728   2.22925   2.25021   2.27945   2.29434
 Alpha virt. eigenvalues --    2.31173   2.32905   2.35977   2.39394   2.40569
 Alpha virt. eigenvalues --    2.41476   2.45854   2.48484   2.49767   2.50869
 Alpha virt. eigenvalues --    2.53097   2.54443   2.56906   2.59238   2.61602
 Alpha virt. eigenvalues --    2.61729   2.65669   2.67697   2.71947   2.75336
 Alpha virt. eigenvalues --    2.77834   2.81574   2.82783   2.85904   2.91360
 Alpha virt. eigenvalues --    2.94431   2.96796   2.98086   3.01574   3.08827
 Alpha virt. eigenvalues --    3.73053   3.74976   3.80791   3.84845   3.88479
 Alpha virt. eigenvalues --    3.95012   4.06579   4.19501   4.24542   4.38006
 Alpha virt. eigenvalues --    4.45678   4.48046   4.66057   4.82096
          Condensed to atoms (all electrons):
               1          2          3          4          5          6
     1  O    8.651523  -0.025635  -0.023734  -0.000156   0.055605   0.120015
     2  C   -0.025635   5.002770  -0.024022   0.318135  -0.000741   0.288924
     3  C   -0.023734  -0.024022   4.980000   0.311362   0.284818  -0.010978
     4  C   -0.000156   0.318135   0.311362   4.914307  -0.031882  -0.033847
     5  C    0.055605  -0.000741   0.284818  -0.031882   4.761446  -0.010007
     6  C    0.120015   0.288924  -0.010978  -0.033847  -0.010007   5.046337
     7  H    0.001061  -0.054128  -0.049416   0.346528   0.001189  -0.001394
     8  H   -0.032485  -0.045173   0.000099  -0.007986   0.001547   0.352600
     9  H    0.002275   0.345267  -0.005529  -0.045271  -0.000014  -0.056240
    10  C   -0.025846  -0.032861  -0.000174   0.003911  -0.001779   0.327795
    11  H    0.003326  -0.009908   0.000006  -0.000075   0.000758  -0.040691
    12  H    0.001531   0.004971  -0.000007  -0.000095  -0.000064  -0.044112
    13  H    0.002616  -0.000165   0.339441  -0.056030  -0.045196   0.000841
    14  O    0.001542   0.001526  -0.000001   0.000089   0.000041  -0.040033
    15  H    0.000012  -0.001750   0.000001  -0.000009  -0.000001  -0.001127
    16  O   -0.000350   0.002280   0.256881  -0.045817  -0.020181   0.000627
    17  H    0.000863  -0.000349  -0.049135   0.006826  -0.017982   0.000005
    18  O    0.000018  -0.032529  -0.036125   0.233264   0.001801   0.003559
    19  H   -0.000009  -0.014038   0.006456  -0.030369  -0.000260   0.000816
    20  O    0.001402   0.222428   0.002250  -0.037358   0.000219  -0.041287
    21  H    0.000029  -0.021494  -0.000201   0.005259   0.000003  -0.004870
    22  H   -0.054709  -0.003154  -0.073590   0.001551   0.351374   0.007271
    23  O   -0.048828   0.000174  -0.043493   0.001997   0.335991   0.001946
    24  O   -0.000837   0.000000  -0.000169   0.000001   0.008343   0.000011
    25  H    0.002592   0.000010   0.002571  -0.000033  -0.016049  -0.000155
    26  H    0.004760   0.000009   0.000070  -0.000003  -0.000439  -0.000179
    27  H    0.000012  -0.000000   0.000001  -0.000000  -0.000292   0.000001
    28  O   -0.094779  -0.000076  -0.000051   0.000004   0.002981   0.004047
    29  H    0.104236   0.001652   0.000641   0.000000  -0.001202  -0.005730
    30  H    0.004465   0.000004   0.000002  -0.000000  -0.000173  -0.000047
               7          8          9         10         11         12
     1  O    0.001061  -0.032485   0.002275  -0.025846   0.003326   0.001531
     2  C   -0.054128  -0.045173   0.345267  -0.032861  -0.009908   0.004971
     3  C   -0.049416   0.000099  -0.005529  -0.000174   0.000006  -0.000007
     4  C    0.346528  -0.007986  -0.045271   0.003911  -0.000075  -0.000095
     5  C    0.001189   0.001547  -0.000014  -0.001779   0.000758  -0.000064
     6  C   -0.001394   0.352600  -0.056240   0.327795  -0.040691  -0.044112
     7  H    0.635139   0.005004   0.007830   0.000003   0.000002   0.000008
     8  H    0.005004   0.631742   0.007451  -0.058220   0.005902  -0.004893
     9  H    0.007830   0.007451   0.662075  -0.008392   0.005350   0.000089
    10  C    0.000003  -0.058220  -0.008392   4.963973   0.370531   0.363025
    11  H    0.000002   0.005902   0.005350   0.370531   0.563016  -0.036795
    12  H    0.000008  -0.004893   0.000089   0.363025  -0.036795   0.588889
    13  H    0.006957   0.000012   0.002694   0.000016  -0.000005  -0.000000
    14  O   -0.000011   0.002232   0.000119   0.219580  -0.033800  -0.026574
    15  H    0.000001   0.004724   0.000155  -0.029233   0.006854  -0.008279
    16  O    0.005537   0.000010  -0.000019  -0.000002   0.000000  -0.000000
    17  H   -0.000090   0.000007   0.000012  -0.000001   0.000000   0.000000
    18  O   -0.039811  -0.000074   0.001986  -0.000054  -0.000002   0.000000
    19  H   -0.001951   0.000026   0.000053  -0.000015   0.000000   0.000000
    20  O   -0.001615   0.004976  -0.040858  -0.000125   0.000081  -0.000217
    21  H   -0.000236  -0.000266  -0.004478  -0.004196  -0.000064   0.000450
    22  H   -0.000017  -0.000338   0.001578   0.000093   0.001162  -0.000015
    23  O   -0.000081  -0.000077   0.000037  -0.000018  -0.000037   0.000005
    24  O   -0.000000   0.000000   0.000000  -0.000015   0.000010   0.000013
    25  H    0.000001   0.000004  -0.000001   0.000009  -0.000005  -0.000009
    26  H    0.000000   0.000003  -0.000000   0.000040   0.000029   0.000146
    27  H    0.000000  -0.000000   0.000000   0.000000  -0.000000  -0.000000
    28  O    0.000001   0.000065   0.000005  -0.000774   0.000052   0.004131
    29  H   -0.000052  -0.001548  -0.000142  -0.001097  -0.000526   0.002657
    30  H   -0.000000   0.000016  -0.000000  -0.000038   0.000002  -0.000007
              13         14         15         16         17         18
     1  O    0.002616   0.001542   0.000012  -0.000350   0.000863   0.000018
     2  C   -0.000165   0.001526  -0.001750   0.002280  -0.000349  -0.032529
     3  C    0.339441  -0.000001   0.000001   0.256881  -0.049135  -0.036125
     4  C   -0.056030   0.000089  -0.000009  -0.045817   0.006826   0.233264
     5  C   -0.045196   0.000041  -0.000001  -0.020181  -0.017982   0.001801
     6  C    0.000841  -0.040033  -0.001127   0.000627   0.000005   0.003559
     7  H    0.006957  -0.000011   0.000001   0.005537  -0.000090  -0.039811
     8  H    0.000012   0.002232   0.004724   0.000010   0.000007  -0.000074
     9  H    0.002694   0.000119   0.000155  -0.000019   0.000012   0.001986
    10  C    0.000016   0.219580  -0.029233  -0.000002  -0.000001  -0.000054
    11  H   -0.000005  -0.033800   0.006854   0.000000   0.000000  -0.000002
    12  H   -0.000000  -0.026574  -0.008279  -0.000000   0.000000   0.000000
    13  H    0.639098  -0.000000  -0.000000  -0.039095   0.002212   0.003701
    14  O   -0.000000   8.227956   0.235074   0.000000  -0.000000  -0.000000
    15  H   -0.000000   0.235074   0.390311  -0.000000  -0.000000   0.000000
    16  O   -0.039095   0.000000  -0.000000   8.283352   0.228878   0.001058
    17  H    0.002212  -0.000000  -0.000000   0.228878   0.367987  -0.000152
    18  O    0.003701  -0.000000   0.000000   0.001058  -0.000152   8.284209
    19  H   -0.000228   0.000006  -0.000001  -0.000154   0.000016   0.233961
    20  O   -0.000141  -0.011916   0.002006  -0.000009   0.000001  -0.007379
    21  H    0.000009   0.042407  -0.002268   0.000001  -0.000000   0.000121
    22  H    0.003724  -0.000029  -0.000001   0.003014   0.002437  -0.000020
    23  O   -0.001647   0.000000  -0.000000  -0.022222   0.051566  -0.000009
    24  O    0.000002   0.000000  -0.000000  -0.000002   0.000089  -0.000000
    25  H   -0.000133  -0.000000   0.000000   0.000075  -0.000543   0.000000
    26  H   -0.000001   0.000000   0.000000  -0.000000  -0.000013   0.000000
    27  H   -0.000000  -0.000000  -0.000000   0.000001  -0.000014   0.000000
    28  O    0.000001   0.000007   0.000001   0.000001   0.000004   0.000000
    29  H   -0.000047  -0.000029  -0.000018  -0.000050  -0.000016   0.000001
    30  H   -0.000000  -0.000000  -0.000000  -0.000000   0.000001   0.000000
              19         20         21         22         23         24
     1  O   -0.000009   0.001402   0.000029  -0.054709  -0.048828  -0.000837
     2  C   -0.014038   0.222428  -0.021494  -0.003154   0.000174   0.000000
     3  C    0.006456   0.002250  -0.000201  -0.073590  -0.043493  -0.000169
     4  C   -0.030369  -0.037358   0.005259   0.001551   0.001997   0.000001
     5  C   -0.000260   0.000219   0.000003   0.351374   0.335991   0.008343
     6  C    0.000816  -0.041287  -0.004870   0.007271   0.001946   0.000011
     7  H   -0.001951  -0.001615  -0.000236  -0.000017  -0.000081  -0.000000
     8  H    0.000026   0.004976  -0.000266  -0.000338  -0.000077   0.000000
     9  H    0.000053  -0.040858  -0.004478   0.001578   0.000037   0.000000
    10  C   -0.000015  -0.000125  -0.004196   0.000093  -0.000018  -0.000015
    11  H    0.000000   0.000081  -0.000064   0.001162  -0.000037   0.000010
    12  H    0.000000  -0.000217   0.000450  -0.000015   0.000005   0.000013
    13  H   -0.000228  -0.000141   0.000009   0.003724  -0.001647   0.000002
    14  O    0.000006  -0.011916   0.042407  -0.000029   0.000000   0.000000
    15  H   -0.000001   0.002006  -0.002268  -0.000001  -0.000000  -0.000000
    16  O   -0.000154  -0.000009   0.000001   0.003014  -0.022222  -0.000002
    17  H    0.000016   0.000001  -0.000000   0.002437   0.051566   0.000089
    18  O    0.233961  -0.007379   0.000121  -0.000020  -0.000009  -0.000000
    19  H    0.374265   0.024982  -0.000543   0.000009   0.000001   0.000000
    20  O    0.024982   8.327953   0.223356   0.000005  -0.000000   0.000000
    21  H   -0.000543   0.223356   0.355854  -0.000007  -0.000000  -0.000000
    22  H    0.000009   0.000005  -0.000007   0.699839  -0.052957   0.002282
    23  O    0.000001  -0.000000  -0.000000  -0.052957   8.405801  -0.089061
    24  O    0.000000   0.000000  -0.000000   0.002282  -0.089061   8.500097
    25  H   -0.000000  -0.000000   0.000000  -0.005933   0.124605   0.136055
    26  H   -0.000000  -0.000000   0.000000  -0.000178   0.005630   0.136332
    27  H   -0.000000  -0.000000  -0.000000  -0.000080   0.004296   0.230166
    28  O   -0.000000   0.000000  -0.000000  -0.000234  -0.002364  -0.098358
    29  H    0.000000  -0.000014   0.000003   0.001353   0.007057   0.004194
    30  H    0.000000  -0.000000   0.000000   0.000014   0.000410   0.004652
              25         26         27         28         29         30
     1  O    0.002592   0.004760   0.000012  -0.094779   0.104236   0.004465
     2  C    0.000010   0.000009  -0.000000  -0.000076   0.001652   0.000004
     3  C    0.002571   0.000070   0.000001  -0.000051   0.000641   0.000002
     4  C   -0.000033  -0.000003  -0.000000   0.000004   0.000000  -0.000000
     5  C   -0.016049  -0.000439  -0.000292   0.002981  -0.001202  -0.000173
     6  C   -0.000155  -0.000179   0.000001   0.004047  -0.005730  -0.000047
     7  H    0.000001   0.000000   0.000000   0.000001  -0.000052  -0.000000
     8  H    0.000004   0.000003  -0.000000   0.000065  -0.001548   0.000016
     9  H   -0.000001  -0.000000   0.000000   0.000005  -0.000142  -0.000000
    10  C    0.000009   0.000040   0.000000  -0.000774  -0.001097  -0.000038
    11  H   -0.000005   0.000029  -0.000000   0.000052  -0.000526   0.000002
    12  H   -0.000009   0.000146  -0.000000   0.004131   0.002657  -0.000007
    13  H   -0.000133  -0.000001  -0.000000   0.000001  -0.000047  -0.000000
    14  O   -0.000000   0.000000  -0.000000   0.000007  -0.000029  -0.000000
    15  H    0.000000   0.000000  -0.000000   0.000001  -0.000018  -0.000000
    16  O    0.000075  -0.000000   0.000001   0.000001  -0.000050  -0.000000
    17  H   -0.000543  -0.000013  -0.000014   0.000004  -0.000016   0.000001
    18  O    0.000000   0.000000   0.000000   0.000000   0.000001   0.000000
    19  H   -0.000000  -0.000000  -0.000000  -0.000000   0.000000   0.000000
    20  O   -0.000000  -0.000000  -0.000000   0.000000  -0.000014  -0.000000
    21  H    0.000000   0.000000  -0.000000  -0.000000   0.000003   0.000000
    22  H   -0.005933  -0.000178  -0.000080  -0.000234   0.001353   0.000014
    23  O    0.124605   0.005630   0.004296  -0.002364   0.007057   0.000410
    24  O    0.136055   0.136332   0.230166  -0.098358   0.004194   0.004652
    25  H    0.306267  -0.013288  -0.004005   0.008142  -0.000726  -0.000336
    26  H   -0.013288   0.292297  -0.004818   0.129975  -0.007285  -0.004432
    27  H   -0.004005  -0.004818   0.367596   0.004080  -0.000120  -0.000276
    28  O    0.008142   0.129975   0.004080   8.495527   0.136210   0.231526
    29  H   -0.000726  -0.007285  -0.000120   0.136210   0.282367  -0.005002
    30  H   -0.000336  -0.004432  -0.000276   0.231526  -0.005002   0.356298
 Mulliken charges:
               1
     1  O   -0.650514
     2  C    0.077872
     3  C    0.132025
     4  C    0.145697
     5  C    0.340142
     6  C    0.135899
     7  H    0.139544
     8  H    0.134641
     9  H    0.123966
    10  C   -0.086139
    11  H    0.164827
    12  H    0.155153
    13  H    0.141362
    14  O   -0.618183
    15  H    0.403548
    16  O   -0.653812
    17  H    0.407392
    18  O   -0.647524
    19  H    0.406976
    20  O   -0.668743
    21  H    0.411130
    22  H    0.115554
    23  O   -0.678718
    24  O   -0.833807
    25  H    0.460884
    26  H    0.461345
    27  H    0.403452
    28  O   -0.820123
    29  H    0.483232
    30  H    0.412923
 Sum of Mulliken charges =  -0.00000
 Mulliken charges with hydrogens summed into heavy atoms:
               1
     1  O   -0.650514
     2  C    0.201838
     3  C    0.273387
     4  C    0.285241
     5  C    0.455696
     6  C    0.270540
    10  C    0.233841
    14  O   -0.214635
    16  O   -0.246420
    18  O   -0.240548
    20  O   -0.257612
    23  O   -0.678718
    24  O    0.030528
    28  O    0.537377
 APT charges:
               1
     1  O   -0.393617
     2  C   -0.144527
     3  C   -0.345805
     4  C   -0.197420
     5  C   -0.175883
     6  C   -0.267419
     7  H    0.344770
     8  H    0.389494
     9  H    0.300252
    10  C   -0.566717
    11  H    0.316370
    12  H    0.448661
    13  H    0.453330
    14  O   -0.863231
    15  H    0.741032
    16  O   -0.620199
    17  H    0.529100
    18  O   -0.790442
    19  H    0.682875
    20  O   -0.808458
    21  H    0.621584
    22  H    0.283621
    23  O   -0.405392
    24  O   -1.350821
    25  H    0.323362
    26  H    0.404160
    27  H    1.012365
    28  O   -1.080823
    29  H    0.396725
    30  H    0.763053
 Sum of APT charges =  -0.00000
 APT charges with hydrogens summed into heavy atoms:
               1
     1  O   -0.393617
     2  C    0.155725
     3  C    0.107525
     4  C    0.147350
     5  C    0.107738
     6  C    0.122075
    10  C    0.198315
    14  O   -0.122198
    16  O   -0.091100
    18  O   -0.107568
    20  O   -0.186874
    23  O   -0.405392
    24  O   -0.015094
    28  O    0.483115
 Electronic spatial extent (au):  <R**2>=           3294.0348
 Charge=             -0.0000 electrons
 Dipole moment (field-independent basis, Debye):
    X=             -3.2270    Y=              5.0694    Z=              1.8353  Tot=              6.2834
 Quadrupole moment (field-independent basis, Debye-Ang):
   XX=            -70.3683   YY=            -92.9949   ZZ=            -81.4562
   XY=              7.4574   XZ=             -4.9683   YZ=              8.3154
 Traceless Quadrupole moment (field-independent basis, Debye-Ang):
   XX=             11.2381   YY=            -11.3884   ZZ=              0.1503
   XY=              7.4574   XZ=             -4.9683   YZ=              8.3154
 Octapole moment (field-independent basis, Debye-Ang**2):
  XXX=            -97.7086  YYY=             47.7666  ZZZ=             12.4897  XYY=             -4.6902
  XXY=              5.0551  XXZ=             27.8315  XZZ=            -11.0293  YZZ=              9.6674
  YYZ=             15.3755  XYZ=              0.1106
 Hexadecapole moment (field-independent basis, Debye-Ang**3):
 XXXX=          -1492.7437 YYYY=          -1602.3893 ZZZZ=           -236.3796 XXXY=             54.4550
 XXXZ=            -70.5186 YYYX=            102.0143 YYYZ=             85.5391 ZZZX=            -37.7019
 ZZZY=             15.4685 XXYY=           -605.6211 XXZZ=           -363.5396 YYZZ=           -295.9982
 XXYZ=             27.7739 YYXZ=             29.9801 ZZXY=             -1.4600
 N-N= 1.103603599047D+03 E-N=-4.179901064081D+03  KE= 8.328148055675D+02
  Exact polarizability:   0.000   0.000   0.000   0.000   0.000   0.000
 Approx polarizability: 151.179   6.922 132.303   1.322   4.358 121.851
 Calling FoFJK, ICntrl=    100147 FMM=F ISym2X=0 I1Cent= 0 IOpClX= 0 NMat=1 NMatS=1 NMatT=0.
 -------------------------------------------------------------------
 Center     Atomic                   Forces (Hartrees/Bohr)
 Number     Number              X              Y              Z
 -------------------------------------------------------------------
      1        8          -0.000000687   -0.000000057   -0.000000959
      2        6          -0.000000074    0.000001293    0.000002527
      3        6           0.000002106   -0.000000069    0.000001086
      4        6           0.000000336    0.000000210    0.000002848
      5        6           0.000001185   -0.000000945   -0.000000463
      6        6          -0.000001041    0.000000195   -0.000000068
      7        1          -0.000000301    0.000000729    0.000000466
      8        1          -0.000001014    0.000000552    0.000000373
      9        1           0.000000625    0.000000257    0.000000386
     10        6          -0.000000919    0.000000050   -0.000000284
     11        1          -0.000000085   -0.000000195   -0.000000537
     12        1          -0.000001096    0.000000170   -0.000000635
     13        1           0.000001045    0.000000104    0.000001357
     14        8          -0.000001768    0.000001395    0.000001175
     15        1          -0.000001310    0.000000287   -0.000000335
     16        8           0.000000906    0.000001068    0.000000611
     17        1           0.000000888   -0.000000197   -0.000000116
     18        8           0.000001625    0.000002116    0.000004768
     19        1           0.000000557    0.000000898    0.000001933
     20        8          -0.000000555    0.000002778    0.000003496
     21        1          -0.000000269    0.000000329    0.000001368
     22        1           0.000000750   -0.000000533   -0.000000134
     23        8           0.000001681   -0.000002059   -0.000001853
     24        8           0.000010229    0.000001693   -0.000008532
     25        1           0.000001310   -0.000000978   -0.000000991
     26        1           0.000000058   -0.000000811   -0.000001246
     27        1          -0.000010001   -0.000005673    0.000001119
     28        8          -0.000005538   -0.000003402    0.000003222
     29        1          -0.000000742   -0.000000074   -0.000000749
     30        1           0.000002098    0.000000867   -0.000009832
 -------------------------------------------------------------------
 Cartesian Forces:  Max     0.000010229 RMS     0.000002562
 IRC-IRC-IRC-IRC-IRC-IRC-IRC-IRC-IRC-IRC-IRC-IRC-IRC-IRC-IRC-IRC-IRC-IRC
          ******** Start new reaction path calculation ********
 Supplied step size of   0.1000 bohr.
    Integration on MW PES will use step size of   0.1070 sqrt(amu)*bohr.
 Point Number:   0          Path Number:   1
 Calculating another point on the path.
 IRC-IRC-IRC-IRC-IRC-IRC-IRC-IRC-IRC-IRC-IRC-IRC-IRC-IRC-IRC-IRC-IRC-IRC
                          Input orientation:                          
 ---------------------------------------------------------------------
 Center     Atomic      Atomic             Coordinates (Angstroms)
 Number     Number       Type             X           Y           Z
 ---------------------------------------------------------------------
      1          8           0       -0.650421    0.351087    0.560922
      2          6           0        1.643291    0.209379   -0.248068
      3          6           0        0.227424   -1.904658   -0.199975
      4          6           0        1.558448   -1.248730    0.205365
      5          6           0       -0.902781   -0.906413   -0.516807
      6          6           0        0.583245    1.073990    0.457148
      7          1           0        1.610819   -1.272900    1.304649
      8          1           0        0.946696    1.247442    1.480716
      9          1           0        1.497263    0.248435   -1.339696
     10          6           0        0.380030    2.423002   -0.247749
     11          1           0        0.045738    2.259714   -1.277412
     12          1           0       -0.389716    3.017180    0.262316
     13          1           0        0.413126   -2.449116   -1.142938
     14          8           0        1.614025    3.146992   -0.346365
     15          1           0        1.809952    3.516616    0.529371
     16          8           0       -0.202688   -2.781106    0.815548
     17          1           0       -1.178949   -2.761806    0.741172
     18          8           0        2.624752   -1.987613   -0.368615
     19          1           0        3.421485   -1.448159   -0.224978
     20          8           0        2.951415    0.673305    0.071740
     21          1           0        2.999543    1.583307   -0.273571
     22          1           0       -0.749066   -0.364656   -1.464495
     23          8           0       -2.087498   -1.374013   -0.288390
     24          8           0       -3.800002    0.267761   -0.879183
     25          1           0       -3.096589   -0.544389   -0.720131
     26          1           0       -3.345130    1.054764    0.089535
     27          1           0       -4.685036   -0.082199   -0.693566
     28          8           0       -2.724203    1.570094    0.862523
     29          1           0       -1.667173    0.986622    0.749286
     30          1           0       -3.083826    1.336001    1.734025
 ---------------------------------------------------------------------
                    Distance matrix (angstroms):
                    1          2          3          4          5
     1  O    0.000000
     2  C    2.436321   0.000000
     3  C    2.537314   2.544827   0.000000
     4  C    2.750443   1.529340   1.538235   0.000000
     5  C    1.675259   2.792794   1.540856   2.587733   0.000000
     6  C    1.433628   1.539019   3.070955   2.531688   2.660613
     7  H    2.881610   2.146890   2.139345   1.100797   3.125733
     8  H    2.049453   2.133427   3.643872   2.869082   3.471276
     9  H    2.869744   1.102044   2.747228   2.152314   2.787657
    10  C    2.451247   2.548717   4.330614   3.882731   3.578129
    11  H    2.739884   2.795639   4.305331   4.098304   3.391544
    12  H    2.695401   3.503906   4.981874   4.690050   4.032971
    13  H    3.446071   3.062954   1.104581   2.137898   2.122164
    14  O    3.710522   2.939403   5.240540   4.430560   4.774250
    15  H    4.009365   3.401471   5.694432   4.782965   5.293071
    16  O    3.174261   3.671773   1.408703   2.412903   2.404116
    17  H    3.162583   4.215634   1.896930   3.173299   2.258597
    18  O    4.130414   2.409267   2.404684   1.418593   3.692485
    19  H    4.520547   2.431036   3.226614   1.922465   4.367829
    20  O    3.649157   1.424322   3.760299   2.377484   4.206748
    21  H    3.941698   1.930738   4.456003   3.213497   4.635300
    22  H    2.150426   2.744555   2.219042   2.982389   1.102380
    23  O    2.400519   4.053090   2.376608   3.681360   1.293978
    24  O    3.464203   5.480069   4.626109   5.673533   3.147045
    25  H    2.902879   4.822599   3.629043   4.798125   2.232754
    26  H    2.824680   5.070798   4.648132   5.418909   3.190444
    27  H    4.247304   6.350685   5.262817   6.414824   3.875051
    28  O    2.424358   4.707436   4.681336   5.169016   3.369454
    29  H    1.213742   3.543725   3.584703   3.961979   2.402264
    30  H    2.875358   5.248199   5.020617   5.528864   3.853780
                    6          7          8          9         10
     6  C    0.000000
     7  H    2.698530   0.000000
     8  H    1.099942   2.612314   0.000000
     9  H    2.178444   3.052854   3.042344   0.000000
    10  C    1.535581   4.193385   2.165790   2.677555   0.000000
    11  H    2.168768   4.647137   3.073059   2.481138   1.094815
    12  H    2.181879   4.846998   2.530310   3.713904   1.098054
    13  H    3.873176   2.967934   4.564295   2.913905   4.953786
    14  O    2.450608   4.718189   2.718795   3.066264   1.434096
    15  H    2.734310   4.855942   2.607570   3.777856   1.960761
    16  O    3.950685   2.408882   4.241784   4.088157   5.343492
    17  H    4.230759   3.212032   4.597755   4.533615   5.503691
    18  O    3.771346   2.082952   4.086744   2.685915   4.950445
    19  H    3.857737   2.376759   4.037355   2.797080   4.923094
    20  O    2.432554   2.665516   2.516694   2.070561   3.126585
    21  H    2.575238   3.546442   2.721123   2.274940   2.750928
    22  H    2.745445   3.749951   3.761480   2.331834   3.244437
    23  O    3.698840   4.028095   4.382704   4.072848   4.528540
    24  O    4.652810   6.034878   5.390737   5.317280   4.745150
    25  H    4.188831   5.175921   4.939892   4.702755   4.595153
    26  H    3.945584   5.608561   4.515781   5.112889   3.982795
    27  H    5.515043   6.711813   6.181573   6.224759   5.668305
    28  O    3.368925   5.202933   3.736544   4.941389   3.405352
    29  H    2.270981   4.019839   2.726779   3.862954   2.692268
    30  H    3.891846   5.387988   4.039444   5.622893   4.136097
                   11         12         13         14         15
    11  H    0.000000
    12  H    1.770350   0.000000
    13  H    4.725054   5.700849   0.000000
    14  O    2.028210   2.098171   5.778677   0.000000
    15  H    2.820766   2.271408   6.351196   0.970527   0.000000
    16  O    5.463704   5.827621   2.079690   6.308156   6.617698
    17  H    5.548892   5.852253   2.486433   6.625506   6.956793
    18  O    5.051436   5.876482   2.388273   5.233185   5.636205
    19  H    5.123632   5.890836   3.300725   4.939337   5.273999
    20  O    3.574894   4.085734   4.203315   2.842983   3.097868
    21  H    3.192207   3.718903   4.868858   2.090471   2.407806
    22  H    2.748460   3.814161   2.408124   4.377909   5.058493
    23  O    4.328144   4.740076   2.852932   5.843297   6.306910
    24  O    4.349273   4.526851   5.020103   6.155125   6.634054
    25  H    4.248267   4.580081   4.015576   5.996322   6.490544
    26  H    3.849471   3.551817   5.284000   5.400060   5.729663
    27  H    5.310900   5.382345   5.638749   7.087059   7.525418
    28  O    3.567558   2.811430   5.478937   4.771608   4.945554
    29  H    2.943183   2.447897   4.439871   4.078469   4.305767
    30  H    4.440289   3.500074   5.901923   5.447707   5.491387
                   16         17         18         19         20
    16  O    0.000000
    17  H    0.979280   0.000000
    18  O    3.166432   4.037220   0.000000
    19  H    3.999259   4.880891   0.972844   0.000000
    20  O    4.736515   5.413689   2.716818   2.193083   0.000000
    21  H    5.521645   6.113060   3.591792   3.061075   0.974505
    22  H    3.366951   3.285741   3.900973   4.483734   4.138954
    23  O    2.598288   1.952288   4.752709   5.509847   5.450858
    24  O    5.010826   4.321313   6.828240   7.451325   6.830107
    25  H    3.966847   3.275620   5.911023   6.599034   6.219983
    26  H    5.011581   4.436573   6.716059   7.221538   6.308114
    27  H    5.445454   4.640195   7.561031   8.234142   7.711800
    28  O    5.029234   4.600858   6.540971   6.932675   5.800190
    29  H    4.042881   3.780098   5.340074   5.724664   4.678524
    30  H    5.108339   4.626698   6.932197   7.342227   6.294957
                   21         22         23         24         25
    21  H    0.000000
    22  H    4.389183   0.000000
    23  O    5.884212   2.047786   0.000000
    24  O    6.952067   3.170292   2.444817   0.000000
    25  H    6.472196   2.469260   1.375841   1.086129   0.000000
    26  H    6.376996   3.342052   2.761055   1.328420   1.809592
    27  H    7.874202   4.020693   2.929190   0.969645   1.654536
    28  O    5.835422   3.613784   3.224556   2.426305   2.667303
    29  H    4.814614   2.751309   2.612670   2.778064   2.558596
    30  H    6.410848   4.309741   3.525196   2.912542   3.091749
                   26         27         28         29         30
    26  H    0.000000
    27  H    1.923872   0.000000
    28  O    1.117419   2.999392   0.000000
    29  H    1.804288   3.511652   1.212673   0.000000
    30  H    1.688704   3.235486   0.971413   1.760307   0.000000
 Symmetry turned off by external request.
 Stoichiometry    C6H16O8
 Framework group  C1[X(C6H16O8)]
 Deg. of freedom    84
 Full point group                 C1      NOp   1
 Rotational constants (GHZ):      0.7167469      0.5300147      0.3328233
 Standard basis: 6-31G(d) (6D, 7F)
   242 basis functions,   456 primitive gaussians,   242 cartesian basis functions
    58 alpha electrons       58 beta electrons
       nuclear repulsion energy      1103.5941919480 Hartrees.
 NAtoms=   30 NActive=   30 NUniq=   30 SFac= 1.00D+00 NAtFMM=   60 NAOKFM=F Big=F
 Integral buffers will be    131072 words long.
 Raffenetti 2 integral format.
 Two-electron integral symmetry is turned off.
 One-electron integrals computed using PRISM.
 NBasis=   242 RedAO= T EigKep=  1.36D-03  NBF=   242
 NBsUse=   242 1.00D-06 EigRej= -1.00D+00 NBFU=   242
 Initial guess from the checkpoint file:  "/scratch/10461012.yak.local/Gau-30265.chk"
 B after Tr=    -0.044146    0.051126   -0.001968
         Rot=    1.000000   -0.000027   -0.000029    0.000034 Ang=  -0.01 deg.
 ExpMin= 1.61D-01 ExpMax= 5.48D+03 ExpMxC= 8.25D+02 IAcc=1 IRadAn=         1 AccDes= 0.00D+00
 Harris functional with IExCor=  402 and IRadAn=       1 diagonalized for initial guess.
 HarFok:  IExCor=  402 AccDes= 0.00D+00 IRadAn=         1 IDoV= 1 UseB2=F ITyADJ=14
 ICtDFT=  3500011 ScaDFX=  1.000000  1.000000  1.000000  1.000000
 FoFCou: FMM=F IPFlag=           0 FMFlag=      100000 FMFlg1=           0
         NFxFlg=           0 DoJE=T BraDBF=F KetDBF=T FulRan=T
         wScrn=  0.000000 ICntrl=     500 IOpCl=  0 I1Cent=   200000004 NGrid=           0
         NMat0=    1 NMatS0=      1 NMatT0=    0 NMatD0=    1 NMtDS0=    0 NMtDT0=    0
 Symmetry not used in FoFCou.
 Requested convergence on RMS density matrix=1.00D-08 within 128 cycles.
 Requested convergence on MAX density matrix=1.00D-06.
 Requested convergence on             energy=1.00D-06.
 No special actions if energy rises.
 Integral accuracy reduced to 1.0D-05 until final iterations.
 Initial convergence to 1.0D-05 achieved.  Increase integral accuracy.
 SCF Done:  E(RB3LYP) =  -839.961805627     A.U. after   11 cycles
            NFock= 11  Conv=0.76D-08     -V/T= 2.0085
 DoSCS=F DFT=T ScalE2(SS,OS)=  1.000000  1.000000
 Range of M.O.s used for correlation:     1   242
 NBasis=   242 NAE=    58 NBE=    58 NFC=     0 NFV=     0
 NROrb=    242 NOA=    58 NOB=    58 NVA=   184 NVB=   184
 Symmetrizing basis deriv contribution to polar:
 IMax=3 JMax=2 DiffMx= 0.00D+00
 Calling FoFJK, ICntrl=      2147 FMM=F ISym2X=0 I1Cent= 0 IOpClX= 0 NMat=1 NMatS=1 NMatT=0.
 -------------------------------------------------------------------
 Center     Atomic                   Forces (Hartrees/Bohr)
 Number     Number              X              Y              Z
 -------------------------------------------------------------------
      1        8          -0.000355163    0.002113003    0.001914980
      2        6          -0.000186854   -0.000144041   -0.000028736
      3        6           0.000324981   -0.000001184    0.000320257
      4        6           0.000050113   -0.000071160    0.000068996
      5        6          -0.002018873   -0.003448145   -0.001909622
      6        6           0.000403739    0.001114976    0.000476470
      7        1           0.000016242    0.000005743    0.000007308
      8        1           0.000063654    0.000052879    0.000012587
      9        1          -0.000023706    0.000011978    0.000009904
     10        6           0.000003456    0.000263634   -0.000029468
     11        1          -0.000001142   -0.000010250    0.000005735
     12        1          -0.000006285    0.000012597   -0.000015363
     13        1           0.000020730    0.000048494   -0.000009464
     14        8          -0.000027895   -0.000083897    0.000018363
     15        1          -0.000006317    0.000032046   -0.000012168
     16        8           0.000107649    0.000038422   -0.000091234
     17        1          -0.000011096    0.000121261   -0.000056546
     18        8           0.000017262    0.000077815   -0.000002951
     19        1           0.000019089   -0.000024092    0.000015879
     20        8          -0.000299337    0.000075100    0.000079497
     21        1           0.000020250   -0.000007219   -0.000027094
     22        1          -0.000027384    0.000139872    0.000075739
     23        8           0.002485315   -0.001320088    0.000558095
     24        8          -0.002642691   -0.000518451   -0.002417201
     25        1          -0.001160968    0.000614613   -0.000554254
     26        1           0.000731718    0.001282460    0.001463209
     27        1          -0.000082507   -0.000193948   -0.000306158
     28        8          -0.000254683    0.001409830    0.001133924
     29        1           0.002977454   -0.001557605   -0.000579705
     30        1          -0.000136751   -0.000034644   -0.000120980
 -------------------------------------------------------------------
 Cartesian Forces:  Max     0.003448145 RMS     0.000899792
 IRC-IRC-IRC-IRC-IRC-IRC-IRC-IRC-IRC-IRC-IRC-IRC-IRC-IRC-IRC-IRC-IRC-IRC
 Pt  1 Step number   1 out of a maximum of  20
 Modified Bulirsch-Stoer Extrapolation Cycles:
    EPS =    0.000010000000000
 Maximum DWI energy   std dev =  0.000002826 at pt     1
 Maximum DWI gradient std dev =  0.124750274 at pt     1
 CORRECTOR INTEGRATION CONVERGENCE:
   Recorrection delta-x convergence threshold:    0.010000
   Delta-x Convergence Met
 Point Number:   1          Path Number:   1
   CHANGE IN THE REACTION COORDINATE =    0.10678
   NET REACTION COORDINATE UP TO THIS POINT =    0.10678
  # OF POINTS ALONG THE PATH =   1
  # OF STEPS =   1

 Calculating another point on the path.
 IRC-IRC-IRC-IRC-IRC-IRC-IRC-IRC-IRC-IRC-IRC-IRC-IRC-IRC-IRC-IRC-IRC-IRC
                          Input orientation:                          
 ---------------------------------------------------------------------
 Center     Atomic      Atomic             Coordinates (Angstroms)
 Number     Number       Type             X           Y           Z
 ---------------------------------------------------------------------
      1          8           0       -0.650603    0.352641    0.562441
      2          6           0        1.643095    0.209252   -0.248086
      3          6           0        0.227728   -1.904694   -0.199666
      4          6           0        1.558510   -1.248784    0.205444
      5          6           0       -0.904728   -0.909953   -0.518877
      6          6           0        0.583743    1.075219    0.457653
      7          1           0        1.610992   -1.272853    1.304739
      8          1           0        0.947501    1.248149    1.480916
      9          1           0        1.496940    0.248590   -1.339580
     10          6           0        0.380006    2.423313   -0.247783
     11          1           0        0.045720    2.259591   -1.277348
     12          1           0       -0.389895    3.017282    0.262120
     13          1           0        0.413448   -2.448595   -1.143041
     14          8           0        1.614010    3.146911   -0.346347
     15          1           0        1.809802    3.517137    0.529188
     16          8           0       -0.202601   -2.781073    0.815479
     17          1           0       -1.179081   -2.760695    0.740738
     18          8           0        2.624750   -1.987548   -0.368616
     19          1           0        3.421701   -1.448468   -0.224763
     20          8           0        2.951163    0.673357    0.071799
     21          1           0        2.999764    1.583222   -0.273894
     22          1           0       -0.749608   -0.363012   -1.463683
     23          8           0       -2.085765   -1.375055   -0.288008
     24          8           0       -3.801899    0.267192   -0.881064
     25          1           0       -3.111748   -0.534728   -0.726372
     26          1           0       -3.334459    1.071105    0.109120
     27          1           0       -4.686346   -0.084384   -0.697087
     28          8           0       -2.724339    1.571157    0.863253
     29          1           0       -1.633596    0.968722    0.742647
     30          1           0       -3.085668    1.335325    1.733263
 ---------------------------------------------------------------------
                    Distance matrix (angstroms):
                    1          2          3          4          5
     1  O    0.000000
     2  C    2.436917   0.000000
     3  C    2.539259   2.544480   0.000000
     4  C    2.751761   1.529286   1.537957   0.000000
     5  C    1.681657   2.795952   1.540734   2.589785   0.000000
     6  C    1.434123   1.539543   3.072246   2.532740   2.666470
     7  H    2.882369   2.146842   2.139130   1.100810   3.128277
     8  H    2.049261   2.133684   3.644564   2.869641   3.476683
     9  H    2.870619   1.101938   2.747169   2.152445   2.789943
    10  C    2.450775   2.549011   4.330952   3.883115   3.582554
    11  H    2.739735   2.795510   4.305322   4.098281   3.394795
    12  H    2.694155   3.504053   4.982023   4.690289   4.037100
    13  H    3.447868   3.062209   1.104661   2.137550   2.120044
    14  O    3.709759   2.939446   5.240421   4.430541   4.778279
    15  H    4.008582   3.402065   5.694773   4.783510   5.297757
    16  O    3.175673   3.671486   1.408454   2.412791   2.403035
    17  H    3.162901   4.214622   1.896367   3.172825   2.255470
    18  O    4.131742   2.409171   2.404396   1.418515   3.693373
    19  H    4.521874   2.431465   3.226490   1.922611   4.369724
    20  O    3.649151   1.424346   3.759939   2.377388   4.209948
    21  H    3.941949   1.931064   4.455923   3.213602   4.639072
    22  H    2.151079   2.744119   2.220295   2.982949   1.102663
    23  O    2.401643   4.051669   2.374989   3.679698   1.290144
    24  O    3.467229   5.481969   4.628098   5.675621   3.148087
    25  H    2.916453   4.836404   3.647784   4.815544   2.248286
    26  H    2.815097   5.064231   4.651871   5.415931   3.197275
    27  H    4.250250   6.352137   5.263942   6.416277   3.874785
    28  O    2.423974   4.707902   4.682524   5.169872   3.373007
    29  H    1.174012   3.506430   3.550915   3.923705   2.377417
    30  H    2.875071   5.249285   5.021208   5.529940   3.856152
                    6          7          8          9         10
     6  C    0.000000
     7  H    2.699303   0.000000
     8  H    1.099679   2.612797   0.000000
     9  H    2.178828   3.052903   3.042401   0.000000
    10  C    1.535091   4.193720   2.165978   2.677496   0.000000
    11  H    2.168510   4.647086   3.073149   2.480734   1.094786
    12  H    2.181241   4.847253   2.530597   3.713657   1.097974
    13  H    3.874078   2.967845   4.564677   2.913312   4.953593
    14  O    2.449444   4.718094   2.718165   3.066021   1.433902
    15  H    2.733368   4.856439   2.607231   3.778039   1.960727
    16  O    3.951881   2.408988   4.242661   4.087980   5.343743
    17  H    4.231066   3.211897   4.597940   4.532616   5.502896
    18  O    3.772131   2.082934   4.087013   2.686082   4.950674
    19  H    3.858587   2.376738   4.037667   2.797772   4.923731
    20  O    2.432088   2.665320   2.516080   2.070551   3.126551
    21  H    2.574954   3.546538   2.720922   2.274952   2.751284
    22  H    2.745517   3.750254   3.761208   2.331617   3.243154
    23  O    3.699477   4.026575   4.383036   4.071585   4.528713
    24  O    4.656064   6.037290   5.394259   5.318673   4.747445
    25  H    4.201249   5.193700   4.952603   4.714830   4.601239
    26  H    3.933675   5.601886   4.499817   5.110546   3.969017
    27  H    5.518328   6.713884   6.185433   6.225488   5.670832
    28  O    3.369551   5.203690   3.737412   4.941747   3.405515
    29  H    2.238114   3.983460   2.699107   3.828122   2.674206
    30  H    3.893509   5.389327   4.041996   5.623492   4.137531
                   11         12         13         14         15
    11  H    0.000000
    12  H    1.770259   0.000000
    13  H    4.724434   5.700495   0.000000
    14  O    2.028210   2.098254   5.778041   0.000000
    15  H    2.820812   2.271529   6.351071   0.970548   0.000000
    16  O    5.463505   5.827710   2.079870   6.308004   6.618095
    17  H    5.547619   5.851231   2.486399   6.624419   6.956245
    18  O    5.051275   5.876584   2.387918   5.233046   5.636644
    19  H    5.123952   5.891370   3.300465   4.939640   5.274836
    20  O    3.574624   4.085691   4.202668   2.842762   3.098224
    21  H    3.192299   3.719358   4.868263   2.090619   2.408522
    22  H    2.746874   3.812372   2.409391   4.376608   5.057437
    23  O    4.328126   4.740384   2.851252   5.842938   6.306885
    24  O    4.350962   4.528978   5.021283   6.157173   6.636425
    25  H    4.252223   4.582835   4.032804   6.002639   6.497360
    26  H    3.841927   3.532913   5.291786   5.385515   5.711650
    27  H    5.312567   5.385156   5.638818   7.089342   7.528256
    28  O    3.567821   2.811098   5.479902   4.771521   4.945389
    29  H    2.926914   2.444238   4.407296   4.059232   4.289169
    30  H    4.441131   3.501491   5.902117   5.449183   5.493244
                   16         17         18         19         20
    16  O    0.000000
    17  H    0.979548   0.000000
    18  O    3.166335   4.037023   0.000000
    19  H    3.999188   4.880710   0.972848   0.000000
    20  O    4.736283   5.412865   2.716787   2.193513   0.000000
    21  H    5.521680   6.112433   3.591658   3.061305   0.974535
    22  H    3.367613   3.285240   3.901869   4.484747   4.138535
    23  O    2.596320   1.949460   4.750852   5.508319   5.449413
    24  O    5.012497   4.321750   6.829954   7.453498   6.832040
    25  H    3.985788   3.292802   5.928414   6.616079   6.233413
    26  H    5.014654   4.441541   6.715338   7.218409   6.298304
    27  H    5.446463   4.640139   7.561881   8.235548   7.713423
    28  O    5.030243   4.600844   6.541761   6.933666   5.800325
    29  H    4.014226   3.757012   5.301693   5.686362   4.642983
    30  H    5.108731   4.625750   6.933128   7.343652   6.296189
                   21         22         23         24         25
    21  H    0.000000
    22  H    4.388760   0.000000
    23  O    5.883384   2.047378   0.000000
    24  O    6.954367   3.170660   2.448225   0.000000
    25  H    6.483906   2.480488   1.396765   1.069258   0.000000
    26  H    6.366423   3.348411   2.775004   1.358397   1.823827
    27  H    7.876312   4.020349   2.931927   0.969381   1.637994
    28  O    5.835975   3.613199   3.226971   2.429836   2.666785
    29  H    4.783199   2.724490   2.600000   2.798236   2.569691
    30  H    6.412692   4.308363   3.525834   2.913521   3.089916
                   26         27         28         29         30
    26  H    0.000000
    27  H    1.952620   0.000000
    28  O    1.091336   3.004155   0.000000
    29  H    1.817904   3.535697   1.251877   0.000000
    30  H    1.664197   3.237954   0.971130   1.795615   0.000000
 Symmetry turned off by external request.
 Stoichiometry    C6H16O8
 Framework group  C1[X(C6H16O8)]
 Deg. of freedom    84
 Full point group                 C1      NOp   1
 Rotational constants (GHZ):      0.7164024      0.5298923      0.3327574
 Standard basis: 6-31G(d) (6D, 7F)
   242 basis functions,   456 primitive gaussians,   242 cartesian basis functions
    58 alpha electrons       58 beta electrons
       nuclear repulsion energy      1103.5620589852 Hartrees.
 NAtoms=   30 NActive=   30 NUniq=   30 SFac= 1.00D+00 NAtFMM=   60 NAOKFM=F Big=F
 Integral buffers will be    131072 words long.
 Raffenetti 2 integral format.
 Two-electron integral symmetry is turned off.
 One-electron integrals computed using PRISM.
 NBasis=   242 RedAO= T EigKep=  1.36D-03  NBF=   242
 NBsUse=   242 1.00D-06 EigRej= -1.00D+00 NBFU=   242
 Initial guess from the checkpoint file:  "/scratch/10461012.yak.local/Gau-30265.chk"
 B after Tr=     0.000212    0.000076    0.000018
         Rot=    1.000000   -0.000023   -0.000025    0.000028 Ang=  -0.01 deg.
 ExpMin= 1.61D-01 ExpMax= 5.48D+03 ExpMxC= 8.25D+02 IAcc=1 IRadAn=         1 AccDes= 0.00D+00
 Harris functional with IExCor=  402 and IRadAn=       1 diagonalized for initial guess.
 HarFok:  IExCor=  402 AccDes= 0.00D+00 IRadAn=         1 IDoV= 1 UseB2=F ITyADJ=14
 ICtDFT=  3500011 ScaDFX=  1.000000  1.000000  1.000000  1.000000
 FoFCou: FMM=F IPFlag=           0 FMFlag=      100000 FMFlg1=           0
         NFxFlg=           0 DoJE=T BraDBF=F KetDBF=T FulRan=T
         wScrn=  0.000000 ICntrl=     500 IOpCl=  0 I1Cent=   200000004 NGrid=           0
         NMat0=    1 NMatS0=      1 NMatT0=    0 NMatD0=    1 NMtDS0=    0 NMtDT0=    0
 Symmetry not used in FoFCou.
 Requested convergence on RMS density matrix=1.00D-08 within 128 cycles.
 Requested convergence on MAX density matrix=1.00D-06.
 Requested convergence on             energy=1.00D-06.
 No special actions if energy rises.
 Integral accuracy reduced to 1.0D-05 until final iterations.
 Initial convergence to 1.0D-05 achieved.  Increase integral accuracy.
 SCF Done:  E(RB3LYP) =  -839.962485545     A.U. after   11 cycles
            NFock= 11  Conv=0.73D-08     -V/T= 2.0085
 DoSCS=F DFT=T ScalE2(SS,OS)=  1.000000  1.000000
 Range of M.O.s used for correlation:     1   242
 NBasis=   242 NAE=    58 NBE=    58 NFC=     0 NFV=     0
 NROrb=    242 NOA=    58 NOB=    58 NVA=   184 NVB=   184
 Symmetrizing basis deriv contribution to polar:
 IMax=3 JMax=2 DiffMx= 0.00D+00
 Calling FoFJK, ICntrl=      2147 FMM=F ISym2X=0 I1Cent= 0 IOpClX= 0 NMat=1 NMatS=1 NMatT=0.
 -------------------------------------------------------------------
 Center     Atomic                   Forces (Hartrees/Bohr)
 Number     Number              X              Y              Z
 -------------------------------------------------------------------
      1        8           0.000628125    0.003176573    0.003541459
      2        6          -0.000358462   -0.000227072   -0.000034238
      3        6           0.000560426   -0.000067595    0.000551418
      4        6           0.000101383   -0.000103519    0.000140624
      5        6          -0.003565419   -0.006542080   -0.003827629
      6        6           0.000901797    0.002212795    0.000921856
      7        1           0.000027527    0.000006185    0.000012452
      8        1           0.000122947    0.000106817    0.000028767
      9        1          -0.000050115    0.000023182    0.000016093
     10        6          -0.000046624    0.000568640   -0.000059560
     11        1          -0.000002349   -0.000018185    0.000010793
     12        1          -0.000023382    0.000017269   -0.000029709
     13        1           0.000050323    0.000075154   -0.000016468
     14        8          -0.000030359   -0.000192374    0.000044567
     15        1          -0.000020021    0.000077368   -0.000028126
     16        8           0.000207021    0.000073922   -0.000164111
     17        1          -0.000012284    0.000174248   -0.000068564
     18        8          -0.000003628    0.000155062   -0.000010349
     19        1           0.000031995   -0.000048360    0.000028872
     20        8          -0.000605394    0.000125918    0.000140888
     21        1           0.000034279   -0.000014466   -0.000051146
     22        1          -0.000085749    0.000242977    0.000134819
     23        8           0.004222965   -0.002501688    0.000934276
     24        8          -0.005107908   -0.000870581   -0.004640287
     25        1          -0.001804688    0.000879750   -0.000865830
     26        1           0.000888191    0.001938068    0.002047449
     27        1          -0.000180947   -0.000304594   -0.000544533
     28        8          -0.000625099    0.003564783    0.002878117
     29        1           0.005003118   -0.002492733   -0.000919838
     30        1          -0.000257669   -0.000035461   -0.000172062
 -------------------------------------------------------------------
 Cartesian Forces:  Max     0.006542080 RMS     0.001641465
 IRC-IRC-IRC-IRC-IRC-IRC-IRC-IRC-IRC-IRC-IRC-IRC-IRC-IRC-IRC-IRC-IRC-IRC
 Pt  2 Step number   1 out of a maximum of  20
 Modified Bulirsch-Stoer Extrapolation Cycles:
    EPS =    0.000010000000000
 Maximum DWI energy   std dev =  0.000006713 at pt    37
 Maximum DWI gradient std dev =  0.079114397 at pt    27
 CORRECTOR INTEGRATION CONVERGENCE:
   Recorrection delta-x convergence threshold:    0.010000
   Delta-x Convergence Met
 Point Number:   2          Path Number:   1
   CHANGE IN THE REACTION COORDINATE =    0.10681
   NET REACTION COORDINATE UP TO THIS POINT =    0.21359
  # OF POINTS ALONG THE PATH =   2
  # OF STEPS =   1

 Calculating another point on the path.
 IRC-IRC-IRC-IRC-IRC-IRC-IRC-IRC-IRC-IRC-IRC-IRC-IRC-IRC-IRC-IRC-IRC-IRC
                          Input orientation:                          
 ---------------------------------------------------------------------
 Center     Atomic      Atomic             Coordinates (Angstroms)
 Number     Number       Type             X           Y           Z
 ---------------------------------------------------------------------
      1          8           0       -0.650058    0.354026    0.564181
      2          6           0        1.642868    0.209142   -0.248092
      3          6           0        0.228068   -1.904787   -0.199349
      4          6           0        1.558579   -1.248826    0.205543
      5          6           0       -0.906834   -0.914150   -0.521450
      6          6           0        0.584414    1.076685    0.458251
      7          1           0        1.611177   -1.272827    1.304835
      8          1           0        0.948549    1.249094    1.481174
      9          1           0        1.496523    0.248770   -1.339461
     10          6           0        0.379954    2.423713   -0.247821
     11          1           0        0.045698    2.259455   -1.277279
     12          1           0       -0.390160    3.017378    0.261881
     13          1           0        0.413968   -2.448144   -1.143119
     14          8           0        1.614003    3.146813   -0.346326
     15          1           0        1.809587    3.517824    0.528945
     16          8           0       -0.202500   -2.781038    0.815402
     17          1           0       -1.179148   -2.759675    0.740479
     18          8           0        2.624735   -1.987472   -0.368621
     19          1           0        3.421936   -1.448821   -0.224524
     20          8           0        2.950861    0.673411    0.071863
     21          1           0        2.999993    1.583112   -0.274286
     22          1           0       -0.750500   -0.361306   -1.462832
     23          8           0       -2.083944   -1.376301   -0.287601
     24          8           0       -3.804336    0.266727   -0.883332
     25          1           0       -3.124940   -0.527506   -0.732248
     26          1           0       -3.327203    1.085491    0.124713
     27          1           0       -4.688209   -0.086478   -0.701108
     28          8           0       -2.724670    1.573009    0.864633
     29          1           0       -1.597996    0.950853    0.736177
     30          1           0       -3.087814    1.334891    1.732759
 ---------------------------------------------------------------------
                    Distance matrix (angstroms):
                    1          2          3          4          5
     1  O    0.000000
     2  C    2.436860   0.000000
     3  C    2.540929   2.544157   0.000000
     4  C    2.752423   1.529235   1.537688   0.000000
     5  C    1.689023   2.799552   1.540491   2.592062   0.000000
     6  C    1.434355   1.540090   3.073857   2.533941   2.673397
     7  H    2.882429   2.146816   2.138909   1.100812   3.131189
     8  H    2.048796   2.133996   3.645575   2.870361   3.483184
     9  H    2.871017   1.101849   2.747115   2.152598   2.792427
    10  C    2.450280   2.549367   4.331435   3.883585   3.587760
    11  H    2.739654   2.795346   4.305357   4.098243   3.398582
    12  H    2.693024   3.504207   4.982234   4.690550   4.041964
    13  H    3.449520   3.061444   1.104762   2.137145   2.117576
    14  O    3.708726   2.939454   5.240332   4.430493   4.782960
    15  H    4.007581   3.402786   5.695290   4.784197   5.303269
    16  O    3.176798   3.671183   1.408163   2.412676   2.401776
    17  H    3.163251   4.213660   1.895882   3.172377   2.252240
    18  O    4.132433   2.409088   2.404060   1.418432   3.694233
    19  H    4.522549   2.431971   3.226350   1.922773   4.371760
    20  O    3.648424   1.424346   3.759557   2.377249   4.213571
    21  H    3.941643   1.931390   4.455853   3.213686   4.643350
    22  H    2.151876   2.743941   2.221783   2.983792   1.102850
    23  O    2.403248   4.050225   2.373286   3.677964   1.286024
    24  O    3.471655   5.484421   4.630722   5.678328   3.149753
    25  H    2.929654   4.848614   3.663816   4.830643   2.261399
    26  H    2.809854   5.060492   4.656902   5.415389   3.205351
    27  H    4.254606   6.354145   5.265718   6.418367   3.875063
    28  O    2.424914   4.708893   4.684633   5.171400   3.378123
    29  H    1.133301   3.467293   3.516304   3.883829   2.353203
    30  H    2.875817   5.250756   5.022313   5.531451   3.859574
                    6          7          8          9         10
     6  C    0.000000
     7  H    2.700213   0.000000
     8  H    1.099405   2.613475   0.000000
     9  H    2.179255   3.052982   3.042516   0.000000
    10  C    1.534544   4.194169   2.166207   2.677458   0.000000
    11  H    2.168230   4.647047   3.073277   2.480245   1.094757
    12  H    2.180516   4.847573   2.530938   3.713363   1.097867
    13  H    3.875288   2.967686   4.565332   2.912700   4.953555
    14  O    2.448025   4.718003   2.717337   3.065742   1.433686
    15  H    2.732253   4.857129   2.606772   3.778315   1.960687
    16  O    3.953329   2.409081   4.243834   4.087768   5.344074
    17  H    4.231721   3.211718   4.598473   4.531678   5.502277
    18  O    3.773020   2.082900   4.087383   2.686293   4.950978
    19  H    3.859520   2.376713   4.038043   2.798592   4.924502
    20  O    2.431460   2.665111   2.515317   2.070569   3.126550
    21  H    2.574510   3.546663   2.720594   2.274970   2.751711
    22  H    2.745973   3.750782   3.761293   2.331635   3.241991
    23  O    3.700482   4.024982   4.383752   4.070259   4.529071
    24  O    4.660150   6.040371   5.398689   5.320477   4.750236
    25  H    4.213078   5.209224   4.964761   4.725382   4.607456
    26  H    3.925821   5.598388   4.488742   5.110013   3.958867
    27  H    5.522464   6.716658   6.190246   6.226620   5.673870
    28  O    3.370685   5.205010   3.738660   4.942682   3.405868
    29  H    2.203631   3.945493   2.669992   3.791733   2.655156
    30  H    3.895677   5.391087   4.045106   5.624441   4.139280
                   11         12         13         14         15
    11  H    0.000000
    12  H    1.770151   0.000000
    13  H    4.723887   5.700227   0.000000
    14  O    2.028216   2.098414   5.777414   0.000000
    15  H    2.820859   2.271708   6.351089   0.970568   0.000000
    16  O    5.463284   5.827798   2.080062   6.307829   6.618626
    17  H    5.546464   5.850291   2.486567   6.623401   6.955881
    18  O    5.051087   5.876704   2.387375   5.232873   5.637231
    19  H    5.124313   5.891995   3.300051   4.939970   5.275883
    20  O    3.574310   4.085671   4.201918   2.842496   3.098727
[...]
 Alpha  occ. eigenvalues --  -19.13240 -19.12038 -19.12012 -10.28783 -10.25912
 Alpha  occ. eigenvalues --  -10.25630 -10.24601 -10.23076 -10.22780  -1.07296
 Alpha  occ. eigenvalues --   -1.05289  -1.03562  -1.02985  -1.02653  -1.00532
 Alpha  occ. eigenvalues --   -0.99758  -0.98290  -0.78782  -0.75529  -0.69216
 Alpha  occ. eigenvalues --   -0.64493  -0.62843  -0.56539  -0.55910  -0.55401
 Alpha  occ. eigenvalues --   -0.54106  -0.53497  -0.53081  -0.50828  -0.49758
 Alpha  occ. eigenvalues --   -0.48336  -0.46634  -0.45302  -0.44663  -0.42705
 Alpha  occ. eigenvalues --   -0.41869  -0.41545  -0.39944  -0.38693  -0.37618
 Alpha  occ. eigenvalues --   -0.37334  -0.36504  -0.34359  -0.33562  -0.33180
 Alpha  occ. eigenvalues --   -0.31625  -0.30993  -0.29797  -0.28660  -0.27540
 Alpha  occ. eigenvalues --   -0.26307  -0.26034  -0.23983
 Alpha virt. eigenvalues --    0.03000   0.04688   0.05109   0.07991   0.08348
 Alpha virt. eigenvalues --    0.09405   0.11094   0.12475   0.13434   0.14358
 Alpha virt. eigenvalues --    0.15437   0.16023   0.16808   0.17700   0.18855
 Alpha virt. eigenvalues --    0.19441   0.20802   0.22846   0.24433   0.25006
 Alpha virt. eigenvalues --    0.25628   0.26365   0.28309   0.30239   0.30983
 Alpha virt. eigenvalues --    0.32444   0.33782   0.39858   0.51193   0.52000
 Alpha virt. eigenvalues --    0.53172   0.56081   0.56496   0.58826   0.60332
 Alpha virt. eigenvalues --    0.61069   0.61834   0.64675   0.65933   0.67471
 Alpha virt. eigenvalues --    0.68943   0.70082   0.72165   0.73457   0.74770
 Alpha virt. eigenvalues --    0.75017   0.76918   0.77599   0.78013   0.79875
 Alpha virt. eigenvalues --    0.80412   0.81024   0.83360   0.83895   0.84224
 Alpha virt. eigenvalues --    0.85997   0.86267   0.87251   0.87485   0.89492
 Alpha virt. eigenvalues --    0.90145   0.91152   0.93583   0.93761   0.94228
 Alpha virt. eigenvalues --    0.96758   0.97517   1.00595   1.01103   1.02577
 Alpha virt. eigenvalues --    1.04659   1.05859   1.06005   1.07007   1.09639
 Alpha virt. eigenvalues --    1.09784   1.11160   1.13852   1.15546   1.16729
 Alpha virt. eigenvalues --    1.18601   1.19624   1.20950   1.25597   1.27725
 Alpha virt. eigenvalues --    1.29793   1.31319   1.32531   1.36542   1.39067
 Alpha virt. eigenvalues --    1.41140   1.44261   1.45188   1.49295   1.51524
 Alpha virt. eigenvalues --    1.51788   1.54338   1.56264   1.57233   1.58964
 Alpha virt. eigenvalues --    1.60062   1.64369   1.67863   1.68479   1.70179
 Alpha virt. eigenvalues --    1.70649   1.71024   1.71510   1.72049   1.73945
 Alpha virt. eigenvalues --    1.74796   1.75986   1.76436   1.77392   1.79338
 Alpha virt. eigenvalues --    1.80524   1.81437   1.83894   1.85092   1.86110
 Alpha virt. eigenvalues --    1.88794   1.89904   1.90851   1.93703   1.95326
 Alpha virt. eigenvalues --    1.95548   1.99536   2.01383   2.03171   2.04069
 Alpha virt. eigenvalues --    2.06396   2.08848   2.10092   2.13040   2.15946
 Alpha virt. eigenvalues --    2.21126   2.21537   2.25317   2.27789   2.29688
 Alpha virt. eigenvalues --    2.31505   2.32780   2.36096   2.39835   2.41205
 Alpha virt. eigenvalues --    2.42016   2.45497   2.48825   2.49206   2.49848
 Alpha virt. eigenvalues --    2.52187   2.54411   2.56047   2.59202   2.61130
 Alpha virt. eigenvalues --    2.62124   2.66312   2.67006   2.70002   2.74741
 Alpha virt. eigenvalues --    2.77434   2.80581   2.82408   2.85437   2.91456
 Alpha virt. eigenvalues --    2.94048   2.96012   2.97405   3.01332   3.08391
 Alpha virt. eigenvalues --    3.74197   3.75103   3.80819   3.84541   3.87607
 Alpha virt. eigenvalues --    3.94391   4.08018   4.20707   4.23987   4.37388
 Alpha virt. eigenvalues --    4.44699   4.46321   4.65444   4.80376
          Condensed to atoms (all electrons):
               1          2          3          4          5          6
     1  O    8.629193  -0.028546  -0.020566  -0.000113   0.023040   0.125173
     2  C   -0.028546   5.008623  -0.023289   0.315868  -0.000074   0.287542
     3  C   -0.020566  -0.023289   4.998594   0.306895   0.282064  -0.009595
     4  C   -0.000113   0.315868   0.306895   4.917969  -0.029764  -0.034369
     5  C    0.023040  -0.000074   0.282064  -0.029764   4.767505  -0.007923
     6  C    0.125173   0.287542  -0.009595  -0.034369  -0.007923   5.049762
     7  H    0.000909  -0.054378  -0.050029   0.348791   0.001436  -0.001033
     8  H   -0.032068  -0.048031  -0.000071  -0.007275   0.000857   0.354082
     9  H    0.002459   0.344926  -0.005796  -0.044400  -0.000189  -0.055846
    10  C   -0.024693  -0.031730  -0.000138   0.003715  -0.001328   0.330304
    11  H    0.003340  -0.010256  -0.000021  -0.000061   0.000452  -0.041144
    12  H    0.001085   0.004918  -0.000005  -0.000093  -0.000026  -0.043786
    13  H    0.002172  -0.000113   0.336515  -0.056074  -0.044942   0.000824
    14  O    0.001635   0.001697  -0.000001   0.000094   0.000030  -0.041665
    15  H    0.000011  -0.001779   0.000001  -0.000008  -0.000002  -0.001111
    16  O   -0.000092   0.002289   0.263658  -0.047208  -0.021593   0.000567
    17  H    0.000845  -0.000339  -0.051485   0.006812  -0.017757   0.000006
    18  O    0.000007  -0.032118  -0.036072   0.231972   0.001766   0.003528
    19  H   -0.000010  -0.013906   0.006420  -0.029828  -0.000245   0.000806
    20  O    0.001485   0.222796   0.002235  -0.037478   0.000194  -0.042376
    21  H    0.000035  -0.021343  -0.000198   0.005223  -0.000002  -0.004732
    22  H   -0.045610  -0.003070  -0.078727   0.001995   0.347386   0.006836
    23  O   -0.046200   0.000148  -0.047883   0.002001   0.377743   0.001780
    24  O   -0.000609   0.000000  -0.000132   0.000001   0.006933   0.000006
    25  H    0.001576   0.000008   0.001972  -0.000028  -0.011614  -0.000094
    26  H    0.005582   0.000010   0.000049  -0.000002   0.000090  -0.000174
    27  H    0.000004  -0.000000  -0.000002  -0.000000  -0.000283   0.000001
    28  O   -0.078637  -0.000066  -0.000026   0.000002   0.001052   0.001782
    29  H    0.129469   0.002191   0.000817  -0.000026   0.001089  -0.006083
    30  H    0.004040   0.000004  -0.000000  -0.000000  -0.000062   0.000053
               7          8          9         10         11         12
     1  O    0.000909  -0.032068   0.002459  -0.024693   0.003340   0.001085
     2  C   -0.054378  -0.048031   0.344926  -0.031730  -0.010256   0.004918
     3  C   -0.050029  -0.000071  -0.005796  -0.000138  -0.000021  -0.000005
     4  C    0.348791  -0.007275  -0.044400   0.003715  -0.000061  -0.000093
     5  C    0.001436   0.000857  -0.000189  -0.001328   0.000452  -0.000026
     6  C   -0.001033   0.354082  -0.055846   0.330304  -0.041144  -0.043786
     7  H    0.629843   0.004695   0.007718   0.000009   0.000001   0.000007
     8  H    0.004695   0.626543   0.007363  -0.055829   0.005868  -0.004935
     9  H    0.007718   0.007363   0.659398  -0.008225   0.005397   0.000093
    10  C    0.000009  -0.055829  -0.008225   4.956988   0.371311   0.364410
    11  H    0.000001   0.005868   0.005397   0.371311   0.560314  -0.036284
    12  H    0.000007  -0.004935   0.000093   0.364410  -0.036284   0.576666
    13  H    0.006866   0.000013   0.002654   0.000012  -0.000004  -0.000000
    14  O   -0.000011   0.001981   0.000137   0.221602  -0.033773  -0.025950
    15  H    0.000000   0.004878   0.000146  -0.029115   0.006808  -0.008249
    16  O    0.005821   0.000011  -0.000016  -0.000002   0.000000  -0.000000
    17  H   -0.000093   0.000006   0.000013  -0.000001   0.000000   0.000000
    18  O   -0.039515  -0.000074   0.001917  -0.000052  -0.000002   0.000000
    19  H   -0.001965   0.000028   0.000067  -0.000015   0.000001   0.000000
    20  O   -0.001573   0.005593  -0.040441  -0.000292   0.000102  -0.000214
    21  H   -0.000238  -0.000283  -0.004513  -0.004250  -0.000065   0.000436
    22  H   -0.000026  -0.000234   0.001978  -0.000166   0.001423  -0.000022
    23  O   -0.000066  -0.000074   0.000039  -0.000023  -0.000036   0.000005
    24  O   -0.000000   0.000000   0.000000  -0.000009   0.000009   0.000010
    25  H    0.000001   0.000002  -0.000001   0.000007  -0.000007  -0.000008
    26  H    0.000000   0.000005  -0.000000   0.000049   0.000028   0.000156
    27  H    0.000000  -0.000000   0.000000   0.000000  -0.000000  -0.000000
    28  O    0.000001   0.000045   0.000003  -0.000968   0.000078   0.004596
    29  H   -0.000071  -0.001869  -0.000208  -0.001272  -0.000605   0.002858
    30  H   -0.000000   0.000004  -0.000000  -0.000010  -0.000001  -0.000070
              13         14         15         16         17         18
     1  O    0.002172   0.001635   0.000011  -0.000092   0.000845   0.000007
     2  C   -0.000113   0.001697  -0.001779   0.002289  -0.000339  -0.032118
     3  C    0.336515  -0.000001   0.000001   0.263658  -0.051485  -0.036072
     4  C   -0.056074   0.000094  -0.000008  -0.047208   0.006812   0.231972
     5  C   -0.044942   0.000030  -0.000002  -0.021593  -0.017757   0.001766
     6  C    0.000824  -0.041665  -0.001111   0.000567   0.000006   0.003528
     7  H    0.006866  -0.000011   0.000000   0.005821  -0.000093  -0.039515
     8  H    0.000013   0.001981   0.004878   0.000011   0.000006  -0.000074
     9  H    0.002654   0.000137   0.000146  -0.000016   0.000013   0.001917
    10  C    0.000012   0.221602  -0.029115  -0.000002  -0.000001  -0.000052
    11  H   -0.000004  -0.033773   0.006808   0.000000   0.000000  -0.000002
    12  H   -0.000000  -0.025950  -0.008249  -0.000000   0.000000   0.000000
    13  H    0.635724  -0.000000  -0.000000  -0.038445   0.002608   0.003774
    14  O   -0.000000   8.225704   0.235638   0.000000  -0.000000  -0.000000
    15  H   -0.000000   0.235638   0.388259  -0.000000  -0.000000   0.000000
    16  O   -0.038445   0.000000  -0.000000   8.280493   0.227616   0.001046
    17  H    0.002608  -0.000000  -0.000000   0.227616   0.367834  -0.000159
    18  O    0.003774  -0.000000   0.000000   0.001046  -0.000159   8.283887
    19  H   -0.000221   0.000006  -0.000001  -0.000153   0.000016   0.233799
    20  O   -0.000148  -0.011878   0.001936  -0.000009   0.000001  -0.007431
    21  H    0.000010   0.042143  -0.002226   0.000001  -0.000000   0.000121
    22  H    0.004937  -0.000018   0.000000   0.002883   0.002687  -0.000045
    23  O   -0.002178   0.000000  -0.000000  -0.024576   0.054922  -0.000010
    24  O    0.000002   0.000000  -0.000000  -0.000001   0.000075  -0.000000
    25  H   -0.000100  -0.000000   0.000000   0.000062  -0.000487   0.000000
    26  H   -0.000001   0.000000   0.000000  -0.000000  -0.000007   0.000000
    27  H   -0.000000  -0.000000   0.000000   0.000000  -0.000011   0.000000
    28  O    0.000001   0.000007   0.000001   0.000000   0.000003   0.000000
    29  H   -0.000048  -0.000027  -0.000022  -0.000044  -0.000023   0.000001
    30  H   -0.000000  -0.000000  -0.000000   0.000000   0.000001   0.000000
              19         20         21         22         23         24
     1  O   -0.000010   0.001485   0.000035  -0.045610  -0.046200  -0.000609
     2  C   -0.013906   0.222796  -0.021343  -0.003070   0.000148   0.000000
     3  C    0.006420   0.002235  -0.000198  -0.078727  -0.047883  -0.000132
     4  C   -0.029828  -0.037478   0.005223   0.001995   0.002001   0.000001
     5  C   -0.000245   0.000194  -0.000002   0.347386   0.377743   0.006933
     6  C    0.000806  -0.042376  -0.004732   0.006836   0.001780   0.000006
     7  H   -0.001965  -0.001573  -0.000238  -0.000026  -0.000066  -0.000000
     8  H    0.000028   0.005593  -0.000283  -0.000234  -0.000074   0.000000
     9  H    0.000067  -0.040441  -0.004513   0.001978   0.000039   0.000000
    10  C   -0.000015  -0.000292  -0.004250  -0.000166  -0.000023  -0.000009
    11  H    0.000001   0.000102  -0.000065   0.001423  -0.000036   0.000009
    12  H    0.000000  -0.000214   0.000436  -0.000022   0.000005   0.000010
    13  H   -0.000221  -0.000148   0.000010   0.004937  -0.002178   0.000002
    14  O    0.000006  -0.011878   0.042143  -0.000018   0.000000   0.000000
    15  H   -0.000001   0.001936  -0.002226   0.000000  -0.000000  -0.000000
    16  O   -0.000153  -0.000009   0.000001   0.002883  -0.024576  -0.000001
    17  H    0.000016   0.000001  -0.000000   0.002687   0.054922   0.000075
    18  O    0.233799  -0.007431   0.000121  -0.000045  -0.000010  -0.000000
    19  H    0.372941   0.024885  -0.000528   0.000011   0.000001   0.000000
    20  O    0.024885   8.325849   0.223601  -0.000004  -0.000000   0.000000
    21  H   -0.000528   0.223601   0.354606  -0.000003  -0.000000   0.000000
    22  H    0.000011  -0.000004  -0.000003   0.693046  -0.053556   0.002322
    23  O    0.000001  -0.000000  -0.000000  -0.053556   8.316810  -0.065075
    24  O    0.000000   0.000000   0.000000   0.002322  -0.065075   8.441705
    25  H   -0.000000   0.000000   0.000000  -0.005625   0.098269   0.165484
    26  H    0.000000  -0.000000   0.000000  -0.000108   0.002779   0.111866
    27  H   -0.000000  -0.000000  -0.000000  -0.000082   0.003022   0.235087
    28  O   -0.000000   0.000000  -0.000000  -0.000152  -0.001595  -0.070772
    29  H    0.000000  -0.000021   0.000005   0.000923   0.006503   0.002127
    30  H    0.000000  -0.000000   0.000000   0.000013   0.000374   0.003663
              25         26         27         28         29         30
     1  O    0.001576   0.005582   0.000004  -0.078637   0.129469   0.004040
     2  C    0.000008   0.000010  -0.000000  -0.000066   0.002191   0.000004
     3  C    0.001972   0.000049  -0.000002  -0.000026   0.000817  -0.000000
     4  C   -0.000028  -0.000002  -0.000000   0.000002  -0.000026  -0.000000
     5  C   -0.011614   0.000090  -0.000283   0.001052   0.001089  -0.000062
     6  C   -0.000094  -0.000174   0.000001   0.001782  -0.006083   0.000053
     7  H    0.000001   0.000000   0.000000   0.000001  -0.000071  -0.000000
     8  H    0.000002   0.000005  -0.000000   0.000045  -0.001869   0.000004
     9  H   -0.000001  -0.000000   0.000000   0.000003  -0.000208  -0.000000
    10  C    0.000007   0.000049   0.000000  -0.000968  -0.001272  -0.000010
    11  H   -0.000007   0.000028  -0.000000   0.000078  -0.000605  -0.000001
    12  H   -0.000008   0.000156  -0.000000   0.004596   0.002858  -0.000070
    13  H   -0.000100  -0.000001  -0.000000   0.000001  -0.000048  -0.000000
    14  O   -0.000000   0.000000  -0.000000   0.000007  -0.000027  -0.000000
    15  H    0.000000   0.000000   0.000000   0.000001  -0.000022  -0.000000
    16  O    0.000062  -0.000000   0.000000   0.000000  -0.000044   0.000000
    17  H   -0.000487  -0.000007  -0.000011   0.000003  -0.000023   0.000001
    18  O    0.000000   0.000000   0.000000   0.000000   0.000001   0.000000
    19  H   -0.000000   0.000000  -0.000000  -0.000000   0.000000   0.000000
    20  O    0.000000  -0.000000  -0.000000   0.000000  -0.000021  -0.000000
    21  H    0.000000   0.000000  -0.000000  -0.000000   0.000005   0.000000
    22  H   -0.005625  -0.000108  -0.000082  -0.000152   0.000923   0.000013
    23  O    0.098269   0.002779   0.003022  -0.001595   0.006503   0.000374
    24  O    0.165484   0.111866   0.235087  -0.070772   0.002127   0.003663
    25  H    0.312849  -0.011616  -0.006440   0.007477  -0.000224  -0.000293
    26  H   -0.011616   0.297643  -0.005321   0.167548  -0.008300  -0.007266
    27  H   -0.006440  -0.005321   0.375232   0.003074  -0.000040  -0.000184
    28  O    0.007477   0.167548   0.003074   8.428479   0.126324   0.235015
    29  H   -0.000224  -0.008300  -0.000040   0.126324   0.278586  -0.006787
    30  H   -0.000293  -0.007266  -0.000184   0.235015  -0.006787   0.367750
 Mulliken charges:
               1
     1  O   -0.654914
     2  C    0.078017
     3  C    0.124817
     4  C    0.145388
     5  C    0.324166
     6  C    0.126879
     7  H    0.142898
     8  H    0.138767
     9  H    0.125325
    10  C   -0.090289
    11  H    0.167127
    12  H    0.164403
    13  H    0.146162
    14  O   -0.617352
    15  H    0.404834
    16  O   -0.652307
    17  H    0.406915
    18  O   -0.646341
    19  H    0.407891
    20  O   -0.666812
    21  H    0.412201
    22  H    0.121007
    23  O   -0.623124
    24  O   -0.832689
    25  H    0.448831
    26  H    0.446989
    27  H    0.395944
    28  O   -0.823269
    29  H    0.474776
    30  H    0.403758
 Sum of Mulliken charges =  -0.00000
 Mulliken charges with hydrogens summed into heavy atoms:
               1
     1  O   -0.180138
     2  C    0.203343
     3  C    0.270980
     4  C    0.288286
     5  C    0.445173
     6  C    0.265647
    10  C    0.241241
    14  O   -0.212518
    16  O   -0.245392
    18  O   -0.238450
    20  O   -0.254611
    23  O   -0.623124
    24  O    0.012086
    28  O    0.027479
 APT charges:
               1
     1  O   -0.448912
     2  C   -0.142128
     3  C   -0.351804
     4  C   -0.200716
     5  C   -0.238700
     6  C   -0.282582
     7  H    0.348679
     8  H    0.394727
     9  H    0.301456
    10  C   -0.576469
    11  H    0.317128
    12  H    0.461829
    13  H    0.454259
    14  O   -0.868015
    15  H    0.747038
    16  O   -0.614735
    17  H    0.527876
    18  O   -0.792429
    19  H    0.685536
    20  O   -0.814437
    21  H    0.627733
    22  H    0.280591
    23  O   -0.303221
    24  O   -1.287102
    25  H    0.230198
    26  H    0.441149
    27  H    1.012594
    28  O   -1.178908
    29  H    0.529844
    30  H    0.739523
 Sum of APT charges =  -0.00000
 APT charges with hydrogens summed into heavy atoms:
               1
     1  O    0.080932
     2  C    0.159328
     3  C    0.102455
     4  C    0.147963
     5  C    0.041891
     6  C    0.112145
    10  C    0.202488
    14  O   -0.120977
    16  O   -0.086860
    18  O   -0.106893
    20  O   -0.186704
    23  O   -0.303221
    24  O   -0.044311
    28  O    0.001764
 Electronic spatial extent (au):  <R**2>=           3319.6332
 Charge=             -0.0000 electrons
 Dipole moment (field-independent basis, Debye):
    X=             -2.3035    Y=              4.6690    Z=              1.5876  Tot=              5.4430
 Quadrupole moment (field-independent basis, Debye-Ang):
   XX=            -72.8287   YY=            -92.1702   ZZ=            -81.3916
   XY=              8.7211   XZ=             -4.3774   YZ=              8.2017
 Traceless Quadrupole moment (field-independent basis, Debye-Ang):
   XX=              9.3015   YY=            -10.0401   ZZ=              0.7386
   XY=              8.7211   XZ=             -4.3774   YZ=              8.2017
 Octapole moment (field-independent basis, Debye-Ang**2):
  XXX=            -81.5588  YYY=             40.3099  ZZZ=             12.3895  XYY=             -0.4383
  XXY=             -1.6978  XXZ=             26.5617  XZZ=             -8.3672  YZZ=              6.4385
  YYZ=             14.7522  XYZ=              0.4441
 Hexadecapole moment (field-independent basis, Debye-Ang**3):
 XXXX=          -1521.6435 YYYY=          -1602.9003 ZZZZ=           -242.5976 XXXY=             65.4788
 XXXZ=            -69.3010 YYYX=            105.9217 YYYZ=             83.6009 ZZZX=            -39.7114
 ZZZY=             12.8526 XXYY=           -610.4488 XXZZ=           -367.5291 YYZZ=           -298.6678
 XXYZ=             26.1348 YYXZ=             31.7407 ZZXY=              0.6642
 N-N= 1.100346757584D+03 E-N=-4.173297216080D+03  KE= 8.330349973151D+02
  Exact polarizability:   0.000   0.000   0.000   0.000   0.000   0.000
 Approx polarizability: 150.159   8.343 130.688   0.612   2.938 120.457

 This type of calculation cannot be archived.


 FRICTION IS A DRAG,
 AND ENTROPY AIN'T WHAT IT USED TO BE.
 Job cpu time:       0 days  1 hours  8 minutes 56.1 seconds.
 File lengths (MBytes):  RWF=    220 Int=      0 D2E=      0 Chk=      9 Scr=      1
 Normal termination of Gaussian 09 at Sat Jan 14 00:52:26 2017.
