 Entering Gaussian System, Link 0=g09
 Initial command:
 /global/software/gaussian/g09.e01/l1.exe "/scratch/10461016.yak.local/Gau-9196.inp" -scrdir="/scratch/10461016.yak.local/"
 Entering Link 1 = /global/software/gaussian/g09.e01/l1.exe PID=      9197.
  
 Copyright (c) 1988,1990,1992,1993,1995,1998,2003,2009,2015,
            Gaussian, Inc.  All Rights Reserved.
  
 This is part of the Gaussian(R) 09 program.  It is based on
 the Gaussian(R) 03 system (copyright 2003, Gaussian, Inc.),
 the Gaussian(R) 98 system (copyright 1998, Gaussian, Inc.),
 the Gaussian(R) 94 system (copyright 1995, Gaussian, Inc.),
 the Gaussian 92(TM) system (copyright 1992, Gaussian, Inc.),
 the Gaussian 90(TM) system (copyright 1990, Gaussian, Inc.),
 the Gaussian 88(TM) system (copyright 1988, Gaussian, Inc.),
 the Gaussian 86(TM) system (copyright 1986, Carnegie Mellon
 University), and the Gaussian 82(TM) system (copyright 1983,
 Carnegie Mellon University). Gaussian is a federally registered
 trademark of Gaussian, Inc.
  
 This software contains proprietary and confidential information,
 including trade secrets, belonging to Gaussian, Inc.
  
 This software is provided under written license and may be
 used, copied, transmitted, or stored only in accord with that
 written license.
  
 The following legend is applicable only to US Government
 contracts under FAR:
  
                    RESTRICTED RIGHTS LEGEND
  
 Use, reproduction and disclosure by the US Government is
 subject to restrictions as set forth in subparagraphs (a)
 and (c) of the Commercial Computer Software - Restricted
 Rights clause in FAR 52.227-19.
  
 Gaussian, Inc.
 340 Quinnipiac St., Bldg. 40, Wallingford CT 06492
  
  
 ---------------------------------------------------------------
 Warning -- This program may not be used in any manner that
 competes with the business of Gaussian, Inc. or will provide
 assistance to any competitor of Gaussian, Inc.  The licensee
 of this program is prohibited from giving any competitor of
 Gaussian, Inc. access to this program.  By using this program,
 the user acknowledges that Gaussian, Inc. is engaged in the
 business of creating and licensing software in the field of
 computational chemistry and represents and warrants to the
 licensee that it is not a competitor of Gaussian, Inc. and that
 it will not use this program in any manner prohibited above.
 ---------------------------------------------------------------
  

 Cite this work as:
 Gaussian 09, Revision E.01,
 M. J. Frisch, G. W. Trucks, H. B. Schlegel, G. E. Scuseria, 
 M. A. Robb, J. R. Cheeseman, G. Scalmani, V. Barone, B. Mennucci, 
 G. A. Petersson, H. Nakatsuji, M. Caricato, X. Li, H. P. Hratchian, 
 A. F. Izmaylov, J. Bloino, G. Zheng, J. L. Sonnenberg, M. Hada, 
 M. Ehara, K. Toyota, R. Fukuda, J. Hasegawa, M. Ishida, T. Nakajima, 
 Y. Honda, O. Kitao, H. Nakai, T. Vreven, J. A. Montgomery, Jr., 
 J. E. Peralta, F. Ogliaro, M. Bearpark, J. J. Heyd, E. Brothers, 
 K. N. Kudin, V. N. Staroverov, T. Keith, R. Kobayashi, J. Normand, 
 K. Raghavachari, A. Rendell, J. C. Burant, S. S. Iyengar, J. Tomasi, 
 M. Cossi, N. Rega, J. M. Millam, M. Klene, J. E. Knox, J. B. Cross, 
 V. Bakken, C. Adamo, J. Jaramillo, R. Gomperts, R. E. Stratmann, 
 O. Yazyev, A. J. Austin, R. Cammi, C. Pomelli, J. W. Ochterski, 
 R. L. Martin, K. Morokuma, V. G. Zakrzewski, G. A. Voth, 
 P. Salvador, J. J. Dannenberg, S. Dapprich, A. D. Daniels, 
 O. Farkas, J. B. Foresman, J. V. Ortiz, J. Cioslowski, 
 and D. J. Fox, Gaussian, Inc., Wallingford CT, 2013.
 
 ******************************************
 Gaussian 09:  ES64L-G09RevE.01 30-Nov-2015
                13-Jan-2017 
 ******************************************
 -------------------------------------
 # b3lyp/6-31g(d) irc=(calcfc,forward)
 -------------------------------------
 1/10=4,14=-1,18=10,22=1,26=3,38=1,44=3/1,23;
 2/12=2,17=6,18=5,29=1,40=1/2;
 3/5=1,6=6,7=1,11=2,16=1,25=1,30=1,71=2,74=-5,140=1/1,2,3;
 4//1;
 5/5=2,38=5/2;
 8/6=4,10=90,11=11/1;
 11/6=1,8=1,9=11,15=111,16=1/1,2,10;
 10/6=1,13=1/2;
 6/7=2,8=2,9=2,10=2,28=1/1;
 7/10=1,18=20,25=1/1,2,3,16;
 1/10=4,14=-1,18=10,22=1,26=3,44=3/23(2);
 2/29=1/2;
 99/5=20/99;
 2/29=1/2;
 3/5=1,6=6,7=1,11=2,16=1,25=1,30=1,71=2,74=-5,140=1/1,2,3;
 4/5=5,16=3,69=1/1;
 5/5=2,38=5/2;
 8/6=4,10=90,11=11/1;
 11/6=1,8=1,9=11,15=111,16=1/1,2,10;
 10/6=1,13=1/2;
 7/10=1,18=20,25=1/1,2,3,16;
 1/14=-1,18=10,22=1,26=3,44=3/23(-8);
 2/29=1/2;
 6/7=2,8=2,9=2,10=2,19=2,28=1/1;
 99/5=20,9=1/99;
 --------------------------------
 glo_2w_beta_ts_boat4_B3LYP_631Gd
 --------------------------------
 Symbolic Z-matrix:
 Charge =  0 Multiplicity = 1
 8                     0.61238  -0.21093  -0.99014 
 6                    -1.23452   0.82569   0.23569 
 6                    -1.13337  -1.69976   0.11872 
 6                    -1.97455  -0.44905  -0.16596 
 6                     0.38413  -1.42614   0.18232 
 6                    -0.00853   1.04466  -0.66887 
 1                    -2.15957  -0.4213   -1.25177 
 1                    -0.3855    1.46058  -1.61503 
 1                    -0.9199    0.73527   1.2826 
 1                     0.9512   -2.18038  -0.38902 
 6                     0.98427   2.03123  -0.03741 
 1                     1.3432    1.62595   0.91192 
 1                     1.8529    2.18824  -0.69493 
 1                    -1.41307  -2.05819   1.11799 
 8                     0.85428  -1.04208   1.32653 
 8                     0.35466   3.27869   0.26906 
 1                     0.16498   3.72623  -0.57154 
 8                    -1.44636  -2.65838  -0.88494 
 1                    -1.21118  -3.53522  -0.54564 
 8                    -3.19424  -0.54997   0.54893 
 1                    -3.58162   0.34235   0.51994 
 8                    -2.15462   1.90773   0.08884 
 1                    -1.71288   2.67965   0.48316 
 8                     3.28036  -1.01002   1.12392 
 1                     3.27921  -0.59693  -0.08822 
 1                     2.15505  -1.06716   1.31509 
 1                     3.63517  -0.34476   1.73353 
 8                     3.0201   -0.31828  -1.18018 
 1                     1.81     -0.18216  -1.16295 
 1                     3.47492   0.49402  -1.44825 
 
 IRC-IRC-IRC-IRC-IRC-IRC-IRC-IRC-IRC-IRC-IRC-IRC-IRC-IRC-IRC-IRC-IRC-IRC
 ------------------------------------------------------------------------
 INPUT DATA FOR L123
 ------------------------------------------------------------------------
 GENERAL PARAMETERS:
 Rxn path following direction = Forward
 Maximum points per path      =  10
 Step size                    =   0.100 bohr
 Integration scheme           = HPC                                 
    Redo corrector integration= Yes                                 
    DWI Weight Power          =  2
    DWI will use Hessian update vectors when possible.
    Max correction cycles     =  20
 Initial Hessian              = CalcFC
 Hessian evaluation           = All updating
 Hessian updating method      = Bofill                              
 ------------------------------------------------------------------------
 IRC-IRC-IRC-IRC-IRC-IRC-IRC-IRC-IRC-IRC-IRC-IRC-IRC-IRC-IRC-IRC-IRC-IRC
                          Input orientation:                          
 ---------------------------------------------------------------------
 Center     Atomic      Atomic             Coordinates (Angstroms)
 Number     Number       Type             X           Y           Z
 ---------------------------------------------------------------------
      1          8           0        0.612378   -0.210934   -0.990135
      2          6           0       -1.234521    0.825689    0.235694
      3          6           0       -1.133372   -1.699761    0.118722
      4          6           0       -1.974549   -0.449051   -0.165955
      5          6           0        0.384127   -1.426143    0.182315
      6          6           0       -0.008527    1.044664   -0.668871
      7          1           0       -2.159568   -0.421297   -1.251773
      8          1           0       -0.385503    1.460582   -1.615033
      9          1           0       -0.919903    0.735269    1.282604
     10          1           0        0.951197   -2.180376   -0.389020
     11          6           0        0.984270    2.031233   -0.037409
     12          1           0        1.343198    1.625945    0.911924
     13          1           0        1.852895    2.188240   -0.694931
     14          1           0       -1.413073   -2.058189    1.117994
     15          8           0        0.854284   -1.042084    1.326525
     16          8           0        0.354658    3.278694    0.269062
     17          1           0        0.164981    3.726228   -0.571536
     18          8           0       -1.446355   -2.658383   -0.884937
     19          1           0       -1.211181   -3.535221   -0.545642
     20          8           0       -3.194241   -0.549966    0.548925
     21          1           0       -3.581619    0.342347    0.519936
     22          8           0       -2.154622    1.907726    0.088842
     23          1           0       -1.712876    2.679646    0.483162
     24          8           0        3.280361   -1.010017    1.123919
     25          1           0        3.279206   -0.596934   -0.088222
     26          1           0        2.155055   -1.067164    1.315093
     27          1           0        3.635166   -0.344762    1.733531
     28          8           0        3.020103   -0.318282   -1.180183
     29          1           0        1.810000   -0.182163   -1.162950
     30          1           0        3.474919    0.494018   -1.448252
 ---------------------------------------------------------------------
                    Distance matrix (angstroms):
                    1          2          3          4          5
     1  O    0.000000
     2  C    2.447096   0.000000
     3  C    2.548296   2.530180   0.000000
     4  C    2.725466   1.527719   1.533915   0.000000
     5  C    1.703957   2.773737   1.543280   2.576694   0.000000
     6  C    1.437101   1.539237   3.068786   2.519792   2.642647
     7  H    2.792202   2.150173   2.136774   1.101818   3.088156
     8  H    2.044561   2.132865   3.681438   2.876038   3.486541
     9  H    2.899746   1.096896   2.707316   2.147840   2.753694
    10  H    2.086825   3.768827   2.198686   3.406939   1.103114
    11  C    2.464407   2.539873   4.292913   3.863022   3.515949
    12  H    2.743365   2.782505   4.221716   4.058926   3.281370
    13  H    2.716995   3.500678   4.969545   4.678082   3.998825
    14  H    3.458180   3.021107   1.097838   2.133801   2.122476
    15  O    2.473104   3.006924   2.417044   3.252919   1.295286
    16  O    3.718804   2.922984   5.198254   4.417072   4.705729
    17  H    3.984549   3.320143   5.621702   4.709038   5.211837
    18  O    3.199915   3.665985   1.422760   2.382661   2.451144
    19  H    3.817568   4.430414   1.953547   3.201771   2.742834
    20  O    4.119951   2.414755   2.398809   1.417352   3.702270
    21  H    4.491775   2.413148   3.213268   1.918184   4.355306
    22  O    3.648178   1.427920   3.749374   2.377340   4.191499
    23  H    3.991599   1.930601   4.432589   3.206021   4.620112
    24  O    3.496554   4.954081   4.578996   5.439902   3.073752
    25  H    2.841551   4.743681   4.553010   5.256411   3.023617
    26  H    2.902940   4.029543   3.556014   4.430485   2.132660
    27  H    4.071058   5.227554   5.213692   5.923498   3.760972
    28  O    2.417598   4.627656   4.565851   5.098265   3.167353
    29  H    1.210368   3.498725   3.550947   3.922759   2.321710
    30  H    2.983449   5.012435   5.338953   5.677179   3.987325
                    6          7          8          9         10
     6  C    0.000000
     7  H    2.667545   0.000000
     8  H    1.100146   2.611653   0.000000
     9  H    2.175910   3.049177   3.034462   0.000000
    10  H    3.376429   3.676352   4.067733   3.846600   0.000000
    11  C    1.535483   4.168129   2.165830   2.654775   4.226390
    12  H    2.159621   4.598060   3.066148   2.460149   4.041559
    13  H    2.184797   4.818674   2.527152   3.702726   4.471180
    14  H    3.846210   2.975309   4.572427   2.841429   2.806384
    15  O    3.013398   4.014511   4.056251   2.511703   2.061115
    16  O    2.450002   4.724850   2.720879   3.020064   5.530857
    17  H    2.688934   4.802938   2.554422   3.682478   5.961495
    18  O    3.978265   2.376509   4.315590   4.061066   2.494530
    19  H    4.736761   3.330853   5.175267   4.654504   2.556563
    20  O    3.764923   2.080773   4.076031   2.713435   4.552212
    21  H    3.830600   2.396734   4.002961   2.796566   5.266569
    22  O    2.434077   2.687307   2.496580   2.079484   5.156262
    23  H    2.627766   3.581254   2.765946   2.246890   5.610508
    24  O    4.272305   5.965177   5.200411   4.551200   3.013923
    25  H    3.720374   5.564617   4.471534   4.613724   2.831500
    26  H    3.616216   5.061810   4.629209   3.564434   2.364850
    27  H    4.580233   6.518960   5.535154   4.703026   3.883090
    28  O    3.360307   5.181190   3.866730   4.764340   2.893735
    29  H    2.248613   3.977756   2.779069   3.778199   2.308542
    30  H    3.611792   5.711729   3.983079   5.179791   3.826686
                   11         12         13         14         15
    11  C    0.000000
    12  H    1.092850   0.000000
    13  H    1.100680   1.777062   0.000000
    14  H    4.879096   4.605685   5.655564   0.000000
    15  O    3.364891   2.743959   3.939353   2.493364   0.000000
    16  O    1.430557   2.030286   2.088800   5.685761   4.476268
    17  H    1.956920   2.828434   2.286851   6.229305   5.178279
    18  O    5.349649   5.419020   5.866081   2.091189   3.577139
    19  H    6.005307   5.940285   6.493755   2.233846   3.739905
    20  O    4.946345   5.045266   5.875247   2.402319   4.151794
    21  H    4.900032   5.104420   5.866614   3.289808   4.716404
    22  O    3.143857   3.604388   4.093065   4.163836   4.391669
    23  H    2.822416   3.260937   3.787361   4.789569   4.599222
    24  O    3.983707   3.278085   3.946482   4.809056   2.434733
    25  H    3.489495   3.112814   3.187421   5.060406   2.842519
    26  H    3.577718   2.841565   3.837858   3.708438   1.301063
    27  H    3.976032   3.132386   3.935736   5.366510   2.895724
    28  O    3.312215   3.311939   2.807222   5.287905   3.390906
    29  H    2.616829   2.791462   2.416545   4.371542   2.801846
    30  H    3.249129   3.375785   2.463502   6.082092   4.114210
                   16         17         18         19         20
    16  O    0.000000
    17  H    0.971014   0.000000
    18  O    6.310645   6.592259   0.000000
    19  H    7.038823   7.390747   0.969161   0.000000
    20  O    5.227968   5.552084   3.091357   3.747313   0.000000
    21  H    4.917250   5.165169   3.941751   4.667972   0.973203
    22  O    2.865051   3.020531   4.722207   5.560425   2.707902
    23  H    2.163191   2.394592   5.516999   6.319391   3.553753
    24  O    5.261517   5.917109   5.393928   5.416460   6.516344
    25  H    4.868380   5.349927   5.216824   5.385753   6.504896
    26  H    4.818931   5.522352   4.510240   4.570031   5.428579
    27  H    5.102532   5.824816   6.166934   6.233838   6.934421
    28  O    4.705650   4.988009   5.050989   5.353046   6.454577
    29  H    4.018235   4.281516   4.100342   4.555393   5.301719
    30  H    4.521019   4.708662   5.871447   6.245719   7.039625
                   21         22         23         24         25
    21  H    0.000000
    22  O    2.161614   0.000000
    23  H    2.992744   0.972876   0.000000
    24  O    7.020004   6.254890   6.241522   0.000000
    25  H    6.951476   5.985913   5.998611   1.280595   0.000000
    26  H    5.960572   5.378381   5.448998   1.142859   1.858528
    27  H    7.350300   6.426535   6.269930   0.969576   1.873254
    28  O    6.849056   5.774367   5.844260   2.419735   1.156356
    29  H    5.672457   4.653262   4.828073   2.842019   1.866987
    30  H    7.327448   6.004412   5.951516   2.985974   1.754469
                   26         27         28         29         30
    26  H    0.000000
    27  H    1.699319   0.000000
    28  O    2.745093   2.978042   0.000000
    29  H    2.653863   3.427429   1.217857   0.000000
    30  H    3.437354   3.294385   0.968788   1.819498   0.000000
 Symmetry turned off by external request.
 Stoichiometry    C6H16O8
 Framework group  C1[X(C6H16O8)]
 Deg. of freedom    84
 Full point group                 C1      NOp   1
 Rotational constants (GHZ):      0.7204891      0.5567535      0.3745076
 Standard basis: 6-31G(d) (6D, 7F)
   242 basis functions,   456 primitive gaussians,   242 cartesian basis functions
    58 alpha electrons       58 beta electrons
       nuclear repulsion energy      1117.8615316256 Hartrees.
 NAtoms=   30 NActive=   30 NUniq=   30 SFac= 1.00D+00 NAtFMM=   60 NAOKFM=F Big=F
 Integral buffers will be    131072 words long.
 Raffenetti 2 integral format.
 Two-electron integral symmetry is turned off.
 One-electron integrals computed using PRISM.
 NBasis=   242 RedAO= T EigKep=  1.30D-03  NBF=   242
 NBsUse=   242 1.00D-06 EigRej= -1.00D+00 NBFU=   242
 ExpMin= 1.61D-01 ExpMax= 5.48D+03 ExpMxC= 8.25D+02 IAcc=1 IRadAn=         1 AccDes= 0.00D+00
 Harris functional with IExCor=  402 and IRadAn=       1 diagonalized for initial guess.
 HarFok:  IExCor=  402 AccDes= 0.00D+00 IRadAn=         1 IDoV= 1 UseB2=F ITyADJ=14
 ICtDFT=  3500011 ScaDFX=  1.000000  1.000000  1.000000  1.000000
 FoFCou: FMM=F IPFlag=           0 FMFlag=      100000 FMFlg1=           0
         NFxFlg=           0 DoJE=T BraDBF=F KetDBF=T FulRan=T
         wScrn=  0.000000 ICntrl=     500 IOpCl=  0 I1Cent=   200000004 NGrid=           0
         NMat0=    1 NMatS0=      1 NMatT0=    0 NMatD0=    1 NMtDS0=    0 NMtDT0=    0
 Symmetry not used in FoFCou.
 Requested convergence on RMS density matrix=1.00D-08 within 128 cycles.
 Requested convergence on MAX density matrix=1.00D-06.
 Requested convergence on             energy=1.00D-06.
 No special actions if energy rises.
 Integral accuracy reduced to 1.0D-05 until final iterations.
 Initial convergence to 1.0D-05 achieved.  Increase integral accuracy.
 SCF Done:  E(RB3LYP) =  -839.954485455     A.U. after   14 cycles
            NFock= 14  Conv=0.71D-08     -V/T= 2.0086
 DoSCS=F DFT=T ScalE2(SS,OS)=  1.000000  1.000000
 Range of M.O.s used for correlation:     1   242
 NBasis=   242 NAE=    58 NBE=    58 NFC=     0 NFV=     0
 NROrb=    242 NOA=    58 NOB=    58 NVA=   184 NVB=   184
 Symmetrizing basis deriv contribution to polar:
 IMax=3 JMax=2 DiffMx= 0.00D+00
 G2DrvN: will do    31 centers at a time, making    1 passes.
 Calling FoFCou, ICntrl=  3107 FMM=F I1Cent=   0 AccDes= 0.00D+00.
 End of G2Drv F.D. properties file   721 does not exist.
 End of G2Drv F.D. properties file   722 does not exist.
 End of G2Drv F.D. properties file   788 does not exist.
          IDoAtm=111111111111111111111111111111
          Differentiating once with respect to nuclear coordinates.
          There are    93 degrees of freedom in the 1st order CPHF.  IDoFFX=6 NUNeed=     0.
     87 vectors produced by pass  0 Test12= 1.15D-14 1.08D-09 XBig12= 1.23D-01 6.26D-02.
 AX will form    87 AO Fock derivatives at one time.
     87 vectors produced by pass  1 Test12= 1.15D-14 1.08D-09 XBig12= 1.29D-02 1.63D-02.
     87 vectors produced by pass  2 Test12= 1.15D-14 1.08D-09 XBig12= 1.32D-04 1.81D-03.
     87 vectors produced by pass  3 Test12= 1.15D-14 1.08D-09 XBig12= 3.21D-07 5.44D-05.
     87 vectors produced by pass  4 Test12= 1.15D-14 1.08D-09 XBig12= 4.65D-10 1.68D-06.
     68 vectors produced by pass  5 Test12= 1.15D-14 1.08D-09 XBig12= 3.90D-13 5.73D-08.
      1 vectors produced by pass  6 Test12= 1.15D-14 1.08D-09 XBig12= 3.65D-16 1.88D-09.
 InvSVY:  IOpt=1 It=  1 EMax= 4.16D-16
 Solved reduced A of dimension   504 with    93 vectors.
 End of Minotr F.D. properties file   721 does not exist.
 End of Minotr F.D. properties file   722 does not exist.
 End of Minotr F.D. properties file   788 does not exist.

 **********************************************************************

            Population analysis using the SCF density.

 **********************************************************************

 Alpha  occ. eigenvalues --  -19.18187 -19.17386 -19.17047 -19.15239 -19.14882
 Alpha  occ. eigenvalues --  -19.14283 -19.12926 -19.11261 -10.28207 -10.25555
 Alpha  occ. eigenvalues --  -10.25160 -10.23579 -10.23256 -10.22863  -1.05946
 Alpha  occ. eigenvalues --   -1.04872  -1.03270  -1.02190  -1.01509  -1.00642
 Alpha  occ. eigenvalues --   -0.99719  -0.97488  -0.78001  -0.75527  -0.69138
 Alpha  occ. eigenvalues --   -0.63363  -0.62824  -0.56743  -0.56104  -0.55122
 Alpha  occ. eigenvalues --   -0.53818  -0.53443  -0.52464  -0.51375  -0.48842
 Alpha  occ. eigenvalues --   -0.46781  -0.45901  -0.44884  -0.43482  -0.42736
 Alpha  occ. eigenvalues --   -0.42132  -0.41362  -0.39511  -0.38542  -0.38127
 Alpha  occ. eigenvalues --   -0.36318  -0.36028  -0.34676  -0.34090  -0.32566
 Alpha  occ. eigenvalues --   -0.31346  -0.30975  -0.29714  -0.28374  -0.27059
 Alpha  occ. eigenvalues --   -0.25967  -0.25661  -0.24071
 Alpha virt. eigenvalues --    0.03293   0.03721   0.05577   0.07724   0.08387
 Alpha virt. eigenvalues --    0.09111   0.11227   0.12890   0.13315   0.14121
 Alpha virt. eigenvalues --    0.15266   0.16616   0.17597   0.17976   0.19796
 Alpha virt. eigenvalues --    0.20087   0.21038   0.22448   0.24052   0.25292
 Alpha virt. eigenvalues --    0.26215   0.27751   0.28327   0.30250   0.31211
 Alpha virt. eigenvalues --    0.31733   0.32407   0.37166   0.51300   0.52381
 Alpha virt. eigenvalues --    0.53869   0.54993   0.57109   0.58126   0.59617
 Alpha virt. eigenvalues --    0.60815   0.62232   0.63109   0.65313   0.65737
 Alpha virt. eigenvalues --    0.67773   0.69957   0.70973   0.71939   0.73435
 Alpha virt. eigenvalues --    0.75451   0.77206   0.77562   0.78813   0.80604
 Alpha virt. eigenvalues --    0.81941   0.82246   0.83601   0.83828   0.85018
 Alpha virt. eigenvalues --    0.85406   0.85735   0.86876   0.88508   0.89439
 Alpha virt. eigenvalues --    0.90629   0.92103   0.94312   0.94467   0.96593
 Alpha virt. eigenvalues --    0.97481   0.98427   0.99936   1.02200   1.02670
 Alpha virt. eigenvalues --    1.02846   1.04962   1.06316   1.07743   1.08763
 Alpha virt. eigenvalues --    1.10866   1.12417   1.13903   1.14578   1.15351
 Alpha virt. eigenvalues --    1.18543   1.19847   1.21665   1.24815   1.27330
 Alpha virt. eigenvalues --    1.29012   1.31749   1.32547   1.36516   1.39779
 Alpha virt. eigenvalues --    1.41346   1.45283   1.46789   1.47923   1.53320
 Alpha virt. eigenvalues --    1.55506   1.56142   1.57314   1.58565   1.60756
 Alpha virt. eigenvalues --    1.61809   1.62642   1.67566   1.68163   1.69780
 Alpha virt. eigenvalues --    1.70512   1.72263   1.72839   1.72925   1.73859
 Alpha virt. eigenvalues --    1.75849   1.77502   1.78383   1.79632   1.80256
 Alpha virt. eigenvalues --    1.82260   1.83630   1.84262   1.85664   1.86706
 Alpha virt. eigenvalues --    1.89165   1.90537   1.90948   1.92633   1.95789
 Alpha virt. eigenvalues --    1.99179   2.00627   2.01354   2.04277   2.05078
 Alpha virt. eigenvalues --    2.08454   2.09439   2.10654   2.12841   2.15267
 Alpha virt. eigenvalues --    2.18311   2.20820   2.24699   2.27049   2.27773
 Alpha virt. eigenvalues --    2.32236   2.32400   2.37482   2.39047   2.40513
 Alpha virt. eigenvalues --    2.42608   2.46581   2.48724   2.50165   2.52705
 Alpha virt. eigenvalues --    2.54630   2.55955   2.56417   2.58022   2.61565
 Alpha virt. eigenvalues --    2.62132   2.65751   2.68394   2.71100   2.75029
 Alpha virt. eigenvalues --    2.75870   2.81624   2.84229   2.86876   2.91291
 Alpha virt. eigenvalues --    2.95543   2.96433   3.00532   3.06610   3.09646
 Alpha virt. eigenvalues --    3.73118   3.75606   3.79971   3.86975   3.89631
 Alpha virt. eigenvalues --    3.94732   4.07597   4.12112   4.25137   4.39225
 Alpha virt. eigenvalues --    4.45405   4.52246   4.65759   4.85429
          Condensed to atoms (all electrons):
               1          2          3          4          5          6
     1  O    8.613658  -0.029716  -0.018804  -0.002302   0.058472   0.129945
     2  C   -0.029716   5.033846  -0.025359   0.312890   0.007328   0.287867
     3  C   -0.018804  -0.025359   4.968813   0.328953   0.303813  -0.014410
     4  C   -0.002302   0.312890   0.328953   4.853612  -0.042554  -0.031187
     5  C    0.058472   0.007328   0.303813  -0.042554   4.883744  -0.016494
     6  C    0.129945   0.287867  -0.014410  -0.031187  -0.016494   5.017560
     7  H    0.001407  -0.057348  -0.052781   0.354658  -0.000155  -0.001387
     8  H   -0.032756  -0.047175   0.000380  -0.006952   0.001793   0.360186
     9  H    0.001750   0.347354  -0.008567  -0.037450  -0.002145  -0.048937
    10  H   -0.037313   0.000361  -0.066400   0.003233   0.350171   0.004444
    11  C   -0.023313  -0.029997  -0.000173   0.003573  -0.000456   0.330277
    12  H    0.000357  -0.009957  -0.000023  -0.000068   0.001226  -0.035198
    13  H    0.000425   0.005387  -0.000017  -0.000093  -0.000103  -0.048877
    14  H    0.002567  -0.002870   0.346609  -0.028357  -0.059575   0.000637
    15  O   -0.056120  -0.005016  -0.045959   0.001558   0.277765   0.008745
    16  O    0.001469   0.001949  -0.000005   0.000165   0.000030  -0.041313
    17  H    0.000025  -0.002096   0.000001  -0.000011  -0.000001  -0.000981
    18  O    0.001851   0.002478   0.214358  -0.038626  -0.040877   0.000238
    19  H   -0.000106  -0.000299  -0.022415   0.006874  -0.000883  -0.000003
    20  O    0.000047  -0.030441  -0.039343   0.242163   0.002365   0.003302
    21  H   -0.000016  -0.014514   0.006713  -0.033433  -0.000285   0.000961
    22  O    0.001350   0.210354   0.002476  -0.037896   0.000101  -0.041957
    23  H    0.000002  -0.022112  -0.000240   0.005611   0.000037  -0.003768
    24  O   -0.000993  -0.000010  -0.000091   0.000001   0.009533  -0.000020
    25  H    0.004789   0.000019   0.000107  -0.000003  -0.000089  -0.000387
    26  H    0.003074   0.000069   0.002129  -0.000098  -0.015706  -0.000507
    27  H    0.000012   0.000002   0.000000   0.000000  -0.000342  -0.000031
    28  O   -0.095886  -0.000094  -0.000043   0.000009   0.004701   0.001889
    29  H    0.115872   0.002060   0.001367   0.000029  -0.004262  -0.009222
    30  H    0.004613   0.000023  -0.000002  -0.000000  -0.000085  -0.000729
               7          8          9         10         11         12
     1  O    0.001407  -0.032756   0.001750  -0.037313  -0.023313   0.000357
     2  C   -0.057348  -0.047175   0.347354   0.000361  -0.029997  -0.009957
     3  C   -0.052781   0.000380  -0.008567  -0.066400  -0.000173  -0.000023
     4  C    0.354658  -0.006952  -0.037450   0.003233   0.003573  -0.000068
     5  C   -0.000155   0.001793  -0.002145   0.350171  -0.000456   0.001226
     6  C   -0.001387   0.360186  -0.048937   0.004444   0.330277  -0.035198
     7  H    0.638554   0.004836   0.007178  -0.000244   0.000097   0.000008
     8  H    0.004836   0.625267   0.006826  -0.000207  -0.057540   0.005317
     9  H    0.007178   0.006826   0.603604   0.000403  -0.008701   0.004995
    10  H   -0.000244  -0.000207   0.000403   0.650476  -0.000192   0.000112
    11  C    0.000097  -0.057540  -0.008701  -0.000192   4.976889   0.361695
    12  H    0.000008   0.005317   0.004995   0.000112   0.361695   0.550772
    13  H    0.000008  -0.005792   0.000121   0.000011   0.349676  -0.040782
    14  H    0.006852   0.000018   0.003642   0.003972   0.000019  -0.000001
    15  O    0.000024  -0.000157   0.012157  -0.042942  -0.003624   0.008437
    16  O   -0.000012   0.001047   0.000160   0.000001   0.218793  -0.030409
    17  H    0.000002   0.005545   0.000189  -0.000000  -0.029712   0.006591
    18  O    0.001920   0.000020   0.000029   0.009145  -0.000003   0.000000
    19  H   -0.000073  -0.000000   0.000010   0.002642  -0.000000   0.000000
    20  O   -0.042007  -0.000063   0.001038  -0.000069  -0.000049  -0.000002
    21  H   -0.001018   0.000012   0.000317   0.000006  -0.000017  -0.000000
    22  O   -0.001495   0.005005  -0.036612   0.000003  -0.000895   0.000149
    23  H   -0.000271  -0.000455  -0.005190  -0.000000  -0.003520  -0.000125
    24  O   -0.000000  -0.000001   0.000011   0.003505  -0.000586   0.002356
    25  H   -0.000000   0.000009  -0.000010  -0.001227   0.000197   0.000340
    26  H    0.000002   0.000008  -0.000059  -0.006575   0.000410  -0.000033
    27  H    0.000000   0.000000  -0.000008  -0.000160   0.000070   0.000639
    28  O    0.000002  -0.000097   0.000005   0.001664   0.002921  -0.000392
    29  H   -0.000058  -0.001222  -0.000206  -0.001909  -0.000884  -0.000089
    30  H   -0.000000   0.000033  -0.000001  -0.000024  -0.000029   0.000126
              13         14         15         16         17         18
     1  O    0.000425   0.002567  -0.056120   0.001469   0.000025   0.001851
     2  C    0.005387  -0.002870  -0.005016   0.001949  -0.002096   0.002478
     3  C   -0.000017   0.346609  -0.045959  -0.000005   0.000001   0.214358
     4  C   -0.000093  -0.028357   0.001558   0.000165  -0.000011  -0.038626
     5  C   -0.000103  -0.059575   0.277765   0.000030  -0.000001  -0.040877
     6  C   -0.048877   0.000637   0.008745  -0.041313  -0.000981   0.000238
     7  H    0.000008   0.006852   0.000024  -0.000012   0.000002   0.001920
     8  H   -0.005792   0.000018  -0.000157   0.001047   0.005545   0.000020
     9  H    0.000121   0.003642   0.012157   0.000160   0.000189   0.000029
    10  H    0.000011   0.003972  -0.042942   0.000001  -0.000000   0.009145
    11  C    0.349676   0.000019  -0.003624   0.218793  -0.029712  -0.000003
    12  H   -0.040782  -0.000001   0.008437  -0.030409   0.006591   0.000000
    13  H    0.654598  -0.000000   0.000138  -0.028357  -0.008526  -0.000000
    14  H   -0.000000   0.597428   0.006566  -0.000000   0.000000  -0.031247
    15  O    0.000138   0.006566   8.416933   0.000021  -0.000003   0.001539
    16  O   -0.028357  -0.000000   0.000021   8.232117   0.233360   0.000000
    17  H   -0.008526   0.000000  -0.000003   0.233360   0.394143   0.000000
    18  O   -0.000000  -0.031247   0.001539   0.000000   0.000000   8.274494
    19  H    0.000000  -0.007707  -0.000052   0.000000  -0.000000   0.231188
    20  O    0.000000   0.001424  -0.000035  -0.000000   0.000000   0.001308
    21  H    0.000001  -0.000046   0.000005   0.000006  -0.000001  -0.000177
    22  O   -0.000228  -0.000104   0.000059  -0.009825   0.002584  -0.000007
    23  H    0.000411   0.000006  -0.000001   0.036633  -0.002156   0.000001
    24  O   -0.000070   0.000004  -0.095763   0.000001  -0.000000   0.000000
    25  H    0.000012  -0.000003   0.005387   0.000000   0.000000  -0.000001
    26  H   -0.000024  -0.000028   0.128163  -0.000000   0.000000  -0.000043
    27  H    0.000005  -0.000001   0.004788   0.000000   0.000000  -0.000000
    28  O    0.002958   0.000003  -0.001598   0.000021   0.000002   0.000001
    29  H    0.003855  -0.000078   0.004247  -0.000028  -0.000023  -0.000085
    30  H    0.004565  -0.000000   0.000028  -0.000003  -0.000002  -0.000000
              19         20         21         22         23         24
     1  O   -0.000106   0.000047  -0.000016   0.001350   0.000002  -0.000993
     2  C   -0.000299  -0.030441  -0.014514   0.210354  -0.022112  -0.000010
     3  C   -0.022415  -0.039343   0.006713   0.002476  -0.000240  -0.000091
     4  C    0.006874   0.242163  -0.033433  -0.037896   0.005611   0.000001
     5  C   -0.000883   0.002365  -0.000285   0.000101   0.000037   0.009533
     6  C   -0.000003   0.003302   0.000961  -0.041957  -0.003768  -0.000020
     7  H   -0.000073  -0.042007  -0.001018  -0.001495  -0.000271  -0.000000
     8  H   -0.000000  -0.000063   0.000012   0.005005  -0.000455  -0.000001
     9  H    0.000010   0.001038   0.000317  -0.036612  -0.005190   0.000011
    10  H    0.002642  -0.000069   0.000006   0.000003  -0.000000   0.003505
    11  C   -0.000000  -0.000049  -0.000017  -0.000895  -0.003520  -0.000586
    12  H    0.000000  -0.000002  -0.000000   0.000149  -0.000125   0.002356
    13  H    0.000000   0.000000   0.000001  -0.000228   0.000411  -0.000070
    14  H   -0.007707   0.001424  -0.000046  -0.000104   0.000006   0.000004
    15  O   -0.000052  -0.000035   0.000005   0.000059  -0.000001  -0.095763
    16  O    0.000000  -0.000000   0.000006  -0.009825   0.036633   0.000001
    17  H   -0.000000   0.000000  -0.000001   0.002584  -0.002156  -0.000000
    18  O    0.231188   0.001308  -0.000177  -0.000007   0.000001   0.000000
    19  H    0.396173  -0.000218   0.000024   0.000001  -0.000000   0.000000
    20  O   -0.000218   8.284061   0.235083  -0.008204   0.000149  -0.000000
    21  H    0.000024   0.235083   0.371221   0.027692  -0.000696   0.000000
    22  O    0.000001  -0.008204   0.027692   8.330215   0.225544   0.000000
    23  H   -0.000000   0.000149  -0.000696   0.225544   0.361737  -0.000000
    24  O    0.000000  -0.000000   0.000000   0.000000  -0.000000   8.524737
    25  H   -0.000000   0.000000  -0.000000  -0.000000   0.000000   0.130662
    26  H   -0.000006   0.000001  -0.000000  -0.000000   0.000000   0.133345
    27  H    0.000000   0.000000  -0.000000  -0.000000   0.000000   0.227581
    28  O   -0.000000   0.000000  -0.000000   0.000000  -0.000000  -0.100569
    29  H    0.000001   0.000001   0.000000  -0.000015   0.000003   0.004943
    30  H    0.000000   0.000000   0.000000  -0.000000   0.000000   0.004340
              25         26         27         28         29         30
     1  O    0.004789   0.003074   0.000012  -0.095886   0.115872   0.004613
     2  C    0.000019   0.000069   0.000002  -0.000094   0.002060   0.000023
     3  C    0.000107   0.002129   0.000000  -0.000043   0.001367  -0.000002
     4  C   -0.000003  -0.000098   0.000000   0.000009   0.000029  -0.000000
     5  C   -0.000089  -0.015706  -0.000342   0.004701  -0.004262  -0.000085
     6  C   -0.000387  -0.000507  -0.000031   0.001889  -0.009222  -0.000729
     7  H   -0.000000   0.000002   0.000000   0.000002  -0.000058  -0.000000
     8  H    0.000009   0.000008   0.000000  -0.000097  -0.001222   0.000033
     9  H   -0.000010  -0.000059  -0.000008   0.000005  -0.000206  -0.000001
    10  H   -0.001227  -0.006575  -0.000160   0.001664  -0.001909  -0.000024
    11  C    0.000197   0.000410   0.000070   0.002921  -0.000884  -0.000029
    12  H    0.000340  -0.000033   0.000639  -0.000392  -0.000089   0.000126
    13  H    0.000012  -0.000024   0.000005   0.002958   0.003855   0.004565
    14  H   -0.000003  -0.000028  -0.000001   0.000003  -0.000078  -0.000000
    15  O    0.005387   0.128163   0.004788  -0.001598   0.004247   0.000028
    16  O    0.000000  -0.000000   0.000000   0.000021  -0.000028  -0.000003
    17  H    0.000000   0.000000   0.000000   0.000002  -0.000023  -0.000002
    18  O   -0.000001  -0.000043  -0.000000   0.000001  -0.000085  -0.000000
    19  H   -0.000000  -0.000006   0.000000  -0.000000   0.000001   0.000000
    20  O    0.000000   0.000001   0.000000   0.000000   0.000001   0.000000
    21  H   -0.000000  -0.000000  -0.000000  -0.000000   0.000000   0.000000
    22  O   -0.000000  -0.000000  -0.000000   0.000000  -0.000015  -0.000000
    23  H    0.000000   0.000000   0.000000  -0.000000   0.000003   0.000000
    24  O    0.130662   0.133345   0.227581  -0.100569   0.004943   0.004340
    25  H    0.294576  -0.010651  -0.004846   0.127041  -0.007335  -0.002217
    26  H   -0.010651   0.302433  -0.006308   0.006208  -0.000838  -0.000205
    27  H   -0.004846  -0.006308   0.379635   0.004282  -0.000118  -0.000376
    28  O    0.127041   0.006208   0.004282   8.527470   0.129276   0.229291
    29  H   -0.007335  -0.000838  -0.000118   0.129276   0.282098  -0.006300
    30  H   -0.002217  -0.000205  -0.000376   0.229291  -0.006300   0.363201
 Mulliken charges:
               1
     1  O   -0.644358
     2  C    0.065019
     3  C    0.118913
     4  C    0.145701
     5  C    0.282934
     6  C    0.149360
     7  H    0.141301
     8  H    0.136114
     9  H    0.158097
    10  H    0.127116
    11  C   -0.084926
    12  H    0.173961
    13  H    0.110695
    14  H    0.160271
    15  O   -0.625290
    16  O   -0.615821
    17  H    0.401072
    18  O   -0.627504
    19  H    0.394850
    20  O   -0.650510
    21  H    0.408163
    22  O   -0.668295
    23  H    0.408398
    24  O   -0.842915
    25  H    0.463630
    26  H    0.465239
    27  H    0.395176
    28  O   -0.839064
    29  H    0.488918
    30  H    0.403754
 Sum of Mulliken charges =  -0.00000
 Mulliken charges with hydrogens summed into heavy atoms:
               1
     1  O   -0.155440
     2  C    0.223116
     3  C    0.279184
     4  C    0.287002
     5  C    0.410050
     6  C    0.285474
    11  C    0.199731
    15  O   -0.625290
    16  O   -0.214748
    18  O   -0.232654
    20  O   -0.242347
    22  O   -0.259896
    24  O    0.017499
    28  O    0.028320
 APT charges:
               1
     1  O   -0.399970
     2  C   -0.103346
     3  C   -0.266090
     4  C   -0.252575
     5  C   -0.245083
     6  C   -0.286902
     7  H    0.369249
     8  H    0.416121
     9  H    0.290091
    10  H    0.428950
    11  C   -0.549160
    12  H    0.276403
    13  H    0.422420
    14  H    0.435842
    15  O   -0.440997
    16  O   -0.848256
    17  H    0.732961
    18  O   -0.922560
    19  H    0.803930
    20  O   -0.748963
    21  H    0.648884
    22  O   -0.813380
    23  H    0.608031
    24  O   -1.079801
    25  H    0.388401
    26  H    0.347100
    27  H    0.724954
    28  O   -1.115914
    29  H    0.414221
    30  H    0.765437
 Sum of APT charges =  -0.00000
 APT charges with hydrogens summed into heavy atoms:
               1
     1  O    0.014251
     2  C    0.186745
     3  C    0.169753
     4  C    0.116674
     5  C    0.183867
     6  C    0.129219
    11  C    0.149662
    15  O   -0.440997
    16  O   -0.115294
    18  O   -0.118630
    20  O   -0.100079
    22  O   -0.205348
    24  O   -0.007746
    28  O    0.037925
 Electronic spatial extent (au):  <R**2>=           3086.8549
 Charge=              0.0000 electrons
 Dipole moment (field-independent basis, Debye):
    X=              3.5749    Y=              3.9008    Z=             -0.9371  Tot=              5.3735
 Quadrupole moment (field-independent basis, Debye-Ang):
   XX=            -85.2188   YY=            -74.3285   ZZ=            -86.1765
   XY=              5.3542   XZ=             -1.2962   YZ=             -5.8196
 Traceless Quadrupole moment (field-independent basis, Debye-Ang):
   XX=             -3.3109   YY=              7.5795   ZZ=             -4.2686
   XY=              5.3542   XZ=             -1.2962   YZ=             -5.8196
 Octapole moment (field-independent basis, Debye-Ang**2):
  XXX=             57.8924  YYY=            -15.2250  ZZZ=              4.3682  XYY=             -8.1890
  XXY=             49.6263  XXZ=              5.6590  XZZ=             13.4959  YZZ=             18.0083
  YYZ=            -16.8348  XYZ=             -2.9293
 Hexadecapole moment (field-independent basis, Debye-Ang**3):
 XXXX=          -1744.1220 YYYY=          -1122.2779 ZZZZ=           -369.1461 XXXY=             56.0852
 XXXZ=             13.6805 YYYX=             -1.7995 YYYZ=            -68.0526 ZZZX=             16.8453
 ZZZY=             -5.0053 XXYY=           -583.6287 XXZZ=           -333.1920 YYZZ=           -299.6270
 XXYZ=              4.7100 YYXZ=            -40.1127 ZZXY=              9.3807
 N-N= 1.117861531626D+03 E-N=-4.208449028857D+03  KE= 8.328135149162D+02
  Exact polarizability:   0.000   0.000   0.000   0.000   0.000   0.000
 Approx polarizability: 135.776  -2.648 135.662   0.980  -4.116 133.473
 Calling FoFJK, ICntrl=    100147 FMM=F ISym2X=0 I1Cent= 0 IOpClX= 0 NMat=1 NMatS=1 NMatT=0.
 -------------------------------------------------------------------
 Center     Atomic                   Forces (Hartrees/Bohr)
 Number     Number              X              Y              Z
 -------------------------------------------------------------------
      1        8          -0.000000982    0.000002096   -0.000000105
      2        6           0.000000334   -0.000001404    0.000000722
      3        6           0.000001076   -0.000000632   -0.000001533
      4        6           0.000000471   -0.000002354   -0.000000636
      5        6           0.000003064   -0.000000628   -0.000000920
      6        6          -0.000001356    0.000000517    0.000000717
      7        1           0.000000432   -0.000000756    0.000000019
      8        1          -0.000000593    0.000000218    0.000001080
      9        1          -0.000000739   -0.000000956   -0.000000322
     10        1           0.000000924    0.000000687   -0.000000943
     11        6          -0.000001756    0.000000780    0.000001136
     12        1          -0.000001123    0.000000676   -0.000000287
     13        1          -0.000001926    0.000000760    0.000001533
     14        1           0.000000811   -0.000001152   -0.000000717
     15        8           0.000000362   -0.000000032   -0.000001159
     16        8          -0.000004121    0.000000410    0.000002198
     17        1          -0.000001449   -0.000000284    0.000002014
     18        8           0.000001694    0.000009905   -0.000007249
     19        1           0.000003795   -0.000011572    0.000003354
     20        8           0.000000718   -0.000004773   -0.000000707
     21        1          -0.000000177   -0.000001739   -0.000000211
     22        8          -0.000001798   -0.000002552    0.000002162
     23        1          -0.000001785   -0.000001400    0.000000605
     24        8           0.000002337    0.000002243   -0.000001697
     25        1           0.000000425    0.000001531    0.000000105
     26        1          -0.000000169    0.000000486   -0.000000148
     27        1           0.000000537    0.000002009    0.000000867
     28        8          -0.000002064   -0.000002664    0.000001616
     29        1          -0.000000188    0.000000548    0.000000164
     30        1           0.000003247    0.000010030   -0.000001655
 -------------------------------------------------------------------
 Cartesian Forces:  Max     0.000011572 RMS     0.000002566
 IRC-IRC-IRC-IRC-IRC-IRC-IRC-IRC-IRC-IRC-IRC-IRC-IRC-IRC-IRC-IRC-IRC-IRC
          ******** Start new reaction path calculation ********
 Supplied step size of   0.1000 bohr.
    Integration on MW PES will use step size of   0.1053 sqrt(amu)*bohr.
 Point Number:   0          Path Number:   1
 Calculating another point on the path.
 IRC-IRC-IRC-IRC-IRC-IRC-IRC-IRC-IRC-IRC-IRC-IRC-IRC-IRC-IRC-IRC-IRC-IRC
                          Input orientation:                          
 ---------------------------------------------------------------------
 Center     Atomic      Atomic             Coordinates (Angstroms)
 Number     Number       Type             X           Y           Z
 ---------------------------------------------------------------------
      1          8           0        0.646559   -0.196999   -0.993216
      2          6           0       -1.201018    0.838675    0.233898
      3          6           0       -1.100028   -1.686614    0.116628
      4          6           0       -1.941102   -0.435956   -0.167822
      5          6           0        0.417707   -1.414814    0.183442
      6          6           0        0.025010    1.058599   -0.670909
      7          1           0       -2.126245   -0.408068   -1.253672
      8          1           0       -0.352278    1.474268   -1.616843
      9          1           0       -0.886120    0.748198    1.280577
     10          1           0        0.985074   -2.166880   -0.391686
     11          6           0        1.017838    2.044474   -0.039218
     12          1           0        1.376653    1.638859    0.909979
     13          1           0        1.886427    2.201395   -0.696713
     14          1           0       -1.379637   -2.044856    1.115928
     15          8           0        0.886096   -1.028963    1.323959
     16          8           0        0.388112    3.291782    0.267198
     17          1           0        0.198606    3.739550   -0.573330
     18          8           0       -1.412934   -2.645267   -0.886853
     19          1           0       -1.177605   -3.522029   -0.547517
     20          8           0       -3.160759   -0.536791    0.547074
     21          1           0       -3.548333    0.355430    0.518047
     22          8           0       -2.121022    1.920839    0.086923
     23          1           0       -1.679543    2.692758    0.481574
     24          8           0        3.314018   -0.997216    1.123623
     25          1           0        3.310992   -0.575388   -0.120027
     26          1           0        2.215134   -1.054240    1.313685
     27          1           0        3.667808   -0.333195    1.734908
     28          8           0        3.054416   -0.305141   -1.182047
     29          1           0        1.811193   -0.166869   -1.160621
     30          1           0        3.512155    0.506116   -1.448042
 ---------------------------------------------------------------------
                    Distance matrix (angstroms):
                    1          2          3          4          5
     1  O    0.000000
     2  C    2.447851   0.000000
     3  C    2.549759   2.530027   0.000000
     4  C    2.726603   1.527674   1.533773   0.000000
     5  C    1.708792   2.775073   1.543327   2.577892   0.000000
     6  C    1.437614   1.539542   3.069547   2.520395   2.646110
     7  H    2.792996   2.150181   2.136708   1.101874   3.090392
     8  H    2.044436   2.132974   3.681742   2.876279   3.490085
     9  H    2.900455   1.096761   2.707184   2.147805   2.753596
    10  H    2.087309   3.768782   2.199247   3.407156   1.103757
    11  C    2.464176   2.540052   4.293094   3.863210   3.518012
    12  H    2.743276   2.782403   4.221626   4.058819   3.282127
    13  H    2.716152   3.500765   4.969612   4.678175   4.001097
    14  H    3.459557   3.020701   1.097779   2.133498   2.120596
    15  O    2.473630   3.005387   2.415542   3.251171   1.291917
    16  O    3.718472   2.923042   5.198236   4.417070   4.707434
    17  H    3.984143   3.320488   5.621899   4.709315   5.214229
    18  O    3.201068   3.665903   1.422639   2.382650   2.451692
    19  H    3.818645   4.430226   1.953422   3.201709   2.742203
    20  O    4.121119   2.414658   2.398747   1.417324   3.702508
    21  H    4.492907   2.413328   3.213297   1.918307   4.356053
    22  O    3.648485   1.427966   3.749270   2.377341   4.192975
    23  H    3.992049   1.930790   4.432597   3.206085   4.621632
    24  O    3.498098   4.954559   4.579640   5.440507   3.073588
    25  H    2.829282   4.741632   4.554989   5.254161   3.027842
    26  H    2.918404   4.052056   3.580941   4.455494   2.153650
    27  H    4.072979   5.227980   5.213716   5.923749   3.760333
    28  O    2.417670   4.628384   4.566665   5.099114   3.169885
    29  H    1.176989   3.468316   3.523662   3.890729   2.303405
    30  H    2.985443   5.015328   5.341206   5.680182   3.990904
                    6          7          8          9         10
     6  C    0.000000
     7  H    2.668075   0.000000
     8  H    1.099962   2.611903   0.000000
     9  H    2.175961   3.049144   3.034338   0.000000
    10  H    3.376893   3.676512   4.067859   3.846493   0.000000
    11  C    1.535151   4.168347   2.165929   2.654665   4.226205
    12  H    2.159363   4.597998   3.066124   2.459830   4.041203
    13  H    2.184381   4.818821   2.527281   3.702495   4.470717
    14  H    3.846720   2.975148   4.572498   2.841095   2.807070
    15  O    3.013119   4.012965   4.055619   2.510165   2.061090
    16  O    2.449284   4.724820   2.720504   3.020004   5.530595
    17  H    2.688337   4.803180   2.554192   3.682633   5.961329
    18  O    3.979063   2.376642   4.316068   4.060898   2.494892
    19  H    4.737475   3.330965   5.175674   4.654217   2.556930
    20  O    3.765352   2.080739   4.076084   2.713523   4.552624
    21  H    3.831037   2.396717   4.003039   2.796980   5.267014
    22  O    2.433767   2.687198   2.496137   2.079635   5.156194
    23  H    2.627583   3.581305   2.765810   2.247051   5.610601
    24  O    4.273674   5.966161   5.201933   4.551072   3.014673
    25  H    3.710938   5.556680   4.456578   4.618368   2.831350
    26  H    3.633090   5.084922   4.644669   3.587151   2.378930
    27  H    4.582033   6.519836   5.537350   4.702562   3.883538
    28  O    3.361302   5.182178   3.867933   4.764647   2.893601
    29  H    2.220819   3.945916   2.753556   3.751306   2.296471
    30  H    3.615155   5.715335   3.987436   5.181581   3.827131
                   11         12         13         14         15
    11  C    0.000000
    12  H    1.092816   0.000000
    13  H    1.100623   1.777012   0.000000
    14  H    4.879023   4.605356   5.655395   0.000000
    15  O    3.364762   2.743957   3.939415   2.491758   0.000000
    16  O    1.430462   2.030402   2.088783   5.685506   4.475887
    17  H    1.956962   2.828586   2.286894   6.229270   5.177940
    18  O    5.349842   5.418869   5.866180   2.091109   3.575706
    19  H    6.005356   5.939975   6.493700   2.233810   3.738538
    20  O    4.946447   5.045123   5.875266   2.402135   4.150038
    21  H    4.900339   5.104536   5.866842   3.289693   4.714891
    22  O    3.143825   3.604256   4.092974   4.163561   4.390256
    23  H    2.822651   3.261069   3.787603   4.789294   4.598186
    24  O    3.984535   3.278402   3.947500   4.809158   2.436380
    25  H    3.482637   3.115360   3.173716   5.068424   2.858487
    26  H    3.586906   2.849353   3.840431   3.734006   1.329318
    27  H    3.977836   3.133512   3.938305   5.365596   2.896704
    28  O    3.312763   3.312189   2.807574   5.288490   3.391991
    29  H    2.603266   2.781522   2.414445   4.346367   2.787858
    30  H    3.251607   3.376942   2.466061   6.083668   4.115415
                   16         17         18         19         20
    16  O    0.000000
    17  H    0.971028   0.000000
    18  O    6.310638   6.592515   0.000000
    19  H    7.038697   7.390884   0.969145   0.000000
    20  O    5.227886   5.552273   3.091393   3.747356   0.000000
    21  H    4.917386   5.165551   3.941809   4.668026   0.973198
    22  O    2.864915   3.020649   4.722176   5.560339   2.707903
    23  H    2.163328   2.395004   5.517081   6.319379   3.553628
    24  O    5.262118   5.917972   5.394642   5.416831   6.516681
    25  H    4.862938   5.339580   5.214202   5.386367   6.506156
    26  H    4.829187   5.532417   4.531734   4.589634   5.454876
    27  H    5.104021   5.826712   6.167110   6.233471   6.934099
    28  O    4.706096   4.988558   5.051787   5.353598   6.455379
    29  H    4.003260   4.266786   4.075831   4.534965   5.270045
    30  H    4.523453   4.711669   5.873895   6.247459   7.042437
                   21         22         23         24         25
    21  H    0.000000
    22  O    2.161848   0.000000
    23  H    2.992792   0.972888   0.000000
    24  O    7.020557   6.255353   6.242098   0.000000
    25  H    6.951539   5.981701   5.995677   1.313245   0.000000
    26  H    5.986464   5.399841   5.468172   1.116656   1.867013
    27  H    7.350350   6.427058   6.270678   0.969413   1.904405
    28  O    6.850034   5.774983   5.845118   2.421255   1.125500
    29  H    5.640500   4.623549   4.802032   2.857574   1.870594
    30  H    7.330668   6.007515   5.954708   2.985419   1.724453
                   26         27         28         29         30
    26  H    0.000000
    27  H    1.675588   0.000000
    28  O    2.737558   2.980883   0.000000
    29  H    2.659472   3.443657   1.251073   0.000000
    30  H    3.426968   3.295428   0.968718   1.851699   0.000000
 Symmetry turned off by external request.
 Stoichiometry    C6H16O8
 Framework group  C1[X(C6H16O8)]
 Deg. of freedom    84
 Full point group                 C1      NOp   1
 Rotational constants (GHZ):      0.7203264      0.5566517      0.3744653
 Standard basis: 6-31G(d) (6D, 7F)
   242 basis functions,   456 primitive gaussians,   242 cartesian basis functions
    58 alpha electrons       58 beta electrons
       nuclear repulsion energy      1117.8577409872 Hartrees.
 NAtoms=   30 NActive=   30 NUniq=   30 SFac= 1.00D+00 NAtFMM=   60 NAOKFM=F Big=F
 Integral buffers will be    131072 words long.
 Raffenetti 2 integral format.
 Two-electron integral symmetry is turned off.
 One-electron integrals computed using PRISM.
 NBasis=   242 RedAO= T EigKep=  1.30D-03  NBF=   242
 NBsUse=   242 1.00D-06 EigRej= -1.00D+00 NBFU=   242
 Initial guess from the checkpoint file:  "/scratch/10461016.yak.local/Gau-9197.chk"
 B after Tr=     0.063218    0.024912   -0.003655
         Rot=    1.000000   -0.000017   -0.000068   -0.000014 Ang=  -0.01 deg.
 ExpMin= 1.61D-01 ExpMax= 5.48D+03 ExpMxC= 8.25D+02 IAcc=1 IRadAn=         1 AccDes= 0.00D+00
 Harris functional with IExCor=  402 and IRadAn=       1 diagonalized for initial guess.
 HarFok:  IExCor=  402 AccDes= 0.00D+00 IRadAn=         1 IDoV= 1 UseB2=F ITyADJ=14
 ICtDFT=  3500011 ScaDFX=  1.000000  1.000000  1.000000  1.000000
 FoFCou: FMM=F IPFlag=           0 FMFlag=      100000 FMFlg1=           0
         NFxFlg=           0 DoJE=T BraDBF=F KetDBF=T FulRan=T
         wScrn=  0.000000 ICntrl=     500 IOpCl=  0 I1Cent=   200000004 NGrid=           0
         NMat0=    1 NMatS0=      1 NMatT0=    0 NMatD0=    1 NMtDS0=    0 NMtDT0=    0
 Symmetry not used in FoFCou.
 Requested convergence on RMS density matrix=1.00D-08 within 128 cycles.
 Requested convergence on MAX density matrix=1.00D-06.
 Requested convergence on             energy=1.00D-06.
 No special actions if energy rises.
 Integral accuracy reduced to 1.0D-05 until final iterations.
 Initial convergence to 1.0D-05 achieved.  Increase integral accuracy.
 SCF Done:  E(RB3LYP) =  -839.954813044     A.U. after   11 cycles
            NFock= 11  Conv=0.80D-08     -V/T= 2.0085
 DoSCS=F DFT=T ScalE2(SS,OS)=  1.000000  1.000000
 Range of M.O.s used for correlation:     1   242
 NBasis=   242 NAE=    58 NBE=    58 NFC=     0 NFV=     0
 NROrb=    242 NOA=    58 NOB=    58 NVA=   184 NVB=   184
 Symmetrizing basis deriv contribution to polar:
 IMax=3 JMax=2 DiffMx= 0.00D+00
 Calling FoFJK, ICntrl=      2147 FMM=F ISym2X=0 I1Cent= 0 IOpClX= 0 NMat=1 NMatS=1 NMatT=0.
 -------------------------------------------------------------------
 Center     Atomic                   Forces (Hartrees/Bohr)
 Number     Number              X              Y              Z
 -------------------------------------------------------------------
      1        8           0.000747154    0.001550608   -0.002338561
      2        6           0.000046490   -0.000233013    0.000066948
      3        6          -0.000187114   -0.000004010   -0.000360477
      4        6          -0.000034627   -0.000080142   -0.000035816
      5        6           0.000125189   -0.002706091    0.004328690
      6        6           0.000079730    0.001154915   -0.000279403
      7        1          -0.000017623    0.000009708   -0.000006277
      8        1          -0.000030575    0.000065009    0.000005138
      9        1           0.000037632   -0.000027319   -0.000020776
     10        1           0.000050817    0.000046864   -0.000094919
     11        6           0.000148556    0.000139098    0.000047544
     12        1          -0.000001891   -0.000027141   -0.000012507
     13        1           0.000004540   -0.000000541    0.000011064
     14        1          -0.000008816    0.000020627   -0.000027526
     15        8          -0.003264828   -0.000035231   -0.001385241
     16        8          -0.000042445   -0.000114530   -0.000036923
     17        1           0.000018179    0.000021794    0.000008418
     18        8          -0.000094704   -0.000047522   -0.000148607
     19        1           0.000017195   -0.000006343   -0.000000978
     20        8           0.000022376    0.000050322   -0.000013987
     21        1          -0.000023317   -0.000009446   -0.000005976
     22        8           0.000250098   -0.000069412   -0.000143059
     23        1          -0.000018825   -0.000005565    0.000032127
     24        8           0.001125743   -0.000622777    0.003035552
     25        1           0.000018088    0.000804215   -0.002898980
     26        1           0.002540054   -0.000085506    0.000177399
     27        1          -0.000089883   -0.000214990    0.000379612
     28        8           0.001852212    0.000262216   -0.000936089
     29        1          -0.003722950    0.000325972    0.000425023
     30        1           0.000453542   -0.000161768    0.000228587
 -------------------------------------------------------------------
 Cartesian Forces:  Max     0.004328690 RMS     0.001023984
 IRC-IRC-IRC-IRC-IRC-IRC-IRC-IRC-IRC-IRC-IRC-IRC-IRC-IRC-IRC-IRC-IRC-IRC
 Pt  1 Step number   1 out of a maximum of  20
 Modified Bulirsch-Stoer Extrapolation Cycles:
    EPS =    0.000010000000000
 Maximum DWI energy   std dev =  0.000003367 at pt     1
 Maximum DWI gradient std dev =  0.062548639 at pt     1
 CORRECTOR INTEGRATION CONVERGENCE:
   Recorrection delta-x convergence threshold:    0.010000
   Delta-x Convergence Met
 Point Number:   1          Path Number:   1
   CHANGE IN THE REACTION COORDINATE =    0.10517
   NET REACTION COORDINATE UP TO THIS POINT =    0.10517
  # OF POINTS ALONG THE PATH =   1
  # OF STEPS =   1

 Calculating another point on the path.
 IRC-IRC-IRC-IRC-IRC-IRC-IRC-IRC-IRC-IRC-IRC-IRC-IRC-IRC-IRC-IRC-IRC-IRC
                          Input orientation:                          
 ---------------------------------------------------------------------
 Center     Atomic      Atomic             Coordinates (Angstroms)
 Number     Number       Type             X           Y           Z
 ---------------------------------------------------------------------
      1          8           0        0.646902   -0.196046   -0.994663
      2          6           0       -1.200978    0.838500    0.233942
      3          6           0       -1.100196   -1.686646    0.116359
      4          6           0       -1.941130   -0.436011   -0.167857
      5          6           0        0.417743   -1.417103    0.186839
      6          6           0        0.025044    1.059580   -0.671136
      7          1           0       -2.126403   -0.407992   -1.253733
      8          1           0       -0.352612    1.475002   -1.616793
      9          1           0       -0.885781    0.747965    1.280394
     10          1           0        0.985667   -2.166432   -0.392395
     11          6           0        1.017975    2.044593   -0.039184
     12          1           0        1.376665    1.638630    0.909869
     13          1           0        1.886508    2.201355   -0.696599
     14          1           0       -1.379859   -2.044676    1.115669
     15          8           0        0.884171   -1.028971    1.323231
     16          8           0        0.388078    3.291710    0.267179
     17          1           0        0.198831    3.739785   -0.573256
     18          8           0       -1.412981   -2.645297   -0.886939
     19          1           0       -1.177488   -3.522015   -0.547595
     20          8           0       -3.160739   -0.536764    0.547065
     21          1           0       -3.548551    0.355347    0.517975
     22          8           0       -2.120867    1.920789    0.086838
     23          1           0       -1.679703    2.692708    0.481879
     24          8           0        3.314722   -0.997627    1.125502
     25          1           0        3.310723   -0.567752   -0.147716
     26          1           0        2.239100   -1.054880    1.314868
     27          1           0        3.667253   -0.334975    1.738657
     28          8           0        3.055566   -0.304969   -1.182644
     29          1           0        1.776659   -0.163843   -1.156605
     30          1           0        3.516846    0.504889   -1.446170
 ---------------------------------------------------------------------
                    Distance matrix (angstroms):
                    1          2          3          4          5
     1  O    0.000000
     2  C    2.448350   0.000000
     3  C    2.551198   2.529890   0.000000
     4  C    2.727472   1.527628   1.533635   0.000000
     5  C    1.714480   2.776729   1.543295   2.579270   0.000000
     6  C    1.438045   1.539862   3.070516   2.521096   2.650338
     7  H    2.793431   2.150193   2.136635   1.101924   3.092932
     8  H    2.044132   2.133091   3.682216   2.876591   3.494396
     9  H    2.901061   1.096634   2.707079   2.147787   2.753644
    10  H    2.088040   3.768731   2.199966   3.407480   1.104330
    11  C    2.463959   2.540278   4.293365   3.863451   3.520611
    12  H    2.743325   2.782324   4.221606   4.058743   3.283261
    13  H    2.715326   3.500835   4.969693   4.678256   4.003869
    14  H    3.461026   3.020290   1.097733   2.133136   2.118478
    15  O    2.474407   3.003638   2.413873   3.249195   1.288249
    16  O    3.718020   2.923088   5.198243   4.417054   4.709591
    17  H    3.983605   3.320916   5.622205   4.709676   5.217198
    18  O    3.202117   3.665810   1.422482   2.382639   2.452145
    19  H    3.819731   4.430062   1.953302   3.201683   2.741316
    20  O    4.122032   2.414552   2.398661   1.417290   3.702742
    21  H    4.493767   2.413548   3.213327   1.918441   4.356916
    22  O    3.648449   1.428000   3.749164   2.377326   4.194766
    23  H    3.992263   1.930993   4.432626   3.206147   4.623513
    24  O    3.500699   4.955581   4.580896   5.441706   3.074009
    25  H    2.819827   4.741166   4.558274   5.253544   3.033588
    26  H    2.933704   4.072766   3.603671   4.478369   2.172784
    27  H    4.075888   5.228851   5.214157   5.924438   3.760113
    28  O    2.418442   4.629514   4.568019   5.100386   3.173395
    29  H    1.141759   3.435787   3.495091   3.856638   2.285203
    30  H    2.988602   5.019156   5.344286   5.684090   3.995648
                    6          7          8          9         10
     6  C    0.000000
     7  H    2.668691   0.000000
     8  H    1.099757   2.612242   0.000000
     9  H    2.176046   3.049127   3.034228   0.000000
    10  H    3.377521   3.676818   4.068192   3.846329   0.000000
    11  C    1.534772   4.168622   2.166055   2.654584   4.225936
    12  H    2.159110   4.597969   3.066137   2.459519   4.040702
    13  H    2.183883   4.818977   2.527450   3.702219   4.470081
    14  H    3.847445   2.974917   4.572715   2.840791   2.807987
    15  O    3.012912   4.011222   4.055028   2.508398   2.060944
    16  O    2.448394   4.724784   2.720000   3.019927   5.530232
    17  H    2.687616   4.803521   2.553879   3.682850   5.961142
    18  O    3.980025   2.376771   4.316704   4.060726   2.495475
    19  H    4.738392   3.331097   5.176271   4.653962   2.557525
    20  O    3.765839   2.080698   4.076157   2.713621   4.553141
    21  H    3.831516   2.396694   4.003110   2.797459   5.267568
    22  O    2.433340   2.687077   2.495558   2.079791   5.156122
    23  H    2.627302   3.581372   2.765574   2.247212   5.610686
    24  O    4.275744   5.967768   5.204173   4.551407   3.015727
    25  H    3.703763   5.550778   4.444216   4.623986   2.832231
    26  H    3.649273   5.106249   4.659604   3.607813   2.391942
    27  H    4.584493   6.521210   5.540251   4.702434   3.884137
    28  O    3.362691   5.183480   3.869426   4.765442   2.893790
    29  H    2.191027   3.911897   2.726056   3.722760   2.284743
    30  H    3.619535   5.719846   3.992861   5.184241   3.827958
                   11         12         13         14         15
    11  C    0.000000
    12  H    1.092779   0.000000
    13  H    1.100508   1.776890   0.000000
    14  H    4.879080   4.605163   5.655285   0.000000
    15  O    3.364650   2.743996   3.939467   2.490094   0.000000
    16  O    1.430360   2.030524   2.088787   5.685293   4.475448
    17  H    1.957014   2.828746   2.286970   6.229343   5.177584
    18  O    5.350075   5.418734   5.866250   2.091001   3.574111
    19  H    6.005470   5.939710   6.493631   2.233815   3.737070
    20  O    4.946590   5.044998   5.875262   2.401801   4.148011
    21  H    4.900729   5.104719   5.867095   3.289464   4.713151
    22  O    3.143810   3.604126   4.092865   4.163232   4.388622
    23  H    2.822947   3.261234   3.787889   4.788988   4.596979
    24  O    3.985805   3.279087   3.948839   4.809937   2.438782
    25  H    3.477473   3.118844   3.161901   5.077303   2.874815
    26  H    3.596017   2.857064   3.843617   3.757158   1.355203
    27  H    3.980168   3.135092   3.941383   5.365122   2.898233
    28  O    3.313565   3.312838   2.807952   5.289784   3.393898
    29  H    2.588710   2.771140   2.412018   4.320228   2.773908
    30  H    3.254942   3.378855   2.469383   6.086133   4.117436
                   16         17         18         19         20
    16  O    0.000000
    17  H    0.971039   0.000000
    18  O    6.310614   6.592845   0.000000
    19  H    7.038587   7.391120   0.969147   0.000000
    20  O    5.227777   5.552540   3.091430   3.747438   0.000000
    21  H    4.917538   5.166051   3.941866   4.668117   0.973193
    22  O    2.864743   3.020839   4.722128   5.560269   2.707898
    23  H    2.163474   2.395531   5.517164   6.319400   3.553478
    24  O    5.263114   5.919259   5.395916   5.417724   6.517559
    25  H    4.858954   5.331025   5.213063   5.388099   6.508725
    26  H    4.839088   5.542249   4.551381   4.607450   5.478707
    27  H    5.105985   5.829114   6.167667   6.233433   6.934125
    28  O    4.706758   4.989220   5.052968   5.354570   6.456630
    29  H    3.986999   4.250664   4.050202   4.513890   5.236360
    30  H    4.526712   4.715480   5.877040   6.249813   7.046145
                   21         22         23         24         25
    21  H    0.000000
    22  O    2.162122   0.000000
    23  H    2.992850   0.972903   0.000000
    24  O    7.021691   6.256325   6.243164   0.000000
    25  H    6.953050   5.979132   5.994276   1.343835   0.000000
    26  H    6.010048   5.419592   5.485919   1.093664   1.877450
    27  H    7.350812   6.428010   6.271866   0.969198   1.933831
    28  O    6.851459   5.775902   5.846321   2.423732   1.097833
    29  H    5.606393   4.591574   4.773987   2.875560   1.879987
    30  H    7.334852   6.011546   5.958863   2.985281   1.696770
                   26         27         28         29         30
    26  H    0.000000
    27  H    1.654534   0.000000
    28  O    2.732499   2.984805   0.000000
    29  H    2.667579   3.462105   1.286933   0.000000
    30  H    3.418895   3.297138   0.968552   1.886610   0.000000
 Symmetry turned off by external request.
 Stoichiometry    C6H16O8
 Framework group  C1[X(C6H16O8)]
 Deg. of freedom    84
 Full point group                 C1      NOp   1
 Rotational constants (GHZ):      0.7200913      0.5564761      0.3743973
 Standard basis: 6-31G(d) (6D, 7F)
   242 basis functions,   456 primitive gaussians,   242 cartesian basis functions
    58 alpha electrons       58 beta electrons
       nuclear repulsion energy      1117.8326689659 Hartrees.
 NAtoms=   30 NActive=   30 NUniq=   30 SFac= 1.00D+00 NAtFMM=   60 NAOKFM=F Big=F
 Integral buffers will be    131072 words long.
 Raffenetti 2 integral format.
 Two-electron integral symmetry is turned off.
 One-electron integrals computed using PRISM.
 NBasis=   242 RedAO= T EigKep=  1.30D-03  NBF=   242
 NBsUse=   242 1.00D-06 EigRej= -1.00D+00 NBFU=   242
 Initial guess from the checkpoint file:  "/scratch/10461016.yak.local/Gau-9197.chk"
 B after Tr=    -0.000051    0.000064   -0.000137
         Rot=    1.000000   -0.000017   -0.000062   -0.000013 Ang=  -0.01 deg.
 ExpMin= 1.61D-01 ExpMax= 5.48D+03 ExpMxC= 8.25D+02 IAcc=1 IRadAn=         1 AccDes= 0.00D+00
 Harris functional with IExCor=  402 and IRadAn=       1 diagonalized for initial guess.
 HarFok:  IExCor=  402 AccDes= 0.00D+00 IRadAn=         1 IDoV= 1 UseB2=F ITyADJ=14
 ICtDFT=  3500011 ScaDFX=  1.000000  1.000000  1.000000  1.000000
 FoFCou: FMM=F IPFlag=           0 FMFlag=      100000 FMFlg1=           0
         NFxFlg=           0 DoJE=T BraDBF=F KetDBF=T FulRan=T
         wScrn=  0.000000 ICntrl=     500 IOpCl=  0 I1Cent=   200000004 NGrid=           0
         NMat0=    1 NMatS0=      1 NMatT0=    0 NMatD0=    1 NMtDS0=    0 NMtDT0=    0
 Symmetry not used in FoFCou.
 Requested convergence on RMS density matrix=1.00D-08 within 128 cycles.
 Requested convergence on MAX density matrix=1.00D-06.
 Requested convergence on             energy=1.00D-06.
 No special actions if energy rises.
 Integral accuracy reduced to 1.0D-05 until final iterations.
 Initial convergence to 1.0D-05 achieved.  Increase integral accuracy.
 SCF Done:  E(RB3LYP) =  -839.955634609     A.U. after   11 cycles
            NFock= 11  Conv=0.89D-08     -V/T= 2.0085
 DoSCS=F DFT=T ScalE2(SS,OS)=  1.000000  1.000000
 Range of M.O.s used for correlation:     1   242
 NBasis=   242 NAE=    58 NBE=    58 NFC=     0 NFV=     0
 NROrb=    242 NOA=    58 NOB=    58 NVA=   184 NVB=   184
 Symmetrizing basis deriv contribution to polar:
 IMax=3 JMax=2 DiffMx= 0.00D+00
 Calling FoFJK, ICntrl=      2147 FMM=F ISym2X=0 I1Cent= 0 IOpClX= 0 NMat=1 NMatS=1 NMatT=0.
 -------------------------------------------------------------------
 Center     Atomic                   Forces (Hartrees/Bohr)
 Number     Number              X              Y              Z
 -------------------------------------------------------------------
      1        8          -0.000288378    0.002999805   -0.004335329
      2        6           0.000096498   -0.000400840    0.000097879
      3        6          -0.000396050   -0.000081174   -0.000618378
      4        6          -0.000060978   -0.000129542   -0.000083185
      5        6           0.000045438   -0.005391843    0.007953504
      6        6           0.000057644    0.002260833   -0.000530439
      7        1          -0.000031827    0.000016808   -0.000011536
      8        1          -0.000064452    0.000143533    0.000009481
      9        1           0.000067603   -0.000044502   -0.000033796
     10        1           0.000108348    0.000089139   -0.000131786
     11        6           0.000331506    0.000274478    0.000076232
     12        1           0.000004420   -0.000045626   -0.000021640
     13        1           0.000020402   -0.000008986    0.000021426
     14        1          -0.000051910    0.000034702   -0.000048200
     15        8          -0.005980977   -0.000014028   -0.002268300
     16        8          -0.000102921   -0.000221939   -0.000060250
     17        1           0.000046552    0.000045205    0.000012619
     18        8          -0.000152207   -0.000098777   -0.000268959
     19        1           0.000021699    0.000006357   -0.000014685
     20        8           0.000059193    0.000089842   -0.000024888
     21        1          -0.000042631   -0.000013102   -0.000013739
     22        8           0.000479052   -0.000150568   -0.000260496
     23        1          -0.000029393   -0.000008804    0.000058261
     24        8           0.003121685   -0.001167575    0.005735644
     25        1           0.000280515    0.001127094   -0.004193885
     26        1           0.003729399   -0.000206489    0.000412906
     27        1          -0.000105659   -0.000386403    0.000703527
     28        8           0.003752811    0.000938791   -0.003087771
     29        1          -0.005797994    0.000671450    0.000583056
     30        1           0.000882610   -0.000327839    0.000342726
 -------------------------------------------------------------------
 Cartesian Forces:  Max     0.007953504 RMS     0.001842978
 IRC-IRC-IRC-IRC-IRC-IRC-IRC-IRC-IRC-IRC-IRC-IRC-IRC-IRC-IRC-IRC-IRC-IRC
 Pt  2 Step number   1 out of a maximum of  20
 Modified Bulirsch-Stoer Extrapolation Cycles:
    EPS =    0.000010000000000
 Maximum DWI energy   std dev =  0.000013370 at pt    36
 Maximum DWI gradient std dev =  0.052233719 at pt    37
 CORRECTOR INTEGRATION CONVERGENCE:
   Recorrection delta-x convergence threshold:    0.010000
   Delta-x Convergence Met
 Point Number:   2          Path Number:   1
   CHANGE IN THE REACTION COORDINATE =    0.10510
   NET REACTION COORDINATE UP TO THIS POINT =    0.21026
  # OF POINTS ALONG THE PATH =   2
  # OF STEPS =   1

 Calculating another point on the path.
 IRC-IRC-IRC-IRC-IRC-IRC-IRC-IRC-IRC-IRC-IRC-IRC-IRC-IRC-IRC-IRC-IRC-IRC
                          Input orientation:                          
 ---------------------------------------------------------------------
 Center     Atomic      Atomic             Coordinates (Angstroms)
 Number     Number       Type             X           Y           Z
 ---------------------------------------------------------------------
      1          8           0        0.646506   -0.194784   -0.996462
      2          6           0       -1.200917    0.838310    0.233978
      3          6           0       -1.100437   -1.686735    0.116064
      4          6           0       -1.941155   -0.436067   -0.167913
      5          6           0        0.417658   -1.420155    0.191005
      6          6           0        0.025029    1.060828   -0.671429
      7          1           0       -2.126588   -0.407902   -1.253798
      8          1           0       -0.353106    1.476161   -1.616705
      9          1           0       -0.885385    0.747711    1.280205
     10          1           0        0.986473   -2.165905   -0.392950
     11          6           0        1.018171    2.044747   -0.039151
     12          1           0        1.376721    1.638382    0.909746
     13          1           0        1.886669    2.201270   -0.696439
     14          1           0       -1.380452   -2.044498    1.115355
     15          8           0        0.881813   -1.028958    1.322481
     16          8           0        0.388031    3.291623    0.267161
     17          1           0        0.199185    3.740076   -0.573175
     18          8           0       -1.413033   -2.645336   -0.887052
     19          1           0       -1.177377   -3.522005   -0.547720
     20          8           0       -3.160712   -0.536731    0.547055
     21          1           0       -3.548792    0.355263    0.517868
     22          8           0       -2.120676    1.920722    0.086740
     23          1           0       -1.679866    2.692635    0.482231
     24          8           0        3.316152   -0.998129    1.127863
     25          1           0        3.312385   -0.561315   -0.172288
     26          1           0        2.260764   -1.056178    1.317126
     27          1           0        3.667022   -0.337142    1.743347
     28          8           0        3.057156   -0.304541   -1.184071
     29          1           0        1.742369   -0.159617   -1.153281
     30          1           0        3.522997    0.503329   -1.444563
 ---------------------------------------------------------------------
                    Distance matrix (angstroms):
                    1          2          3          4          5
     1  O    0.000000
     2  C    2.448313   0.000000
     3  C    2.552536   2.529794   0.000000
     4  C    2.727765   1.527582   1.533500   0.000000
     5  C    1.721622   2.778902   1.543144   2.580940   0.000000
     6  C    1.438208   1.540201   3.071795   2.521924   2.655791
     7  H    2.793151   2.150207   2.136568   1.101964   3.096013
     8  H    2.043522   2.133229   3.683056   2.877067   3.500076
     9  H    2.901413   1.096522   2.707028   2.147796   2.753892
    10  H    2.089288   3.768690   2.200884   3.407930   1.104852
    11  C    2.463753   2.540560   4.293781   3.863759   3.524079
    12  H    2.743600   2.782264   4.221688   4.058693   3.284972
    13  H    2.714608   3.500932   4.969864   4.678368   4.007526
    14  H    3.462624   3.019874   1.097717   2.132654   2.115993
    15  O    2.475623   3.001548   2.411935   3.246836   1.284023
    16  O    3.717336   2.923115   5.198310   4.417021   4.712487
    17  H    3.982762   3.321449   5.622664   4.710145   5.221081
    18  O    3.202948   3.665718   1.422277   2.382633   2.452490
    19  H    3.820774   4.429893   1.953136   3.201659   2.740004
    20  O    4.122412   2.414446   2.398541   1.417262   3.702964
    21  H    4.494026   2.413803   3.213354   1.918592   4.357943
    22  O    3.647737   1.428023   3.749066   2.377294   4.197078
    23  H    3.991958   1.931202   4.432686   3.206203   4.625955
    24  O    3.505015   4.957364   4.583031   5.443733   3.075236
    25  H    2.814341   4.742773   4.563191   5.255035   3.041222
    26  H    2.949664   4.092130   3.624613   4.499556   2.190358
    27  H    4.080483   5.230365   5.215182   5.925737   3.760459
    28  O    2.420429   4.631216   4.570163   5.102253   3.178423
    29  H    1.107585   3.403422   3.467690   3.823052   2.269564
    30  H    2.993719   5.024448   5.348652   5.689398   4.002249
                    6          7          8          9         10
     6  C    0.000000
     7  H    2.669415   0.000000
     8  H    1.099561   2.612783   0.000000
     9  H    2.176183   3.049131   3.034147   0.000000
    10  H    3.378422   3.677333   4.068991   3.846097   0.000000
    11  C    1.534342   4.168977   2.166188   2.654530   4.225610
    12  H    2.158879   4.597975   3.066199   2.459198   4.040039
    13  H    2.183332   4.819197   2.527700   3.701924   4.469304
    14  H    3.848509   2.974567   4.573251   2.840545   2.809280
    15  O    3.012800   4.009165   4.054560   2.506257   2.060658
    16  O    2.447278   4.724734   2.719217   3.019824   5.529783
    17  H    2.686699   4.803977   2.553291   3.683145   5.960950
    18  O    3.981227   2.376925   4.317704   4.060564   2.496321
    19  H    4.739561   3.331244   5.177239   4.653713   2.558359
    20  O    3.766409   2.080644   4.076302   2.713745   4.553785
    21  H    3.832028   2.396640   4.003152   2.798019   5.268254
    22  O    2.432753   2.686925   2.494727   2.079966   5.156064
    23  H    2.626860   3.581437   2.765075   2.247375   5.610768
    24  O    4.278814   5.970268   5.207515   4.552370   3.017281
    25  H    3.699622   5.547578   4.435479   4.630827   2.834302
    26  H    3.665321   5.126282   4.674657   3.626793   2.404095
    27  H    4.587983   6.523328   5.544317   4.702745   3.885034
    28  O    3.364644   5.185243   3.871428   4.766919   2.894525
    29  H    2.161232   3.878218   2.698433   3.694616   2.274792
    30  H    3.625510   5.725779   4.000026   5.188247   3.829446
                   11         12         13         14         15
    11  C    0.000000
    12  H    1.092747   0.000000
    13  H    1.100371   1.776717   0.000000
    14  H    4.879365   4.605202   5.655371   0.000000
    15  O    3.364565   2.744082   3.939562   2.488386   0.000000
    16  O    1.430246   2.030672   2.088854   5.685170   4.474924
    17  H    1.957054   2.828916   2.287077   6.229581   5.177178
    18  O    5.350381   5.418621   5.866341   2.090861   3.572259
    19  H    6.005647   5.939462   6.493564   2.233849   3.735398
    20  O    4.946790   5.044894   5.875286   2.401177   4.145549
[...]
 Alpha  occ. eigenvalues --  -10.25456 -10.23756 -10.23284 -10.23093  -1.06629
 Alpha  occ. eigenvalues --   -1.05042  -1.03338  -1.02255  -1.02020  -1.01116
 Alpha  occ. eigenvalues --   -0.99865  -0.98453  -0.78517  -0.75481  -0.69241
 Alpha  occ. eigenvalues --   -0.63919  -0.62652  -0.56380  -0.56158  -0.55347
 Alpha  occ. eigenvalues --   -0.53769  -0.53474  -0.52626  -0.51795  -0.48542
 Alpha  occ. eigenvalues --   -0.46892  -0.45905  -0.44855  -0.43426  -0.42565
 Alpha  occ. eigenvalues --   -0.42250  -0.41435  -0.39677  -0.38683  -0.38120
 Alpha  occ. eigenvalues --   -0.36667  -0.36021  -0.34923  -0.34322  -0.32667
 Alpha  occ. eigenvalues --   -0.31601  -0.30397  -0.29976  -0.28484  -0.27651
 Alpha  occ. eigenvalues --   -0.26448  -0.25776  -0.23653
 Alpha virt. eigenvalues --    0.02716   0.04110   0.04414   0.07810   0.08321
 Alpha virt. eigenvalues --    0.09058   0.11094   0.12638   0.13249   0.14154
 Alpha virt. eigenvalues --    0.15183   0.16472   0.17469   0.17785   0.19661
 Alpha virt. eigenvalues --    0.20031   0.20854   0.22576   0.24075   0.25664
 Alpha virt. eigenvalues --    0.26034   0.28130   0.28400   0.30127   0.31619
 Alpha virt. eigenvalues --    0.31676   0.32314   0.37959   0.51440   0.52322
 Alpha virt. eigenvalues --    0.53972   0.55275   0.57680   0.59607   0.59740
 Alpha virt. eigenvalues --    0.60788   0.62345   0.63227   0.66975   0.68087
 Alpha virt. eigenvalues --    0.69815   0.71132   0.72405   0.72953   0.73663
 Alpha virt. eigenvalues --    0.76181   0.77126   0.77888   0.79277   0.80585
 Alpha virt. eigenvalues --    0.81909   0.82279   0.83449   0.83832   0.85111
 Alpha virt. eigenvalues --    0.85135   0.85632   0.86688   0.88683   0.89305
 Alpha virt. eigenvalues --    0.90385   0.91911   0.94444   0.95056   0.97060
 Alpha virt. eigenvalues --    0.97663   0.98366   1.00202   1.01643   1.02592
 Alpha virt. eigenvalues --    1.02734   1.04651   1.06351   1.07392   1.09090
 Alpha virt. eigenvalues --    1.11991   1.12761   1.13822   1.14564   1.15480
 Alpha virt. eigenvalues --    1.17897   1.19863   1.21631   1.24627   1.27732
 Alpha virt. eigenvalues --    1.28654   1.30784   1.31814   1.35762   1.38423
 Alpha virt. eigenvalues --    1.40714   1.43297   1.45712   1.46361   1.52644
 Alpha virt. eigenvalues --    1.54799   1.55358   1.56768   1.58253   1.58604
 Alpha virt. eigenvalues --    1.60881   1.62042   1.66807   1.67782   1.70075
 Alpha virt. eigenvalues --    1.70695   1.72211   1.72922   1.73024   1.73697
 Alpha virt. eigenvalues --    1.76159   1.76876   1.78285   1.79286   1.79710
 Alpha virt. eigenvalues --    1.81605   1.83174   1.84198   1.85605   1.86697
 Alpha virt. eigenvalues --    1.88590   1.90064   1.90841   1.92227   1.95425
 Alpha virt. eigenvalues --    1.99284   2.00639   2.01323   2.04021   2.04468
 Alpha virt. eigenvalues --    2.08135   2.09922   2.10881   2.13996   2.14859
 Alpha virt. eigenvalues --    2.18306   2.20633   2.24288   2.26011   2.28088
 Alpha virt. eigenvalues --    2.32118   2.32816   2.37801   2.39120   2.40831
 Alpha virt. eigenvalues --    2.43722   2.45942   2.48534   2.49883   2.52460
 Alpha virt. eigenvalues --    2.54520   2.55602   2.57170   2.58233   2.61654
 Alpha virt. eigenvalues --    2.62243   2.67004   2.68663   2.70517   2.75590
 Alpha virt. eigenvalues --    2.76006   2.78758   2.82636   2.86475   2.89622
 Alpha virt. eigenvalues --    2.95660   2.96865   3.00601   3.06173   3.09771
 Alpha virt. eigenvalues --    3.73261   3.75891   3.79661   3.86552   3.88967
 Alpha virt. eigenvalues --    3.93868   4.08976   4.13313   4.24847   4.37906
 Alpha virt. eigenvalues --    4.44769   4.50704   4.65487   4.82788
          Condensed to atoms (all electrons):
               1          2          3          4          5          6
     1  O    8.570427  -0.033441  -0.016203  -0.002234   0.030560   0.140964
     2  C   -0.033441   5.036507  -0.026100   0.314068   0.008126   0.287994
     3  C   -0.016203  -0.026100   5.000987   0.328538   0.299199  -0.012490
     4  C   -0.002234   0.314068   0.328538   4.849339  -0.041147  -0.032317
     5  C    0.030560   0.008126   0.299199  -0.041147   4.877051  -0.014573
     6  C    0.140964   0.287994  -0.012490  -0.032317  -0.014573   5.015738
     7  H    0.001243  -0.057391  -0.053765   0.356457   0.000041  -0.001283
     8  H   -0.033116  -0.050102   0.000265  -0.006452   0.001259   0.361309
     9  H    0.002059   0.347141  -0.008893  -0.036970  -0.002451  -0.048879
    10  H   -0.029731   0.000495  -0.077079   0.002969   0.342899   0.003656
    11  C   -0.021764  -0.028999  -0.000158   0.003455  -0.000243   0.332794
    12  H    0.000489  -0.010008  -0.000005  -0.000064   0.001067  -0.035399
    13  H   -0.000102   0.005361  -0.000013  -0.000094  -0.000078  -0.048733
    14  H    0.002227  -0.002948   0.344220  -0.026936  -0.059181   0.000605
    15  O   -0.052317  -0.004376  -0.049699   0.001009   0.326793   0.008505
    16  O    0.001531   0.002059  -0.000004   0.000163   0.000022  -0.042022
    17  H    0.000024  -0.002143   0.000001  -0.000011  -0.000002  -0.000963
    18  O    0.001699   0.002475   0.208389  -0.037857  -0.038807   0.000228
    19  H   -0.000104  -0.000288  -0.023369   0.006884  -0.000770  -0.000004
    20  O    0.000033  -0.030192  -0.039484   0.241394   0.002238   0.003309
    21  H   -0.000018  -0.014450   0.006716  -0.033196  -0.000265   0.000959
    22  O    0.001397   0.210141   0.002488  -0.038105   0.000116  -0.043020
    23  H    0.000005  -0.022179  -0.000238   0.005587   0.000032  -0.003622
    24  O   -0.000676  -0.000008  -0.000077   0.000000   0.007972  -0.000044
    25  H    0.005008   0.000015   0.000079  -0.000002   0.000462  -0.000262
    26  H    0.001866   0.000039   0.001688  -0.000051  -0.011152  -0.000310
    27  H   -0.000000   0.000001  -0.000003   0.000000  -0.000324  -0.000021
    28  O   -0.073763  -0.000063   0.000001   0.000004   0.001821  -0.000401
    29  H    0.148277   0.002764   0.001631   0.000059  -0.001468  -0.010813
    30  H    0.003506   0.000016  -0.000002  -0.000000  -0.000006  -0.000442
               7          8          9         10         11         12
     1  O    0.001243  -0.033116   0.002059  -0.029731  -0.021764   0.000489
     2  C   -0.057391  -0.050102   0.347141   0.000495  -0.028999  -0.010008
     3  C   -0.053765   0.000265  -0.008893  -0.077079  -0.000158  -0.000005
     4  C    0.356457  -0.006452  -0.036970   0.002969   0.003455  -0.000064
     5  C    0.000041   0.001259  -0.002451   0.342899  -0.000243   0.001067
     6  C   -0.001283   0.361309  -0.048879   0.003656   0.332794  -0.035399
     7  H    0.635843   0.004641   0.007097  -0.000233   0.000102   0.000009
     8  H    0.004641   0.624895   0.006828  -0.000182  -0.055920   0.005292
     9  H    0.007097   0.006828   0.601437   0.000441  -0.008365   0.004852
    10  H   -0.000233  -0.000182   0.000441   0.662742  -0.000183   0.000077
    11  C    0.000102  -0.055920  -0.008365  -0.000183   4.968532   0.364067
    12  H    0.000009   0.005292   0.004852   0.000077   0.364067   0.545985
    13  H    0.000008  -0.005857   0.000121   0.000008   0.351274  -0.040216
    14  H    0.006862   0.000019   0.003647   0.004806   0.000016   0.000002
    15  O    0.000025  -0.000151   0.013077  -0.044701  -0.003363   0.007389
    16  O   -0.000012   0.000784   0.000139   0.000000   0.219024  -0.030644
    17  H    0.000001   0.005872   0.000186  -0.000000  -0.029682   0.006579
    18  O    0.002148   0.000019   0.000041   0.010719  -0.000003   0.000000
    19  H   -0.000088   0.000000   0.000010   0.002471  -0.000000  -0.000000
    20  O   -0.041945  -0.000065   0.000944  -0.000071  -0.000048  -0.000002
    21  H   -0.001025   0.000013   0.000342   0.000006  -0.000017  -0.000001
    22  O   -0.001482   0.005450  -0.036299   0.000003  -0.000975   0.000138
    23  H   -0.000269  -0.000473  -0.005169   0.000000  -0.003559  -0.000124
    24  O   -0.000000  -0.000001   0.000009   0.003497  -0.000465   0.002291
    25  H   -0.000000   0.000010  -0.000006  -0.000808   0.000131   0.000354
    26  H    0.000002   0.000005  -0.000082  -0.007092   0.000300  -0.000037
    27  H    0.000000   0.000000  -0.000007  -0.000149   0.000033   0.000600
    28  O    0.000001  -0.000083   0.000002   0.001501   0.002386  -0.000244
    29  H   -0.000077  -0.001727  -0.000285  -0.001402  -0.000721  -0.000180
    30  H   -0.000000   0.000020  -0.000001  -0.000031   0.000083   0.000105
              13         14         15         16         17         18
     1  O   -0.000102   0.002227  -0.052317   0.001531   0.000024   0.001699
     2  C    0.005361  -0.002948  -0.004376   0.002059  -0.002143   0.002475
     3  C   -0.000013   0.344220  -0.049699  -0.000004   0.000001   0.208389
     4  C   -0.000094  -0.026936   0.001009   0.000163  -0.000011  -0.037857
     5  C   -0.000078  -0.059181   0.326793   0.000022  -0.000002  -0.038807
     6  C   -0.048733   0.000605   0.008505  -0.042022  -0.000963   0.000228
     7  H    0.000008   0.006862   0.000025  -0.000012   0.000001   0.002148
     8  H   -0.005857   0.000019  -0.000151   0.000784   0.005872   0.000019
     9  H    0.000121   0.003647   0.013077   0.000139   0.000186   0.000041
    10  H    0.000008   0.004806  -0.044701   0.000000  -0.000000   0.010719
    11  C    0.351274   0.000016  -0.003363   0.219024  -0.029682  -0.000003
    12  H   -0.040216   0.000002   0.007389  -0.030644   0.006579   0.000000
    13  H    0.644400  -0.000000   0.000128  -0.027818  -0.008513  -0.000000
    14  H   -0.000000   0.598424   0.005576  -0.000000   0.000000  -0.031626
    15  O    0.000128   0.005576   8.326019   0.000019  -0.000003   0.001692
    16  O   -0.027818  -0.000000   0.000019   8.231971   0.233537   0.000000
    17  H   -0.008513   0.000000  -0.000003   0.233537   0.393317   0.000000
    18  O   -0.000000  -0.031626   0.001692   0.000000   0.000000   8.275068
    19  H    0.000000  -0.007674  -0.000018   0.000000  -0.000000   0.231936
    20  O    0.000000   0.001199  -0.000035  -0.000000   0.000000   0.001241
    21  H    0.000001  -0.000024   0.000006   0.000006  -0.000001  -0.000175
    22  O   -0.000226  -0.000104   0.000066  -0.009834   0.002521  -0.000007
    23  H    0.000402   0.000006   0.000001   0.036515  -0.002135   0.000001
    24  O   -0.000050   0.000003  -0.071027   0.000001  -0.000000   0.000000
    25  H   -0.000098  -0.000001   0.002437  -0.000000   0.000000  -0.000001
    26  H   -0.000013  -0.000055   0.103928  -0.000000   0.000000  -0.000033
    27  H    0.000000  -0.000001   0.003428   0.000000   0.000000  -0.000000
    28  O    0.004197   0.000001  -0.001068   0.000021   0.000002   0.000000
    29  H    0.004465  -0.000085   0.004270  -0.000005  -0.000030  -0.000084
    30  H    0.003482  -0.000000   0.000025  -0.000002  -0.000001   0.000000
              19         20         21         22         23         24
     1  O   -0.000104   0.000033  -0.000018   0.001397   0.000005  -0.000676
     2  C   -0.000288  -0.030192  -0.014450   0.210141  -0.022179  -0.000008
     3  C   -0.023369  -0.039484   0.006716   0.002488  -0.000238  -0.000077
     4  C    0.006884   0.241394  -0.033196  -0.038105   0.005587   0.000000
     5  C   -0.000770   0.002238  -0.000265   0.000116   0.000032   0.007972
     6  C   -0.000004   0.003309   0.000959  -0.043020  -0.003622  -0.000044
     7  H   -0.000088  -0.041945  -0.001025  -0.001482  -0.000269  -0.000000
     8  H    0.000000  -0.000065   0.000013   0.005450  -0.000473  -0.000001
     9  H    0.000010   0.000944   0.000342  -0.036299  -0.005169   0.000009
    10  H    0.002471  -0.000071   0.000006   0.000003   0.000000   0.003497
    11  C   -0.000000  -0.000048  -0.000017  -0.000975  -0.003559  -0.000465
    12  H   -0.000000  -0.000002  -0.000001   0.000138  -0.000124   0.002291
    13  H    0.000000   0.000000   0.000001  -0.000226   0.000402  -0.000050
    14  H   -0.007674   0.001199  -0.000024  -0.000104   0.000006   0.000003
    15  O   -0.000018  -0.000035   0.000006   0.000066   0.000001  -0.071027
    16  O    0.000000  -0.000000   0.000006  -0.009834   0.036515   0.000001
    17  H   -0.000000   0.000000  -0.000001   0.002521  -0.002135  -0.000000
    18  O    0.231936   0.001241  -0.000175  -0.000007   0.000001   0.000000
    19  H    0.396115  -0.000220   0.000024   0.000001  -0.000000   0.000000
    20  O   -0.000220   8.285181   0.234828  -0.008228   0.000150  -0.000000
    21  H    0.000024   0.234828   0.370750   0.027748  -0.000683   0.000000
    22  O    0.000001  -0.008228   0.027748   8.330046   0.225702   0.000000
    23  H   -0.000000   0.000150  -0.000683   0.225702   0.361174  -0.000000
    24  O    0.000000  -0.000000   0.000000   0.000000  -0.000000   8.460262
    25  H   -0.000000   0.000000   0.000000  -0.000000   0.000000   0.106756
    26  H   -0.000005   0.000000  -0.000000  -0.000000  -0.000000   0.162217
    27  H    0.000000   0.000000  -0.000000  -0.000000   0.000000   0.234262
    28  O   -0.000000   0.000000  -0.000000   0.000000  -0.000000  -0.073644
    29  H    0.000000   0.000001   0.000000  -0.000023   0.000005   0.002451
    30  H    0.000000   0.000000   0.000000  -0.000000   0.000000   0.003250
              25         26         27         28         29         30
     1  O    0.005008   0.001866  -0.000000  -0.073763   0.148277   0.003506
     2  C    0.000015   0.000039   0.000001  -0.000063   0.002764   0.000016
     3  C    0.000079   0.001688  -0.000003   0.000001   0.001631  -0.000002
     4  C   -0.000002  -0.000051   0.000000   0.000004   0.000059  -0.000000
     5  C    0.000462  -0.011152  -0.000324   0.001821  -0.001468  -0.000006
     6  C   -0.000262  -0.000310  -0.000021  -0.000401  -0.010813  -0.000442
     7  H   -0.000000   0.000002   0.000000   0.000001  -0.000077  -0.000000
     8  H    0.000010   0.000005   0.000000  -0.000083  -0.001727   0.000020
     9  H   -0.000006  -0.000082  -0.000007   0.000002  -0.000285  -0.000001
    10  H   -0.000808  -0.007092  -0.000149   0.001501  -0.001402  -0.000031
    11  C    0.000131   0.000300   0.000033   0.002386  -0.000721   0.000083
    12  H    0.000354  -0.000037   0.000600  -0.000244  -0.000180   0.000105
    13  H   -0.000098  -0.000013   0.000000   0.004197   0.004465   0.003482
    14  H   -0.000001  -0.000055  -0.000001   0.000001  -0.000085  -0.000000
    15  O    0.002437   0.103928   0.003428  -0.001068   0.004270   0.000025
    16  O   -0.000000  -0.000000   0.000000   0.000021  -0.000005  -0.000002
    17  H    0.000000   0.000000   0.000000   0.000002  -0.000030  -0.000001
    18  O   -0.000001  -0.000033  -0.000000   0.000000  -0.000084   0.000000
    19  H   -0.000000  -0.000005   0.000000  -0.000000   0.000000   0.000000
    20  O    0.000000   0.000000   0.000000   0.000000   0.000001   0.000000
    21  H    0.000000  -0.000000  -0.000000  -0.000000   0.000000   0.000000
    22  O   -0.000000  -0.000000  -0.000000   0.000000  -0.000023  -0.000000
    23  H    0.000000  -0.000000   0.000000  -0.000000   0.000005   0.000000
    24  O    0.106756   0.162217   0.234262  -0.073644   0.002451   0.003250
    25  H    0.295496  -0.009441  -0.005383   0.165566  -0.007500  -0.003912
    26  H   -0.009441   0.308207  -0.008410   0.005864  -0.000425  -0.000199
    27  H   -0.005383  -0.008410   0.381697   0.003238  -0.000014  -0.000253
    28  O    0.165566   0.005864   0.003238   8.453762   0.111584   0.233594
    29  H   -0.007500  -0.000425  -0.000014   0.111584   0.274881  -0.006920
    30  H   -0.003912  -0.000199  -0.000253   0.233594  -0.006920   0.370067
 Mulliken charges:
               1
     1  O   -0.647844
     2  C    0.065486
     3  C    0.113378
     4  C    0.145510
     5  C    0.270808
     6  C    0.139538
     7  H    0.143092
     8  H    0.137448
     9  H    0.159034
    10  H    0.125371
    11  C   -0.087731
    12  H    0.177627
    13  H    0.117965
    14  H    0.161020
    15  O   -0.577634
    16  O   -0.615449
    17  H    0.401442
    18  O   -0.627065
    19  H    0.395099
    20  O   -0.650229
    21  H    0.408456
    22  O   -0.667515
    23  H    0.408871
    24  O   -0.836980
    25  H    0.451100
    26  H    0.453190
    27  H    0.391303
    28  O   -0.834281
    29  H    0.481368
    30  H    0.397621
 Sum of Mulliken charges =  -0.00000
 Mulliken charges with hydrogens summed into heavy atoms:
               1
     1  O   -0.166475
     2  C    0.224520
     3  C    0.274399
     4  C    0.288602
     5  C    0.396179
     6  C    0.276986
    11  C    0.207861
    15  O   -0.577634
    16  O   -0.214007
    18  O   -0.231965
    20  O   -0.241774
    22  O   -0.258645
    24  O    0.007514
    28  O    0.014440
 APT charges:
               1
     1  O   -0.468294
     2  C   -0.099061
     3  C   -0.263052
     4  C   -0.259072
     5  C   -0.248472
     6  C   -0.304146
     7  H    0.370954
     8  H    0.416687
     9  H    0.290744
    10  H    0.414022
    11  C   -0.557139
    12  H    0.278895
    13  H    0.434566
    14  H    0.434173
    15  O   -0.399863
    16  O   -0.849317
    17  H    0.735247
    18  O   -0.921830
    19  H    0.804649
    20  O   -0.750000
    21  H    0.649484
    22  O   -0.818516
    23  H    0.612147
    24  O   -0.988963
    25  H    0.409799
    26  H    0.220296
    27  H    0.737006
    28  O   -1.198359
    29  H    0.537782
    30  H    0.779634
 Sum of APT charges =  -0.00000
 APT charges with hydrogens summed into heavy atoms:
               1
     1  O    0.069488
     2  C    0.191682
     3  C    0.171121
     4  C    0.111883
     5  C    0.165550
     6  C    0.112541
    11  C    0.156322
    15  O   -0.399863
    16  O   -0.114071
    18  O   -0.117181
    20  O   -0.100516
    22  O   -0.206369
    24  O   -0.031661
    28  O   -0.008926
 Electronic spatial extent (au):  <R**2>=           3110.6149
 Charge=             -0.0000 electrons
 Dipole moment (field-independent basis, Debye):
    X=              3.2528    Y=              3.8626    Z=             -0.7975  Tot=              5.1123
 Quadrupole moment (field-independent basis, Debye-Ang):
   XX=            -85.4627   YY=            -73.6148   ZZ=            -85.8897
   XY=              5.6547   XZ=             -1.0893   YZ=             -6.0229
 Traceless Quadrupole moment (field-independent basis, Debye-Ang):
   XX=             -3.8070   YY=              8.0410   ZZ=             -4.2340
   XY=              5.6547   XZ=             -1.0893   YZ=             -6.0229
 Octapole moment (field-independent basis, Debye-Ang**2):
  XXX=             48.5677  YYY=            -18.3410  ZZZ=              6.1521  XYY=            -10.2549
  XXY=             49.3024  XXZ=              5.7927  XZZ=             11.0681  YZZ=             16.5913
  YYZ=            -16.4696  XYZ=             -3.3545
 Hexadecapole moment (field-independent basis, Debye-Ang**3):
 XXXX=          -1740.8045 YYYY=          -1124.6888 ZZZZ=           -375.4324 XXXY=             64.0871
 XXXZ=             11.1201 YYYX=             -2.1001 YYYZ=            -67.2125 ZZZX=             20.1837
 ZZZY=             -3.4708 XXYY=           -585.3255 XXZZ=           -333.6058 YYZZ=           -300.8757
 XXYZ=              4.9677 YYXZ=            -40.7659 ZZXY=              9.7798
 N-N= 1.114359842445D+03 E-N=-4.201535756665D+03  KE= 8.330379618523D+02
  Exact polarizability:   0.000   0.000   0.000   0.000   0.000   0.000
 Approx polarizability: 132.631  -2.464 134.219   1.847  -2.511 133.495

 This type of calculation cannot be archived.


 A true friend is someone who is there for
 you when he'd rather be anywhere else.
                               -- Len Wein
 Job cpu time:       0 days  1 hours 12 minutes 56.7 seconds.
 File lengths (MBytes):  RWF=    220 Int=      0 D2E=      0 Chk=      9 Scr=      1
 Normal termination of Gaussian 09 at Sat Jan 14 00:56:23 2017.
