 Entering Gaussian System, Link 0=g09
 Initial command:
 /global/software/gaussian/g09.e01/l1.exe "/scratch/10461010.yak.local/Gau-16303.inp" -scrdir="/scratch/10461010.yak.local/"
 Entering Link 1 = /global/software/gaussian/g09.e01/l1.exe PID=     16304.
  
 Copyright (c) 1988,1990,1992,1993,1995,1998,2003,2009,2015,
            Gaussian, Inc.  All Rights Reserved.
  
 This is part of the Gaussian(R) 09 program.  It is based on
 the Gaussian(R) 03 system (copyright 2003, Gaussian, Inc.),
 the Gaussian(R) 98 system (copyright 1998, Gaussian, Inc.),
 the Gaussian(R) 94 system (copyright 1995, Gaussian, Inc.),
 the Gaussian 92(TM) system (copyright 1992, Gaussian, Inc.),
 the Gaussian 90(TM) system (copyright 1990, Gaussian, Inc.),
 the Gaussian 88(TM) system (copyright 1988, Gaussian, Inc.),
 the Gaussian 86(TM) system (copyright 1986, Carnegie Mellon
 University), and the Gaussian 82(TM) system (copyright 1983,
 Carnegie Mellon University). Gaussian is a federally registered
 trademark of Gaussian, Inc.
  
 This software contains proprietary and confidential information,
 including trade secrets, belonging to Gaussian, Inc.
  
 This software is provided under written license and may be
 used, copied, transmitted, or stored only in accord with that
 written license.
  
 The following legend is applicable only to US Government
 contracts under FAR:
  
                    RESTRICTED RIGHTS LEGEND
  
 Use, reproduction and disclosure by the US Government is
 subject to restrictions as set forth in subparagraphs (a)
 and (c) of the Commercial Computer Software - Restricted
 Rights clause in FAR 52.227-19.
  
 Gaussian, Inc.
 340 Quinnipiac St., Bldg. 40, Wallingford CT 06492
  
  
 ---------------------------------------------------------------
 Warning -- This program may not be used in any manner that
 competes with the business of Gaussian, Inc. or will provide
 assistance to any competitor of Gaussian, Inc.  The licensee
 of this program is prohibited from giving any competitor of
 Gaussian, Inc. access to this program.  By using this program,
 the user acknowledges that Gaussian, Inc. is engaged in the
 business of creating and licensing software in the field of
 computational chemistry and represents and warrants to the
 licensee that it is not a competitor of Gaussian, Inc. and that
 it will not use this program in any manner prohibited above.
 ---------------------------------------------------------------
  

 Cite this work as:
 Gaussian 09, Revision E.01,
 M. J. Frisch, G. W. Trucks, H. B. Schlegel, G. E. Scuseria, 
 M. A. Robb, J. R. Cheeseman, G. Scalmani, V. Barone, B. Mennucci, 
 G. A. Petersson, H. Nakatsuji, M. Caricato, X. Li, H. P. Hratchian, 
 A. F. Izmaylov, J. Bloino, G. Zheng, J. L. Sonnenberg, M. Hada, 
 M. Ehara, K. Toyota, R. Fukuda, J. Hasegawa, M. Ishida, T. Nakajima, 
 Y. Honda, O. Kitao, H. Nakai, T. Vreven, J. A. Montgomery, Jr., 
 J. E. Peralta, F. Ogliaro, M. Bearpark, J. J. Heyd, E. Brothers, 
 K. N. Kudin, V. N. Staroverov, T. Keith, R. Kobayashi, J. Normand, 
 K. Raghavachari, A. Rendell, J. C. Burant, S. S. Iyengar, J. Tomasi, 
 M. Cossi, N. Rega, J. M. Millam, M. Klene, J. E. Knox, J. B. Cross, 
 V. Bakken, C. Adamo, J. Jaramillo, R. Gomperts, R. E. Stratmann, 
 O. Yazyev, A. J. Austin, R. Cammi, C. Pomelli, J. W. Ochterski, 
 R. L. Martin, K. Morokuma, V. G. Zakrzewski, G. A. Voth, 
 P. Salvador, J. J. Dannenberg, S. Dapprich, A. D. Daniels, 
 O. Farkas, J. B. Foresman, J. V. Ortiz, J. Cioslowski, 
 and D. J. Fox, Gaussian, Inc., Wallingford CT, 2013.
 
 ******************************************
 Gaussian 09:  ES64L-G09RevE.01 30-Nov-2015
                13-Jan-2017 
 ******************************************
 -------------------------------------
 # b3lyp/6-31g(d) irc=(calcfc,forward)
 -------------------------------------
 1/10=4,14=-1,18=10,22=1,26=3,38=1,44=3/1,23;
 2/12=2,17=6,18=5,29=1,40=1/2;
 3/5=1,6=6,7=1,11=2,16=1,25=1,30=1,71=2,74=-5,140=1/1,2,3;
 4//1;
 5/5=2,38=5/2;
 8/6=4,10=90,11=11/1;
 11/6=1,8=1,9=11,15=111,16=1/1,2,10;
 10/6=1,13=1/2;
 6/7=2,8=2,9=2,10=2,28=1/1;
 7/10=1,18=20,25=1/1,2,3,16;
 1/10=4,14=-1,18=10,22=1,26=3,44=3/23(2);
 2/29=1/2;
 99/5=20/99;
 2/29=1/2;
 3/5=1,6=6,7=1,11=2,16=1,25=1,30=1,71=2,74=-5,140=1/1,2,3;
 4/5=5,16=3,69=1/1;
 5/5=2,38=5/2;
 8/6=4,10=90,11=11/1;
 11/6=1,8=1,9=11,15=111,16=1/1,2,10;
 10/6=1,13=1/2;
 7/10=1,18=20,25=1/1,2,3,16;
 1/14=-1,18=10,22=1,26=3,44=3/23(-8);
 2/29=1/2;
 6/7=2,8=2,9=2,10=2,19=2,28=1/1;
 99/5=20,9=1/99;
 --------------------------------
 glo_1w_beta_ts_boat4_B3LYP_631Gd
 --------------------------------
 Symbolic Z-matrix:
 Charge =  0 Multiplicity = 1
 8                    -1.72445   0.2925    0.43779 
 6                     0.65494   0.38988  -0.15357 
 6                    -0.25455  -1.81469   0.82322 
 6                     0.98254  -1.04292   0.32286 
 6                    -1.53781  -1.46681   0.0858 
 6                    -0.51549   1.03038   0.61905 
 1                     1.63208  -0.93346   1.20619 
 1                    -0.272     1.01682   1.69012 
 1                     0.38745   0.33078  -1.2185 
 1                    -2.45389  -1.69454   0.66013 
 6                    -0.80687   2.47889   0.18627 
 1                    -0.999     2.51731  -0.8915 
 1                    -1.70783   2.83534   0.70225 
 1                    -0.05536  -2.88022   0.63396 
 8                    -1.56527  -1.6139   -1.19056 
 8                     0.29574   3.36995   0.39968 
 1                     0.4241    3.46188   1.35799 
 8                    -0.37323  -1.54628   2.21824 
 1                    -1.20913  -1.92634   2.53183 
 8                     1.59703  -1.81343  -0.68189 
 1                     2.47384  -1.41154  -0.88299 
 8                     1.84843   1.17142   0.02273 
 1                     1.60277   2.11437  -0.06827 
 8                    -2.93599   0.28     -1.6304 
 1                    -2.34596   0.51914  -0.59772 
 1                    -2.40831  -0.7671   -1.61942 
 1                    -2.55333   0.78046  -2.36934 
 8                     3.92244  -0.30835  -1.01052 
 1                     4.49338  -0.48812  -0.24821 
 1                     3.33697   0.42159  -0.70883 
 
 IRC-IRC-IRC-IRC-IRC-IRC-IRC-IRC-IRC-IRC-IRC-IRC-IRC-IRC-IRC-IRC-IRC-IRC
 ------------------------------------------------------------------------
 INPUT DATA FOR L123
 ------------------------------------------------------------------------
 GENERAL PARAMETERS:
 Rxn path following direction = Forward
 Maximum points per path      =  10
 Step size                    =   0.100 bohr
 Integration scheme           = HPC                                 
    Redo corrector integration= Yes                                 
    DWI Weight Power          =  2
    DWI will use Hessian update vectors when possible.
    Max correction cycles     =  20
 Initial Hessian              = CalcFC
 Hessian evaluation           = All updating
 Hessian updating method      = Bofill                              
 ------------------------------------------------------------------------
 IRC-IRC-IRC-IRC-IRC-IRC-IRC-IRC-IRC-IRC-IRC-IRC-IRC-IRC-IRC-IRC-IRC-IRC
                          Input orientation:                          
 ---------------------------------------------------------------------
 Center     Atomic      Atomic             Coordinates (Angstroms)
 Number     Number       Type             X           Y           Z
 ---------------------------------------------------------------------
      1          8           0       -1.724449    0.292502    0.437791
      2          6           0        0.654943    0.389879   -0.153565
      3          6           0       -0.254552   -1.814687    0.823217
      4          6           0        0.982536   -1.042918    0.322860
      5          6           0       -1.537809   -1.466813    0.085797
      6          6           0       -0.515492    1.030384    0.619045
      7          1           0        1.632084   -0.933457    1.206185
      8          1           0       -0.272003    1.016815    1.690121
      9          1           0        0.387449    0.330776   -1.218500
     10          1           0       -2.453889   -1.694535    0.660132
     11          6           0       -0.806869    2.478888    0.186270
     12          1           0       -0.999002    2.517305   -0.891496
     13          1           0       -1.707830    2.835339    0.702250
     14          1           0       -0.055357   -2.880216    0.633964
     15          8           0       -1.565266   -1.613902   -1.190564
     16          8           0        0.295735    3.369949    0.399679
     17          1           0        0.424102    3.461882    1.357988
     18          8           0       -0.373226   -1.546280    2.218243
     19          1           0       -1.209133   -1.926340    2.531825
     20          8           0        1.597030   -1.813429   -0.681889
     21          1           0        2.473841   -1.411544   -0.882988
     22          8           0        1.848431    1.171419    0.022729
     23          1           0        1.602772    2.114375   -0.068270
     24          8           0       -2.935989    0.279998   -1.630398
     25          1           0       -2.345958    0.519137   -0.597721
     26          1           0       -2.408310   -0.767097   -1.619416
     27          1           0       -2.553330    0.780463   -2.369337
     28          8           0        3.922442   -0.308353   -1.010520
     29          1           0        4.493382   -0.488123   -0.248210
     30          1           0        3.336968    0.421588   -0.708827
 ---------------------------------------------------------------------
                    Distance matrix (angstroms):
                    1          2          3          4          5
     1  O    0.000000
     2  C    2.453710   0.000000
     3  C    2.597960   2.577091   0.000000
     4  C    3.020650   1.545058   1.541548   0.000000
     5  C    1.803864   2.883186   1.520379   2.566715   0.000000
     6  C    1.427901   1.541782   2.864298   2.574955   2.750541
     7  H    3.655095   2.134231   2.117221   1.101888   3.404109
     8  H    2.050014   2.156723   2.961289   2.772322   3.216291
     9  H    2.684190   1.099606   3.030476   2.148710   2.939241
    10  H    2.128341   3.830368   2.208646   3.513883   1.104953
    11  C    2.384429   2.572225   4.375562   3.952688   4.014091
    12  H    2.691287   2.793925   4.718114   4.251628   4.137464
    13  H    2.556606   3.506478   4.873335   4.735281   4.349418
    14  H    3.590333   3.437768   1.100385   2.132996   2.120344
    15  O    2.512221   3.165412   2.411141   3.017908   1.285102
    16  O    3.681477   3.052200   5.230932   4.466653   5.182149
    17  H    3.938020   3.431513   5.346843   4.655809   5.455236
    18  O    2.894293   3.229755   1.425561   2.384102   2.431027
    19  H    3.094154   4.006366   1.960365   3.234714   2.510427
    20  O    4.089114   2.453817   2.386148   1.407413   3.246028
    21  H    4.719520   2.661874   3.243114   1.952932   4.127340
    22  O    3.702735   1.437462   3.739004   2.396485   4.293119
    23  H    3.826973   1.969655   4.436432   3.241323   4.765700
    24  O    2.396955   3.884315   4.195001   4.573856   2.819855
    25  H    1.228789   3.036345   3.440898   3.790298   2.250400
    26  H    2.412989   3.587594   3.420903   3.917442   2.038413
    27  H    2.967342   3.918573   4.712917   4.803644   3.479830
    28  O    5.860547   3.449413   4.804052   3.310670   5.688434
    29  H    6.304078   3.938713   5.044859   3.599994   6.119204
    30  H    5.191275   2.739084   4.499678   2.958463   5.287810
                    6          7          8          9         10
     6  C    0.000000
     7  H    2.968752   0.000000
     8  H    1.098488   2.768267   0.000000
     9  H    2.163637   3.004413   3.060327   0.000000
    10  H    3.344287   4.191967   3.629452   3.962871   0.000000
    11  C    1.539597   4.316575   2.164557   2.830929   4.511616
    12  H    2.174040   4.819817   3.073230   2.609614   4.718458
    13  H    2.164822   5.060909   2.518833   3.788444   4.591093
    14  H    3.937606   2.639084   4.043421   3.733386   2.675720
    15  O    3.371789   4.053450   4.109933   2.756020   2.054563
    16  O    2.485915   4.577727   2.743138   3.444341   5.768645
    17  H    2.709438   4.560841   2.563831   4.055053   5.946299
    18  O    3.035930   2.328322   2.618896   3.989131   2.603622
    19  H    3.589162   3.288716   3.201381   4.659247   2.259731
    20  O    3.773917   2.083363   4.138840   2.519653   4.269087
    21  H    4.141887   2.302556   4.478557   2.738846   5.171443
    22  O    2.442052   2.424433   2.701914   2.093275   5.208640
    23  H    2.476788   3.303691   2.794881   2.445662   5.612028
    24  O    3.388492   5.512347   4.320367   3.349250   3.062308
    25  H    2.256657   4.603143   3.127810   2.809334   2.548369
    26  H    3.438663   4.933202   4.324255   3.030235   2.461414
    27  H    3.625696   5.765377   4.662565   3.189800   3.913207
    28  O    4.913548   3.248119   5.161676   3.598321   6.735739
    29  H    5.305357   3.240465   5.360118   4.297760   7.109507
    30  H    4.120112   2.900008   4.374233   2.994608   6.315540
                   11         12         13         14         15
    11  C    0.000000
    12  H    1.095432   0.000000
    13  H    1.097736   1.773023   0.000000
    14  H    5.430027   5.687770   5.950034   0.000000
    15  O    4.384264   4.180546   4.837232   2.685569   0.000000
    16  O    1.433621   2.017543   2.095622   6.264401   5.552564
    17  H    1.963285   2.824470   2.316826   6.401273   6.017997
    18  O    4.529783   5.155075   4.824727   2.095320   3.611855
    19  H    5.006943   5.613311   5.125391   2.417220   3.752416
    20  O    4.995640   5.053570   5.869326   2.366408   3.209155
    21  H    5.200176   5.243717   6.167282   3.294690   4.055852
    22  O    2.964260   3.279496   3.984642   4.518159   4.569838
    23  H    2.450312   2.758493   3.474705   5.309281   5.019568
    24  O    3.559291   3.050154   3.671429   4.838629   2.378906
    25  H    2.612290   2.427606   2.731652   4.280129   2.347509
    26  H    4.044939   3.647371   4.342620   3.883218   1.269534
    27  H    3.530708   2.759813   3.791046   5.353528   2.845832
    28  O    5.618487   5.676189   6.672057   5.014149   5.643741
    29  H    6.089712   6.293862   7.099564   5.214534   6.233989
    30  H    4.712225   4.819340   5.767783   4.920657   5.329839
                   16         17         18         19         20
    16  O    0.000000
    17  H    0.971229   0.000000
    18  O    5.284316   5.143681   0.000000
    19  H    5.904350   5.751373   0.970319   0.000000
    20  O    5.452574   5.776311   3.516254   4.267934   0.000000
    21  H    5.408517   5.742272   4.212075   5.048788   0.985266
    22  O    2.717810   3.009626   4.140281   5.023980   3.077175
    23  H    1.871841   2.288941   4.746905   5.567287   3.975450
    24  O    4.910504   5.508634   4.971427   5.017376   5.082358
    25  H    4.012540   4.489741   4.010894   4.131197   4.582041
    26  H    5.338891   5.896758   4.413198   4.473776   4.244587
    27  H    4.742368   5.472482   5.586813   5.758041   5.176992
    28  O    5.354584   5.662410   5.514539   6.441984   2.789407
    29  H    5.738007   5.894188   5.557604   6.505055   3.214556
    30  H    4.378438   4.690405   5.119158   6.056536   2.832563
                   21         22         23         24         25
    21  H    0.000000
    22  O    2.807696   0.000000
    23  H    3.722181   0.978670   0.000000
    24  O    5.717184   5.139857   5.138632   0.000000
    25  H    5.199939   4.289910   4.291570   1.213155   0.000000
    26  H    4.979261   4.957250   5.176651   1.172593   1.643821
    27  H    5.682128   5.024970   4.934310   0.971043   1.802753
    28  O    1.825305   2.749336   3.484008   6.911475   6.336243
    29  H    2.309588   3.134207   3.893713   7.595789   6.921944
    30  H    2.033640   1.820210   2.506647   6.341871   5.684849
                   26         27         28         29         30
    26  H    0.000000
    27  H    1.725791   0.000000
    28  O    6.376490   6.705783   0.000000
    29  H    7.042115   7.467573   0.969230   0.000000
    30  H    5.937202   6.130391   0.983164   1.541764   0.000000
 Symmetry turned off by external request.
 Stoichiometry    C6H16O8
 Framework group  C1[X(C6H16O8)]
 Deg. of freedom    84
 Full point group                 C1      NOp   1
 Rotational constants (GHZ):      0.6536413      0.5529444      0.4015854
 Standard basis: 6-31G(d) (6D, 7F)
   242 basis functions,   456 primitive gaussians,   242 cartesian basis functions
    58 alpha electrons       58 beta electrons
       nuclear repulsion energy      1116.6269898933 Hartrees.
 NAtoms=   30 NActive=   30 NUniq=   30 SFac= 1.00D+00 NAtFMM=   60 NAOKFM=F Big=F
 Integral buffers will be    131072 words long.
 Raffenetti 2 integral format.
 Two-electron integral symmetry is turned off.
 One-electron integrals computed using PRISM.
 NBasis=   242 RedAO= T EigKep=  1.37D-03  NBF=   242
 NBsUse=   242 1.00D-06 EigRej= -1.00D+00 NBFU=   242
 ExpMin= 1.61D-01 ExpMax= 5.48D+03 ExpMxC= 8.25D+02 IAcc=1 IRadAn=         1 AccDes= 0.00D+00
 Harris functional with IExCor=  402 and IRadAn=       1 diagonalized for initial guess.
 HarFok:  IExCor=  402 AccDes= 0.00D+00 IRadAn=         1 IDoV= 1 UseB2=F ITyADJ=14
 ICtDFT=  3500011 ScaDFX=  1.000000  1.000000  1.000000  1.000000
 FoFCou: FMM=F IPFlag=           0 FMFlag=      100000 FMFlg1=           0
         NFxFlg=           0 DoJE=T BraDBF=F KetDBF=T FulRan=T
         wScrn=  0.000000 ICntrl=     500 IOpCl=  0 I1Cent=   200000004 NGrid=           0
         NMat0=    1 NMatS0=      1 NMatT0=    0 NMatD0=    1 NMtDS0=    0 NMtDT0=    0
 Symmetry not used in FoFCou.
 Requested convergence on RMS density matrix=1.00D-08 within 128 cycles.
 Requested convergence on MAX density matrix=1.00D-06.
 Requested convergence on             energy=1.00D-06.
 No special actions if energy rises.
 Integral accuracy reduced to 1.0D-05 until final iterations.
 Initial convergence to 1.0D-05 achieved.  Increase integral accuracy.
 SCF Done:  E(RB3LYP) =  -839.951039665     A.U. after   14 cycles
            NFock= 14  Conv=0.71D-08     -V/T= 2.0086
 DoSCS=F DFT=T ScalE2(SS,OS)=  1.000000  1.000000
 Range of M.O.s used for correlation:     1   242
 NBasis=   242 NAE=    58 NBE=    58 NFC=     0 NFV=     0
 NROrb=    242 NOA=    58 NOB=    58 NVA=   184 NVB=   184
 Symmetrizing basis deriv contribution to polar:
 IMax=3 JMax=2 DiffMx= 0.00D+00
 G2DrvN: will do    31 centers at a time, making    1 passes.
 Calling FoFCou, ICntrl=  3107 FMM=F I1Cent=   0 AccDes= 0.00D+00.
 End of G2Drv F.D. properties file   721 does not exist.
 End of G2Drv F.D. properties file   722 does not exist.
 End of G2Drv F.D. properties file   788 does not exist.
          IDoAtm=111111111111111111111111111111
          Differentiating once with respect to nuclear coordinates.
          There are    93 degrees of freedom in the 1st order CPHF.  IDoFFX=6 NUNeed=     0.
     87 vectors produced by pass  0 Test12= 1.15D-14 1.08D-09 XBig12= 1.30D-01 6.89D-02.
 AX will form    87 AO Fock derivatives at one time.
     87 vectors produced by pass  1 Test12= 1.15D-14 1.08D-09 XBig12= 9.83D-03 1.41D-02.
     87 vectors produced by pass  2 Test12= 1.15D-14 1.08D-09 XBig12= 1.32D-04 2.09D-03.
     87 vectors produced by pass  3 Test12= 1.15D-14 1.08D-09 XBig12= 3.31D-07 6.15D-05.
     87 vectors produced by pass  4 Test12= 1.15D-14 1.08D-09 XBig12= 6.04D-10 2.13D-06.
     67 vectors produced by pass  5 Test12= 1.15D-14 1.08D-09 XBig12= 5.03D-13 6.04D-08.
      2 vectors produced by pass  6 Test12= 1.15D-14 1.08D-09 XBig12= 4.26D-16 1.64D-09.
 InvSVY:  IOpt=1 It=  1 EMax= 3.61D-16
 Solved reduced A of dimension   504 with    93 vectors.
 End of Minotr F.D. properties file   721 does not exist.
 End of Minotr F.D. properties file   722 does not exist.
 End of Minotr F.D. properties file   788 does not exist.

 **********************************************************************

            Population analysis using the SCF density.

 **********************************************************************

 Alpha  occ. eigenvalues --  -19.19105 -19.16718 -19.16717 -19.16053 -19.15643
 Alpha  occ. eigenvalues --  -19.14058 -19.12699 -19.11499 -10.29281 -10.26101
 Alpha  occ. eigenvalues --  -10.25236 -10.24121 -10.24113 -10.23255  -1.06540
 Alpha  occ. eigenvalues --   -1.05758  -1.03325  -1.02843  -1.00429  -1.00140
 Alpha  occ. eigenvalues --   -0.99955  -0.98965  -0.77681  -0.75619  -0.70050
 Alpha  occ. eigenvalues --   -0.64412  -0.63327  -0.56942  -0.55877  -0.55120
 Alpha  occ. eigenvalues --   -0.54461  -0.52120  -0.51557  -0.51000  -0.49225
 Alpha  occ. eigenvalues --   -0.47772  -0.45717  -0.45097  -0.44429  -0.43316
 Alpha  occ. eigenvalues --   -0.41671  -0.40795  -0.39714  -0.39147  -0.38793
 Alpha  occ. eigenvalues --   -0.37283  -0.36179  -0.35668  -0.34413  -0.33030
 Alpha  occ. eigenvalues --   -0.31107  -0.29861  -0.29407  -0.28801  -0.27824
 Alpha  occ. eigenvalues --   -0.26841  -0.25461  -0.24384
 Alpha virt. eigenvalues --    0.01788   0.03899   0.05029   0.06402   0.07726
 Alpha virt. eigenvalues --    0.09911   0.11909   0.12633   0.13627   0.14335
 Alpha virt. eigenvalues --    0.15576   0.16186   0.17278   0.17916   0.19082
 Alpha virt. eigenvalues --    0.20385   0.21147   0.22129   0.23078   0.23629
 Alpha virt. eigenvalues --    0.25518   0.26029   0.26797   0.29065   0.29800
 Alpha virt. eigenvalues --    0.31325   0.32625   0.35025   0.51277   0.52233
 Alpha virt. eigenvalues --    0.54695   0.54857   0.55414   0.57135   0.59684
 Alpha virt. eigenvalues --    0.60372   0.61882   0.62431   0.64994   0.66151
 Alpha virt. eigenvalues --    0.68586   0.69793   0.70938   0.71034   0.74162
 Alpha virt. eigenvalues --    0.76539   0.77396   0.77660   0.79427   0.80675
 Alpha virt. eigenvalues --    0.81559   0.82445   0.83517   0.84242   0.85113
 Alpha virt. eigenvalues --    0.85773   0.86385   0.88347   0.88904   0.90175
 Alpha virt. eigenvalues --    0.91075   0.91962   0.92605   0.93345   0.94431
 Alpha virt. eigenvalues --    0.97153   0.98795   1.00482   1.01340   1.02219
 Alpha virt. eigenvalues --    1.03840   1.04937   1.06045   1.07130   1.09373
 Alpha virt. eigenvalues --    1.10367   1.11043   1.11427   1.12721   1.15164
 Alpha virt. eigenvalues --    1.17695   1.20953   1.23599   1.23896   1.26005
 Alpha virt. eigenvalues --    1.29215   1.32553   1.32898   1.37915   1.39352
 Alpha virt. eigenvalues --    1.42061   1.43885   1.45660   1.48160   1.49769
 Alpha virt. eigenvalues --    1.51318   1.54791   1.55142   1.58256   1.58641
 Alpha virt. eigenvalues --    1.60686   1.62880   1.64607   1.66519   1.67290
 Alpha virt. eigenvalues --    1.70576   1.71016   1.72757   1.73160   1.74403
 Alpha virt. eigenvalues --    1.75310   1.76718   1.77019   1.79705   1.81074
 Alpha virt. eigenvalues --    1.81748   1.82666   1.84283   1.86635   1.87956
 Alpha virt. eigenvalues --    1.88774   1.90645   1.91494   1.93805   1.96458
 Alpha virt. eigenvalues --    1.97344   1.99435   1.99969   2.03130   2.04705
 Alpha virt. eigenvalues --    2.05702   2.08083   2.09377   2.11120   2.13678
 Alpha virt. eigenvalues --    2.16414   2.19450   2.22049   2.22449   2.27584
 Alpha virt. eigenvalues --    2.30233   2.31241   2.33465   2.36718   2.41073
 Alpha virt. eigenvalues --    2.42998   2.45496   2.46649   2.49231   2.50489
 Alpha virt. eigenvalues --    2.53333   2.54183   2.57412   2.59621   2.59963
 Alpha virt. eigenvalues --    2.62210   2.64210   2.65969   2.67650   2.69163
 Alpha virt. eigenvalues --    2.71458   2.75504   2.79334   2.83901   2.88264
 Alpha virt. eigenvalues --    2.91640   2.96651   2.99882   3.03864   3.12741
 Alpha virt. eigenvalues --    3.73913   3.76861   3.78970   3.85862   3.89902
 Alpha virt. eigenvalues --    4.00707   4.05737   4.10359   4.24976   4.31605
 Alpha virt. eigenvalues --    4.49209   4.53688   4.62984   4.82601
          Condensed to atoms (all electrons):
               1          2          3          4          5          6
     1  O    8.588795  -0.035251  -0.005493  -0.009563   0.068651   0.159098
     2  C   -0.035251   5.048789  -0.034376   0.333580  -0.007896   0.275172
     3  C   -0.005493  -0.034376   5.094534   0.296850   0.290530  -0.009488
     4  C   -0.009563   0.333580   0.296850   4.851536  -0.020915  -0.019199
     5  C    0.068651  -0.007896   0.290530  -0.020915   4.810918  -0.013356
     6  C    0.159098   0.275172  -0.009488  -0.019199  -0.013356   5.005174
     7  H    0.000199  -0.058388  -0.055355   0.351242   0.005097  -0.001708
     8  H   -0.033567  -0.056453  -0.000835  -0.008074  -0.001512   0.358881
     9  H    0.001819   0.336674  -0.004485  -0.044960   0.002011  -0.044373
    10  H   -0.039501   0.000533  -0.084006   0.005091   0.353042   0.002652
    11  C   -0.033638  -0.026505   0.000302   0.003269   0.000932   0.324105
    12  H    0.000234  -0.008434   0.000014  -0.000023  -0.000070  -0.039140
    13  H    0.004920   0.005000   0.000003  -0.000102  -0.000073  -0.044836
    14  H    0.001977   0.005062   0.355256  -0.039342  -0.049392   0.000336
    15  O   -0.044786   0.000247  -0.054452   0.004432   0.318478   0.000454
    16  O    0.001434  -0.001355   0.000008  -0.000048  -0.000015  -0.035244
    17  H   -0.000007  -0.001267   0.000001  -0.000001  -0.000001  -0.001477
    18  O    0.000217  -0.000179   0.183843  -0.039566  -0.028819   0.001832
    19  H   -0.000096  -0.000317  -0.029816   0.007077  -0.003490   0.000123
    20  O    0.000023  -0.044262  -0.042768   0.246075  -0.000288   0.003826
    21  H   -0.000001  -0.001628   0.005341  -0.020613  -0.000078   0.000039
    22  O    0.001322   0.188200   0.002946  -0.042781   0.000139  -0.024923
    23  H    0.000036  -0.018394  -0.000208   0.004199  -0.000001  -0.009971
    24  O   -0.097761  -0.001226  -0.000615   0.000045   0.012801   0.007917
    25  H    0.114776   0.001191   0.001338  -0.000060  -0.011542  -0.013547
    26  H    0.008234   0.000150   0.003915  -0.000251  -0.023189  -0.000772
    27  H    0.004414  -0.000002  -0.000005  -0.000003  -0.000472  -0.000546
    28  O    0.000000   0.000091   0.000072   0.004756  -0.000000  -0.000009
    29  H   -0.000000  -0.000296   0.000015   0.000512  -0.000000  -0.000003
    30  H   -0.000005  -0.003812   0.000039  -0.000729  -0.000001   0.000569
               7          8          9         10         11         12
     1  O    0.000199  -0.033567   0.001819  -0.039501  -0.033638   0.000234
     2  C   -0.058388  -0.056453   0.336674   0.000533  -0.026505  -0.008434
     3  C   -0.055355  -0.000835  -0.004485  -0.084006   0.000302   0.000014
     4  C    0.351242  -0.008074  -0.044960   0.005091   0.003269  -0.000023
     5  C    0.005097  -0.001512   0.002011   0.353042   0.000932  -0.000070
     6  C   -0.001708   0.358881  -0.044373   0.002652   0.324105  -0.039140
     7  H    0.645033   0.003746   0.007539  -0.000227  -0.000322   0.000005
     8  H    0.003746   0.614289   0.006925  -0.000092  -0.052193   0.005750
     9  H    0.007539   0.006925   0.636045   0.000230  -0.012556   0.005701
    10  H   -0.000227  -0.000092   0.000230   0.677612  -0.000128  -0.000008
    11  C   -0.000322  -0.052193  -0.012556  -0.000128   4.972451   0.362445
    12  H    0.000005   0.005750   0.005701  -0.000008   0.362445   0.587593
    13  H    0.000007  -0.006181  -0.000140   0.000005   0.365891  -0.039649
    14  H   -0.001872   0.000104  -0.000215   0.000123   0.000015  -0.000000
    15  O   -0.000021  -0.000094   0.006793  -0.045189  -0.000046  -0.000036
    16  O   -0.000004   0.000682   0.000101   0.000000   0.216212  -0.035083
    17  H    0.000004   0.005228   0.000104  -0.000000  -0.028656   0.007175
    18  O    0.005991   0.009000   0.000092   0.001558   0.000241  -0.000005
    19  H    0.000029  -0.000226   0.000024   0.009499  -0.000021   0.000000
    20  O   -0.035720   0.000016   0.003661  -0.000093  -0.000046  -0.000002
    21  H   -0.004127   0.000002   0.000003   0.000007  -0.000000   0.000000
    22  O    0.001636   0.004609  -0.037303   0.000002   0.000596   0.000234
    23  H   -0.000024  -0.000298  -0.001396  -0.000000  -0.004716  -0.001156
    24  O   -0.000001  -0.000149   0.001059   0.001306  -0.000544   0.001477
    25  H    0.000005   0.001903   0.001137   0.001493  -0.003655   0.004067
    26  H    0.000010   0.000035   0.000086  -0.003980   0.000002  -0.000077
    27  H    0.000000   0.000031   0.000658  -0.000040  -0.000160   0.002053
    28  O    0.001126   0.000000   0.000090  -0.000000  -0.000001   0.000000
    29  H    0.000264  -0.000000   0.000004  -0.000000   0.000000  -0.000000
    30  H    0.000203  -0.000027  -0.000407   0.000000  -0.000008  -0.000005
              13         14         15         16         17         18
     1  O    0.004920   0.001977  -0.044786   0.001434  -0.000007   0.000217
     2  C    0.005000   0.005062   0.000247  -0.001355  -0.001267  -0.000179
     3  C    0.000003   0.355256  -0.054452   0.000008   0.000001   0.183843
     4  C   -0.000102  -0.039342   0.004432  -0.000048  -0.000001  -0.039566
     5  C   -0.000073  -0.049392   0.318478  -0.000015  -0.000001  -0.028819
     6  C   -0.044836   0.000336   0.000454  -0.035244  -0.001477   0.001832
     7  H    0.000007  -0.001872  -0.000021  -0.000004   0.000004   0.005991
     8  H   -0.006181   0.000104  -0.000094   0.000682   0.005228   0.009000
     9  H   -0.000140  -0.000215   0.006793   0.000101   0.000104   0.000092
    10  H    0.000005   0.000123  -0.045189   0.000000  -0.000000   0.001558
    11  C    0.365891   0.000015  -0.000046   0.216212  -0.028656   0.000241
    12  H   -0.039649  -0.000000  -0.000036  -0.035083   0.007175  -0.000005
    13  H    0.584855  -0.000000   0.000010  -0.027485  -0.006982   0.000001
    14  H   -0.000000   0.580575   0.002603  -0.000000  -0.000000  -0.030452
    15  O    0.000010   0.002603   8.356267   0.000000  -0.000000   0.001878
    16  O   -0.027485  -0.000000   0.000000   8.226228   0.236110  -0.000000
    17  H   -0.006982  -0.000000  -0.000000   0.236110   0.382356  -0.000002
    18  O    0.000001  -0.030452   0.001878  -0.000000  -0.000002   8.296064
    19  H    0.000001  -0.002779   0.000059   0.000000   0.000000   0.231857
    20  O    0.000000   0.008137   0.000365   0.000000  -0.000000   0.001000
    21  H   -0.000000   0.000059   0.000059   0.000000  -0.000000  -0.000090
    22  O   -0.000206  -0.000058   0.000025  -0.021217   0.002716  -0.000035
    23  H    0.000990   0.000005   0.000000   0.059127  -0.004067   0.000002
    24  O   -0.000063   0.000008  -0.098872   0.000002  -0.000001   0.000002
    25  H    0.000750  -0.000076   0.012969   0.000105   0.000015   0.000053
    26  H    0.000009  -0.000118   0.128549  -0.000000   0.000000  -0.000055
    27  H   -0.000023  -0.000001   0.005324   0.000003   0.000001  -0.000000
    28  O   -0.000000   0.000001  -0.000000  -0.000000   0.000000   0.000000
    29  H    0.000000  -0.000000  -0.000000   0.000000  -0.000000  -0.000000
    30  H    0.000001  -0.000005   0.000000   0.000030  -0.000006  -0.000001
              19         20         21         22         23         24
     1  O   -0.000096   0.000023  -0.000001   0.001322   0.000036  -0.097761
     2  C   -0.000317  -0.044262  -0.001628   0.188200  -0.018394  -0.001226
     3  C   -0.029816  -0.042768   0.005341   0.002946  -0.000208  -0.000615
     4  C    0.007077   0.246075  -0.020613  -0.042781   0.004199   0.000045
     5  C   -0.003490  -0.000288  -0.000078   0.000139  -0.000001   0.012801
     6  C    0.000123   0.003826   0.000039  -0.024923  -0.009971   0.007917
     7  H    0.000029  -0.035720  -0.004127   0.001636  -0.000024  -0.000001
     8  H   -0.000226   0.000016   0.000002   0.004609  -0.000298  -0.000149
     9  H    0.000024   0.003661   0.000003  -0.037303  -0.001396   0.001059
    10  H    0.009499  -0.000093   0.000007   0.000002  -0.000000   0.001306
    11  C   -0.000021  -0.000046  -0.000000   0.000596  -0.004716  -0.000544
    12  H    0.000000  -0.000002   0.000000   0.000234  -0.001156   0.001477
    13  H    0.000001   0.000000  -0.000000  -0.000206   0.000990  -0.000063
    14  H   -0.002779   0.008137   0.000059  -0.000058   0.000005   0.000008
    15  O    0.000059   0.000365   0.000059   0.000025   0.000000  -0.098872
    16  O    0.000000   0.000000   0.000000  -0.021217   0.059127   0.000002
    17  H    0.000000  -0.000000  -0.000000   0.002716  -0.004067  -0.000001
    18  O    0.231857   0.001000  -0.000090  -0.000035   0.000002   0.000002
    19  H    0.392871  -0.000126   0.000007   0.000004  -0.000001   0.000003
    20  O   -0.000126   8.343747   0.204439   0.000530  -0.000126  -0.000000
    21  H    0.000007   0.204439   0.327340   0.001408  -0.000021   0.000000
    22  O    0.000004   0.000530   0.001408   8.369806   0.213329   0.000001
    23  H   -0.000001  -0.000126  -0.000021   0.213329   0.336712  -0.000000
    24  O    0.000003  -0.000000   0.000000   0.000001  -0.000000   8.520276
    25  H   -0.000002  -0.000000  -0.000000  -0.000020   0.000004   0.123909
    26  H   -0.000013   0.000034  -0.000002  -0.000003  -0.000000   0.132502
    27  H   -0.000000  -0.000000  -0.000000  -0.000001   0.000000   0.227373
    28  O   -0.000000  -0.025317   0.076392  -0.021396   0.000432   0.000000
    29  H    0.000000   0.001346  -0.004132   0.001177  -0.000018  -0.000000
    30  H    0.000000   0.004522  -0.008987   0.055673  -0.001036  -0.000000
              25         26         27         28         29         30
     1  O    0.114776   0.008234   0.004414   0.000000  -0.000000  -0.000005
     2  C    0.001191   0.000150  -0.000002   0.000091  -0.000296  -0.003812
     3  C    0.001338   0.003915  -0.000005   0.000072   0.000015   0.000039
     4  C   -0.000060  -0.000251  -0.000003   0.004756   0.000512  -0.000729
     5  C   -0.011542  -0.023189  -0.000472  -0.000000  -0.000000  -0.000001
     6  C   -0.013547  -0.000772  -0.000546  -0.000009  -0.000003   0.000569
     7  H    0.000005   0.000010   0.000000   0.001126   0.000264   0.000203
     8  H    0.001903   0.000035   0.000031   0.000000  -0.000000  -0.000027
     9  H    0.001137   0.000086   0.000658   0.000090   0.000004  -0.000407
    10  H    0.001493  -0.003980  -0.000040  -0.000000  -0.000000   0.000000
    11  C   -0.003655   0.000002  -0.000160  -0.000001   0.000000  -0.000008
    12  H    0.004067  -0.000077   0.002053   0.000000  -0.000000  -0.000005
    13  H    0.000750   0.000009  -0.000023  -0.000000   0.000000   0.000001
    14  H   -0.000076  -0.000118  -0.000001   0.000001  -0.000000  -0.000005
    15  O    0.012969   0.128549   0.005324  -0.000000  -0.000000   0.000000
    16  O    0.000105  -0.000000   0.000003  -0.000000   0.000000   0.000030
    17  H    0.000015   0.000000   0.000001   0.000000  -0.000000  -0.000006
    18  O    0.000053  -0.000055  -0.000000   0.000000  -0.000000  -0.000001
    19  H   -0.000002  -0.000013  -0.000000  -0.000000   0.000000   0.000000
    20  O   -0.000000   0.000034  -0.000000  -0.025317   0.001346   0.004522
    21  H   -0.000000  -0.000002  -0.000000   0.076392  -0.004132  -0.008987
    22  O   -0.000020  -0.000003  -0.000001  -0.021396   0.001177   0.055673
    23  H    0.000004  -0.000000   0.000000   0.000432  -0.000018  -0.001036
    24  O    0.123909   0.132502   0.227373   0.000000  -0.000000  -0.000000
    25  H    0.317850  -0.019980  -0.004403  -0.000000   0.000000   0.000000
    26  H   -0.019980   0.313172  -0.005362   0.000000  -0.000000  -0.000000
    27  H   -0.004403  -0.005362   0.365495  -0.000000   0.000000   0.000000
    28  O   -0.000000   0.000000  -0.000000   8.313473   0.240842   0.213979
    29  H    0.000000  -0.000000   0.000000   0.240842   0.384592  -0.016825
    30  H    0.000000  -0.000000   0.000000   0.213979  -0.016825   0.327325
 Mulliken charges:
               1
     1  O   -0.656481
     2  C    0.105351
     3  C    0.086895
     4  C    0.137568
     5  C    0.298514
     6  C    0.118415
     7  H    0.135633
     8  H    0.148500
     9  H    0.135081
    10  H    0.120108
    11  C   -0.083266
    12  H    0.146940
    13  H    0.163298
    14  H    0.170051
    15  O   -0.595019
    16  O   -0.619591
    17  H    0.408757
    18  O   -0.634428
    19  H    0.395333
    20  O   -0.668973
    21  H    0.424583
    22  O   -0.696409
    23  H    0.426595
    24  O   -0.829448
    25  H    0.471721
    26  H    0.467104
    27  H    0.405666
    28  O   -0.804530
    29  H    0.392523
    30  H    0.429512
 Sum of Mulliken charges =  -0.00000
 Mulliken charges with hydrogens summed into heavy atoms:
               1
     1  O   -0.656481
     2  C    0.240431
     3  C    0.256945
     4  C    0.273200
     5  C    0.418622
     6  C    0.266915
    11  C    0.226971
    15  O   -0.595019
    16  O   -0.210834
    18  O   -0.239095
    20  O   -0.244390
    22  O   -0.269814
    24  O    0.515043
    28  O    0.017505
 APT charges:
               1
     1  O   -0.437400
     2  C   -0.109278
     3  C   -0.340234
     4  C   -0.349343
     5  C   -0.323681
     6  C   -0.225337
     7  H    0.380460
     8  H    0.365914
     9  H    0.284919
    10  H    0.494174
    11  C   -0.712763
    12  H    0.338174
    13  H    0.542333
    14  H    0.537699
    15  O   -0.368108
    16  O   -0.771758
    17  H    0.682293
    18  O   -0.887588
    19  H    0.774525
    20  O   -0.716390
    21  H    0.568496
    22  O   -0.816660
    23  H    0.591267
    24  O   -0.933469
    25  H    0.393960
    26  H    0.353866
    27  H    0.601632
    28  O   -0.863736
    29  H    0.784319
    30  H    0.161715
 Sum of APT charges =  -0.00000
 APT charges with hydrogens summed into heavy atoms:
               1
     1  O   -0.437400
     2  C    0.175641
     3  C    0.197465
     4  C    0.031117
     5  C    0.170493
     6  C    0.140577
    11  C    0.167744
    15  O   -0.368108
    16  O   -0.089465
    18  O   -0.113063
    20  O   -0.147894
    22  O   -0.225393
    24  O    0.415990
    28  O    0.082297
 Electronic spatial extent (au):  <R**2>=           3081.3225
 Charge=             -0.0000 electrons
 Dipole moment (field-independent basis, Debye):
    X=             -1.0669    Y=              3.5183    Z=              3.0297  Tot=              4.7640
 Quadrupole moment (field-independent basis, Debye-Ang):
   XX=            -85.7475   YY=            -81.4907   ZZ=            -81.6783
   XY=              2.5782   XZ=              4.7440   YZ=             -4.3513
 Traceless Quadrupole moment (field-independent basis, Debye-Ang):
   XX=             -2.7753   YY=              1.4814   ZZ=              1.2939
   XY=              2.5782   XZ=              4.7440   YZ=             -4.3513
 Octapole moment (field-independent basis, Debye-Ang**2):
  XXX=             50.0350  YYY=              7.4793  ZZZ=            -11.1973  XYY=            -10.8263
  XXY=             -2.9852  XXZ=             36.8867  XZZ=            -22.3706  YZZ=             21.4460
  YYZ=             31.4559  XYZ=             12.2837
 Hexadecapole moment (field-independent basis, Debye-Ang**3):
 XXXX=          -1621.1983 YYYY=          -1405.3063 ZZZZ=           -506.9931 XXXY=             -3.0027
 XXXZ=             85.0058 YYYX=             25.5558 YYYZ=             30.0776 ZZZX=             23.6206
 ZZZY=             -9.4338 XXYY=           -473.7410 XXZZ=           -390.4069 YYZZ=           -274.0921
 XXYZ=            -34.7828 YYXZ=             -9.4402 ZZXY=             13.9818
 N-N= 1.116626989893D+03 E-N=-4.205684563220D+03  KE= 8.328002261302D+02
  Exact polarizability:   0.000   0.000   0.000   0.000   0.000   0.000
 Approx polarizability: 133.864   1.204 139.603   3.330   7.476 139.608
 Calling FoFJK, ICntrl=    100147 FMM=F ISym2X=0 I1Cent= 0 IOpClX= 0 NMat=1 NMatS=1 NMatT=0.
 -------------------------------------------------------------------
 Center     Atomic                   Forces (Hartrees/Bohr)
 Number     Number              X              Y              Z
 -------------------------------------------------------------------
      1        8           0.000000417    0.000003657    0.000002613
      2        6           0.000000586   -0.000001363    0.000000003
      3        6          -0.000004321   -0.000000378   -0.000000642
      4        6          -0.000001961   -0.000002325   -0.000001485
      5        6          -0.000003496    0.000002466    0.000001996
      6        6           0.000002659    0.000000788    0.000000564
      7        1          -0.000000717   -0.000002087   -0.000001288
      8        1           0.000001252    0.000000149    0.000001240
      9        1          -0.000000025    0.000000332   -0.000000029
     10        1          -0.000001390    0.000002182    0.000001444
     11        6           0.000005117    0.000002106    0.000002039
     12        1           0.000001758    0.000001041    0.000001137
     13        1           0.000002845    0.000001475    0.000000804
     14        1          -0.000002618   -0.000000215   -0.000001535
     15        8          -0.000005049    0.000002970    0.000000220
     16        8           0.000007113   -0.000001087    0.000000861
     17        1           0.000003187   -0.000000256    0.000001077
     18        8           0.000007579    0.000001519   -0.000003052
     19        1          -0.000008668   -0.000003166    0.000002100
     20        8          -0.000004750   -0.000001802   -0.000003678
     21        1          -0.000002001   -0.000004256    0.000000911
     22        8           0.000002174   -0.000005206   -0.000000212
     23        1           0.000001202   -0.000000102    0.000000301
     24        8          -0.000002130    0.000007562    0.000004397
     25        1          -0.000000010    0.000002369    0.000000880
     26        1          -0.000002114    0.000001859    0.000000993
     27        1           0.000001203    0.000004225   -0.000001529
     28        8           0.000011108   -0.000009067   -0.000002572
     29        1          -0.000006876   -0.000001255   -0.000006517
     30        1          -0.000002072   -0.000002135   -0.000001038
 -------------------------------------------------------------------
 Cartesian Forces:  Max     0.000011108 RMS     0.000003243
 IRC-IRC-IRC-IRC-IRC-IRC-IRC-IRC-IRC-IRC-IRC-IRC-IRC-IRC-IRC-IRC-IRC-IRC
          ******** Start new reaction path calculation ********
 Supplied step size of   0.1000 bohr.
    Integration on MW PES will use step size of   0.1056 sqrt(amu)*bohr.
 Point Number:   0          Path Number:   1
 Calculating another point on the path.
 IRC-IRC-IRC-IRC-IRC-IRC-IRC-IRC-IRC-IRC-IRC-IRC-IRC-IRC-IRC-IRC-IRC-IRC
                          Input orientation:                          
 ---------------------------------------------------------------------
 Center     Atomic      Atomic             Coordinates (Angstroms)
 Number     Number       Type             X           Y           Z
 ---------------------------------------------------------------------
      1          8           0       -1.722019    0.308870    0.438863
      2          6           0        0.656562    0.407861   -0.152684
      3          6           0       -0.253019   -1.797016    0.823866
      4          6           0        0.984148   -1.024955    0.323617
      5          6           0       -1.536306   -1.445586    0.088777
      6          6           0       -0.514056    1.047613    0.620090
      7          1           0        1.633554   -0.915728    1.207025
      8          1           0       -0.268632    1.035851    1.691152
      9          1           0        0.389098    0.348821   -1.217707
     10          1           0       -2.452132   -1.677288    0.660321
     11          6           0       -0.805359    2.496573    0.187020
     12          1           0       -0.997365    2.535122   -0.890749
     13          1           0       -1.706263    2.853145    0.702978
     14          1           0       -0.053637   -2.862529    0.634561
     15          8           0       -1.564462   -1.595209   -1.191250
     16          8           0        0.297347    3.387823    0.400468
     17          1           0        0.425707    3.479547    1.358792
     18          8           0       -0.371612   -1.528480    2.218914
     19          1           0       -1.207474   -1.908313    2.532827
     20          8           0        1.598628   -1.795577   -0.681119
     21          1           0        2.475420   -1.393574   -0.882253
     22          8           0        1.850124    1.189283    0.023462
     23          1           0        1.604161    2.132222   -0.067170
     24          8           0       -2.934263    0.298507   -1.628720
     25          1           0       -2.364899    0.537996   -0.629207
     26          1           0       -2.386009   -0.777270   -1.609644
     27          1           0       -2.550613    0.800191   -2.366371
     28          8           0        3.924042   -0.290469   -1.009739
     29          1           0        4.494975   -0.470197   -0.247415
     30          1           0        3.338474    0.439500   -0.708028
 ---------------------------------------------------------------------
                    Distance matrix (angstroms):
                    1          2          3          4          5
     1  O    0.000000
     2  C    2.453033   0.000000
     3  C    2.596332   2.577298   0.000000
     4  C    3.019223   1.545036   1.541722   0.000000
     5  C    1.798657   2.881361   1.520094   2.566080   0.000000
     6  C    1.427501   1.541690   2.863840   2.574500   2.746513
     7  H    3.653708   2.134294   2.117224   1.101848   3.402829
     8  H    2.051600   2.156406   2.962695   2.772459   3.214363
     9  H    2.683772   1.099680   3.030668   2.148727   2.938363
    10  H    2.127658   3.830509   2.208434   3.513819   1.104122
    11  C    2.385317   2.572028   4.375563   3.952487   4.010555
    12  H    2.692433   2.793824   4.718196   4.251497   4.134728
    13  H    2.557995   3.506353   4.873451   4.735175   4.345712
    14  H    3.588811   3.437963   1.100413   2.133158   2.122243
    15  O    2.511495   3.166047   2.412737   3.019176   1.289049
    16  O    3.682291   3.052079   5.231130   4.466566   5.178927
    17  H    3.938552   3.431197   5.346861   4.655532   5.451548
    18  O    2.892755   3.229711   1.425600   2.384066   2.429169
    19  H    3.092789   4.006403   1.960592   3.234831   2.509109
    20  O    4.087757   2.453950   2.386122   1.407459   3.247006
    21  H    4.718278   2.661894   3.243144   1.952920   4.127899
    22  O    3.702416   1.437441   3.739229   2.396426   4.291236
    23  H    3.826768   1.969436   4.436437   3.241126   4.763147
    24  O    2.396778   3.883898   4.194695   4.573523   2.818854
    25  H    1.267505   3.061574   3.467526   3.816648   2.266421
    26  H    2.411838   3.575543   3.392860   3.893174   2.013275
    27  H    2.966025   3.916670   4.711903   4.802263   3.478517
    28  O    5.859663   3.449439   4.804126   3.310632   5.688271
    29  H    6.303089   3.938702   5.044952   3.599965   6.118886
    30  H    5.190473   2.738989   4.499724   2.958340   5.286958
                    6          7          8          9         10
     6  C    0.000000
     7  H    2.968405   0.000000
     8  H    1.098884   2.767915   0.000000
     9  H    2.163676   3.004510   3.060405   0.000000
    10  H    3.344076   4.191860   3.631997   3.962915   0.000000
    11  C    1.540094   4.316538   2.164301   2.830692   4.511872
    12  H    2.174605   4.819830   3.073285   2.609424   4.718746
    13  H    2.165219   5.060913   2.519093   3.788298   4.591618
    14  H    3.937183   2.639009   4.044747   3.733588   2.675488
    15  O    3.371767   4.054717   4.112164   2.756147   2.054996
    16  O    2.486602   4.577831   2.741892   3.444189   5.769099
    17  H    2.709822   4.560742   2.562074   4.054766   5.946660
    18  O    3.035257   2.328106   2.620101   3.989148   2.603827
    19  H    3.588439   3.288528   3.202802   4.659421   2.260271
    20  O    3.773634   2.083373   4.139000   2.519789   4.268737
    21  H    4.141665   2.302641   4.478207   2.738834   5.171150
    22  O    2.442413   2.424623   2.700715   2.093197   5.208860
    23  H    2.477003   3.303700   2.793042   2.445533   5.612051
    24  O    3.387582   5.511876   4.320974   3.349058   3.062013
    25  H    2.290431   4.633864   3.166427   2.822520   2.564756
    26  H    3.436004   4.910162   4.320410   3.020416   2.442774
    27  H    3.623221   5.763748   4.661166   3.188269   3.912603
    28  O    4.913605   3.248280   5.160664   3.598301   6.735574
    29  H    5.305347   3.240621   5.358935   4.297731   7.109385
    30  H    4.120156   2.900142   4.372975   2.994464   6.315400
                   11         12         13         14         15
    11  C    0.000000
    12  H    1.095417   0.000000
    13  H    1.097718   1.773031   0.000000
    14  H    5.430042   5.687868   5.950192   0.000000
    15  O    4.383896   4.179897   4.836947   2.687430   0.000000
    16  O    1.433823   2.017577   2.095673   6.264575   5.552522
    17  H    1.963367   2.824448   2.316844   6.401267   6.018025
    18  O    4.529655   5.155040   4.824727   2.095464   3.613386
    19  H    5.006748   5.613300   5.125292   2.417702   3.754227
    20  O    4.995535   5.053522   5.869297   2.366301   3.210222
    21  H    5.200009   5.243564   6.167175   3.294645   4.056696
    22  O    2.964345   3.279521   3.984729   4.518289   4.570374
    23  H    2.450133   2.758360   3.474445   5.309262   5.019708
    24  O    3.558179   3.049365   3.670282   4.838656   2.377792
    25  H    2.633328   2.434557   2.751078   4.301466   2.346732
    26  H    4.055182   3.662934   4.357773   3.850289   1.232484
    27  H    3.527524   2.756815   3.787934   5.353130   2.844528
    28  O    5.618457   5.676123   6.672034   5.014095   5.644375
    29  H    6.089663   6.293777   7.099521   5.214500   6.234842
    30  H    4.712113   4.819182   5.767667   4.920606   5.330321
                   16         17         18         19         20
    16  O    0.000000
    17  H    0.971223   0.000000
    18  O    5.284344   5.143526   0.000000
    19  H    5.904278   5.751059   0.970298   0.000000
    20  O    5.452596   5.776151   3.516160   4.268064   0.000000
    21  H    5.408432   5.742030   4.212010   5.048904   0.985304
    22  O    2.717872   3.009548   4.140333   5.024034   3.077186
    23  H    1.871626   2.288538   4.746641   5.566974   3.975496
    24  O    4.909662   5.507599   4.970849   5.017004   5.082346
    25  H    4.033522   4.515788   4.044169   4.162033   4.599762
    26  H    5.346863   5.902360   4.390896   4.452895   4.216213
    27  H    4.739421   5.469394   5.585301   5.756922   5.176320
    28  O    5.354571   5.662270   5.514482   6.442022   2.789425
    29  H    5.737957   5.894007   5.557555   6.505063   3.214585
    30  H    4.378336   4.690185   5.119050   6.056485   2.832553
                   21         22         23         24         25
    21  H    0.000000
    22  O    2.807573   0.000000
    23  H    3.722188   0.978696   0.000000
    24  O    5.717081   5.139411   5.137922   0.000000
    25  H    5.217632   4.314692   4.314033   1.174971   0.000000
    26  H    4.954031   4.947645   5.173570   1.207576   1.640618
    27  H    5.681216   5.022865   4.931813   0.971083   1.766628
    28  O    1.825267   2.749237   3.484209   6.911322   6.354678
    29  H    2.309599   3.134085   3.893826   7.595558   6.944069
    30  H    2.033563   1.820010   2.506760   6.341513   5.704768
                   26         27         28         29         30
    26  H    0.000000
    27  H    1.757302   0.000000
    28  O    6.357170   6.704561   0.000000
    29  H    7.021247   7.466202   0.969230   0.000000
    30  H    5.921414   6.128747   0.983247   1.541820   0.000000
 Symmetry turned off by external request.
 Stoichiometry    C6H16O8
 Framework group  C1[X(C6H16O8)]
 Deg. of freedom    84
 Full point group                 C1      NOp   1
 Rotational constants (GHZ):      0.6537431      0.5529466      0.4016329
 Standard basis: 6-31G(d) (6D, 7F)
   242 basis functions,   456 primitive gaussians,   242 cartesian basis functions
    58 alpha electrons       58 beta electrons
       nuclear repulsion energy      1116.6275287048 Hartrees.
 NAtoms=   30 NActive=   30 NUniq=   30 SFac= 1.00D+00 NAtFMM=   60 NAOKFM=F Big=F
 Integral buffers will be    131072 words long.
 Raffenetti 2 integral format.
 Two-electron integral symmetry is turned off.
 One-electron integrals computed using PRISM.
 NBasis=   242 RedAO= T EigKep=  1.37D-03  NBF=   242
 NBsUse=   242 1.00D-06 EigRej= -1.00D+00 NBFU=   242
 Initial guess from the checkpoint file:  "/scratch/10461010.yak.local/Gau-16304.chk"
 B after Tr=     0.003070    0.033598    0.001307
         Rot=    1.000000    0.000036    0.000035   -0.000031 Ang=   0.01 deg.
 ExpMin= 1.61D-01 ExpMax= 5.48D+03 ExpMxC= 8.25D+02 IAcc=1 IRadAn=         1 AccDes= 0.00D+00
 Harris functional with IExCor=  402 and IRadAn=       1 diagonalized for initial guess.
 HarFok:  IExCor=  402 AccDes= 0.00D+00 IRadAn=         1 IDoV= 1 UseB2=F ITyADJ=14
 ICtDFT=  3500011 ScaDFX=  1.000000  1.000000  1.000000  1.000000
 FoFCou: FMM=F IPFlag=           0 FMFlag=      100000 FMFlg1=           0
         NFxFlg=           0 DoJE=T BraDBF=F KetDBF=T FulRan=T
         wScrn=  0.000000 ICntrl=     500 IOpCl=  0 I1Cent=   200000004 NGrid=           0
         NMat0=    1 NMatS0=      1 NMatT0=    0 NMatD0=    1 NMtDS0=    0 NMtDT0=    0
 Symmetry not used in FoFCou.
 Requested convergence on RMS density matrix=1.00D-08 within 128 cycles.
 Requested convergence on MAX density matrix=1.00D-06.
 Requested convergence on             energy=1.00D-06.
 No special actions if energy rises.
 Integral accuracy reduced to 1.0D-05 until final iterations.
 Initial convergence to 1.0D-05 achieved.  Increase integral accuracy.
 SCF Done:  E(RB3LYP) =  -839.951494836     A.U. after   11 cycles
            NFock= 11  Conv=0.95D-08     -V/T= 2.0086
 DoSCS=F DFT=T ScalE2(SS,OS)=  1.000000  1.000000
 Range of M.O.s used for correlation:     1   242
 NBasis=   242 NAE=    58 NBE=    58 NFC=     0 NFV=     0
 NROrb=    242 NOA=    58 NOB=    58 NVA=   184 NVB=   184
 Symmetrizing basis deriv contribution to polar:
 IMax=3 JMax=2 DiffMx= 0.00D+00
 Calling FoFJK, ICntrl=      2147 FMM=F ISym2X=0 I1Cent= 0 IOpClX= 0 NMat=1 NMatS=1 NMatT=0.
 -------------------------------------------------------------------
 Center     Atomic                   Forces (Hartrees/Bohr)
 Number     Number              X              Y              Z
 -------------------------------------------------------------------
      1        8           0.002252738   -0.003779844    0.001136353
      2        6           0.000013143    0.000169924    0.000180286
      3        6          -0.000145279   -0.000393682   -0.000250847
      4        6          -0.000004531    0.000134164   -0.000040713
      5        6          -0.000187688    0.006106597    0.004065422
      6        6          -0.000301155   -0.001208379    0.000497636
      7        1          -0.000021883   -0.000025896    0.000007255
      8        1           0.000271351    0.000176387    0.000036630
      9        1           0.000003593    0.000025771    0.000002074
     10        1           0.000019843   -0.000107674   -0.000098534
     11        6          -0.000189825   -0.000363701   -0.000063379
     12        1           0.000002620   -0.000014702   -0.000002414
     13        1          -0.000004099   -0.000009682   -0.000007735
     14        1           0.000016266   -0.000031421   -0.000026248
     15        8          -0.001759583    0.001749094   -0.003469379
     16        8           0.000004244   -0.000037398    0.000023910
     17        1           0.000002401   -0.000033633    0.000005330
     18        8           0.000004522   -0.000211482   -0.000277803
     19        1          -0.000002993    0.000017743    0.000035179
     20        8          -0.000040307   -0.000085743   -0.000034469
     21        1          -0.000006555    0.000008328   -0.000006568
     22        8           0.000193596   -0.000060833   -0.000115135
     23        1          -0.000032363   -0.000005679    0.000048678
     24        8          -0.000415165    0.002139742    0.001411416
     25        1          -0.003048739    0.000332300   -0.004726690
     26        1           0.003312598   -0.004747195    0.001315983
     27        1           0.000110511    0.000266096    0.000355246
     28        8          -0.000019946   -0.000015374    0.000000879
     29        1          -0.000009699    0.000004680   -0.000004031
     30        1          -0.000017613    0.000001492    0.000001672
 -------------------------------------------------------------------
 Cartesian Forces:  Max     0.006106597 RMS     0.001371365
 IRC-IRC-IRC-IRC-IRC-IRC-IRC-IRC-IRC-IRC-IRC-IRC-IRC-IRC-IRC-IRC-IRC-IRC
 Pt  1 Step number   1 out of a maximum of  20
 Modified Bulirsch-Stoer Extrapolation Cycles:
    EPS =    0.000010000000000
 Maximum DWI energy   std dev =  0.000001402 at pt    31
 Maximum DWI gradient std dev =  0.037635116 at pt     1
 CORRECTOR INTEGRATION CONVERGENCE:
   Recorrection delta-x convergence threshold:    0.010000
   Delta-x Convergence Met
 Point Number:   1          Path Number:   1
   CHANGE IN THE REACTION COORDINATE =    0.10555
   NET REACTION COORDINATE UP TO THIS POINT =    0.10555
  # OF POINTS ALONG THE PATH =   1
  # OF STEPS =   1

 Calculating another point on the path.
 IRC-IRC-IRC-IRC-IRC-IRC-IRC-IRC-IRC-IRC-IRC-IRC-IRC-IRC-IRC-IRC-IRC-IRC
                          Input orientation:                          
 ---------------------------------------------------------------------
 Center     Atomic      Atomic             Coordinates (Angstroms)
 Number     Number       Type             X           Y           Z
 ---------------------------------------------------------------------
      1          8           0       -1.721088    0.307330    0.439378
      2          6           0        0.656571    0.407953   -0.152590
      3          6           0       -0.253095   -1.797233    0.823731
      4          6           0        0.984149   -1.024882    0.323594
      5          6           0       -1.536411   -1.442302    0.091006
      6          6           0       -0.514187    1.046979    0.620369
      7          1           0        1.633410   -0.915901    1.207081
      8          1           0       -0.266867    1.036988    1.691401
      9          1           0        0.389111    0.348993   -1.217690
     10          1           0       -2.452019   -1.677946    0.659634
     11          6           0       -0.805463    2.496382    0.186983
     12          1           0       -0.997366    2.535019   -0.890767
     13          1           0       -1.706291    2.853087    0.702933
     14          1           0       -0.053528   -2.862734    0.634390
     15          8           0       -1.565145   -1.594531   -1.192664
     16          8           0        0.297349    3.387804    0.400480
     17          1           0        0.425722    3.479340    1.358819
     18          8           0       -0.371617   -1.528566    2.218798
     19          1           0       -1.207437   -1.908188    2.533057
     20          8           0        1.598609   -1.795612   -0.681132
     21          1           0        2.475394   -1.393514   -0.882303
     22          8           0        1.850199    1.189257    0.023417
     23          1           0        1.603954    2.132185   -0.066866
     24          8           0       -2.934498    0.299395   -1.628201
     25          1           0       -2.384583    0.539756   -0.659846
     26          1           0       -2.364645   -0.807411   -1.600856
     27          1           0       -2.549847    0.802087   -2.364495
     28          8           0        3.924032   -0.290476   -1.009741
     29          1           0        4.494943   -0.470179   -0.247407
     30          1           0        3.338368    0.439515   -0.708025
 ---------------------------------------------------------------------
                    Distance matrix (angstroms):
                    1          2          3          4          5
     1  O    0.000000
     2  C    2.452308   0.000000
     3  C    2.594594   2.577506   0.000000
     4  C    3.017698   1.545016   1.541893   0.000000
     5  C    1.793511   2.879575   1.519791   2.565455   0.000000
     6  C    1.427042   1.541589   2.863401   2.574043   2.742570
     7  H    3.652166   2.134364   2.117216   1.101802   3.401542
     8  H    2.052979   2.156090   2.964093   2.772588   3.212457
     9  H    2.683384   1.099750   3.030860   2.148757   2.937526
    10  H    2.126992   3.830668   2.208263   3.513782   1.103270
    11  C    2.386215   2.571846   4.375578   3.952300   4.007085
    12  H    2.693633   2.793712   4.718246   4.251349   4.132012
    13  H    2.559406   3.506240   4.873586   4.735083   4.342082
    14  H    3.587212   3.438164   1.100441   2.133323   2.124108
    15  O    2.510967   3.166657   2.414211   3.020337   1.292984
    16  O    3.683059   3.051957   5.231323   4.466476   5.175749
    17  H    3.939011   3.430899   5.346899   4.655271   5.447924
    18  O    2.891008   3.229669   1.425638   2.384030   2.427280
    19  H    3.091253   4.006461   1.960835   3.234966   2.507765
    20  O    4.086355   2.454076   2.386090   1.407501   3.247981
    21  H    4.717009   2.661931   3.243176   1.952918   4.128473
    22  O    3.702014   1.437415   3.739448   2.396364   4.289382
    23  H    3.826524   1.969229   4.436454   3.240940   4.760649
    24  O    2.397355   3.883940   4.194967   4.573730   2.818480
    25  H    1.304815   3.085985   3.493675   3.842344   2.282921
    26  H    2.412337   3.564033   3.364077   3.868491   1.987826
    27  H    2.965355   3.915225   4.711297   4.801329   3.477616
    28  O    5.858728   3.449465   4.804198   3.310596   5.688127
    29  H    6.302003   3.938680   5.045024   3.599919   6.118560
    30  H    5.189615   2.738894   4.499769   2.958216   5.286129
                    6          7          8          9         10
     6  C    0.000000
     7  H    2.968047   0.000000
     8  H    1.099261   2.767560   0.000000
     9  H    2.163700   3.004622   3.060466   0.000000
    10  H    3.343943   4.191795   3.634598   3.962934   0.000000
    11  C    1.540595   4.316523   2.164068   2.830441   4.512157
    12  H    2.175145   4.819833   3.073324   2.609196   4.718986
    13  H    2.165630   5.060932   2.519371   3.788138   4.592194
    14  H    3.936783   2.638919   4.046061   3.733807   2.675279
    15  O    3.371822   4.055869   4.114395   2.756270   2.055362
    16  O    2.487248   4.577940   2.740649   3.444019   5.769576
    17  H    2.710187   4.560666   2.560347   4.054481   5.947088
    18  O    3.034590   2.327888   2.621295   3.989159   2.604109
    19  H    3.587754   3.288351   3.204234   4.659606   2.260909
    20  O    3.773346   2.083376   4.139147   2.519942   4.268383
    21  H    4.141453   2.302733   4.477866   2.738867   5.170868
    22  O    2.442727   2.424819   2.699504   2.093125   5.209099
    23  H    2.477194   3.303731   2.791224   2.445408   5.612114
    24  O    3.387161   5.511947   4.322043   3.349232   3.062165
    25  H    2.322630   4.663542   3.203175   2.835659   2.581430
    26  H    3.434647   4.886791   4.317573   3.011188   2.423898
    27  H    3.621229   5.762575   4.660201   3.187151   3.912223
    28  O    4.913638   3.248447   5.159647   3.598309   6.735422
    29  H    5.305299   3.240768   5.357738   4.297715   7.109269
    30  H    4.120173   2.900287   4.371720   2.994340   6.315276
                   11         12         13         14         15
    11  C    0.000000
    12  H    1.095384   0.000000
    13  H    1.097695   1.773026   0.000000
    14  H    5.430074   5.687940   5.950372   0.000000
    15  O    4.383619   4.179317   4.836788   2.689136   0.000000
    16  O    1.434018   2.017634   2.095704   6.264747   5.552536
    17  H    1.963472   2.824457   2.316864   6.401279   6.018121
    18  O    4.529537   5.154967   4.824737   2.095599   3.614822
    19  H    5.006584   5.613269   5.125226   2.418181   3.755973
    20  O    4.995438   5.053454   5.869276   2.366201   3.211143
    21  H    5.199874   5.243425   6.167097   3.294603   4.057424
    22  O    2.964434   3.279548   3.984808   4.518417   4.570876
    23  H    2.449973   2.758252   3.474192   5.309259   5.019863
    24  O    3.557308   3.048656   3.669335   4.839253   2.377347
    25  H    2.653135   2.441059   2.769250   4.322708   2.347457
    26  H    4.067243   3.680423   4.374942   3.816011   1.193892
    27  H    3.524706   2.754111   3.785142   5.353114   2.843695
    28  O    5.618438   5.676066   6.672014   5.014046   5.644917
    29  H    6.089621   6.293694   7.099475   5.214449   6.235571
    30  H    4.712014   4.819038   5.767558   4.920557   5.330728
                   16         17         18         19         20
    16  O    0.000000
    17  H    0.971222   0.000000
    18  O    5.284363   5.143388   0.000000
    19  H    5.904218   5.750782   0.970291   0.000000
    20  O    5.452611   5.776001   3.516064   4.268206   0.000000
    21  H    5.408365   5.741819   4.211952   5.049041   0.985344
    22  O    2.717927   3.009470   4.140378   5.024101   3.077195
    23  H    1.871418   2.288150   4.746393   5.566699   3.975543
    24  O    4.909038   5.506852   4.970836   5.017194   5.082820
    25  H    4.053200   4.540262   4.076345   4.191985   4.617383
    26  H    5.356434   5.909489   4.368293   4.431712   4.186862
    27  H    4.736829   5.466696   5.584193   5.756185   5.176045
    28  O    5.354558   5.662133   5.514430   6.442079   2.789446
    29  H    5.737908   5.893829   5.557496   6.505074   3.214598
    30  H    4.378240   4.689977   5.118948   6.056456   2.832539
                   21         22         23         24         25
    21  H    0.000000
    22  O    2.807473   0.000000
    23  H    3.722218   0.978724   0.000000
    24  O    5.717451   5.139360   5.137552   0.000000
    25  H    5.235113   4.338442   4.335423   1.139250   0.000000
    26  H    4.928064   4.938609   5.171473   1.245191   1.643398
    27  H    5.680722   5.021198   4.929739   0.970970   1.732615
    28  O    1.825236   2.749147   3.484403   6.911575   6.372624
    29  H    2.309593   3.133966   3.893933   7.595751   6.965484
    30  H    2.033493   1.819827   2.506873   6.341546   5.724032
                   26         27         28         29         30
    26  H    0.000000
    27  H    1.791069   0.000000
    28  O    6.337515   6.703742   0.000000
    29  H    6.999964   7.465239   0.969220   0.000000
    30  H    5.905619   6.127514   0.983321   1.541875   0.000000
 Symmetry turned off by external request.
 Stoichiometry    C6H16O8
 Framework group  C1[X(C6H16O8)]
 Deg. of freedom    84
 Full point group                 C1      NOp   1
 Rotational constants (GHZ):      0.6538094      0.5529254      0.4016696
 Standard basis: 6-31G(d) (6D, 7F)
   242 basis functions,   456 primitive gaussians,   242 cartesian basis functions
    58 alpha electrons       58 beta electrons
       nuclear repulsion energy      1116.6340794721 Hartrees.
 NAtoms=   30 NActive=   30 NUniq=   30 SFac= 1.00D+00 NAtFMM=   60 NAOKFM=F Big=F
 Integral buffers will be    131072 words long.
 Raffenetti 2 integral format.
 Two-electron integral symmetry is turned off.
 One-electron integrals computed using PRISM.
 NBasis=   242 RedAO= T EigKep=  1.37D-03  NBF=   242
 NBsUse=   242 1.00D-06 EigRej= -1.00D+00 NBFU=   242
 Initial guess from the checkpoint file:  "/scratch/10461010.yak.local/Gau-16304.chk"
 B after Tr=     0.000034   -0.000214   -0.000160
         Rot=    1.000000    0.000037    0.000034   -0.000032 Ang=   0.01 deg.
 ExpMin= 1.61D-01 ExpMax= 5.48D+03 ExpMxC= 8.25D+02 IAcc=1 IRadAn=         1 AccDes= 0.00D+00
 Harris functional with IExCor=  402 and IRadAn=       1 diagonalized for initial guess.
 HarFok:  IExCor=  402 AccDes= 0.00D+00 IRadAn=         1 IDoV= 1 UseB2=F ITyADJ=14
 ICtDFT=  3500011 ScaDFX=  1.000000  1.000000  1.000000  1.000000
 FoFCou: FMM=F IPFlag=           0 FMFlag=      100000 FMFlg1=           0
         NFxFlg=           0 DoJE=T BraDBF=F KetDBF=T FulRan=T
         wScrn=  0.000000 ICntrl=     500 IOpCl=  0 I1Cent=   200000004 NGrid=           0
         NMat0=    1 NMatS0=      1 NMatT0=    0 NMatD0=    1 NMtDS0=    0 NMtDT0=    0
 Symmetry not used in FoFCou.
 Requested convergence on RMS density matrix=1.00D-08 within 128 cycles.
 Requested convergence on MAX density matrix=1.00D-06.
 Requested convergence on             energy=1.00D-06.
 No special actions if energy rises.
 Integral accuracy reduced to 1.0D-05 until final iterations.
 Initial convergence to 1.0D-05 achieved.  Increase integral accuracy.
 SCF Done:  E(RB3LYP) =  -839.952829452     A.U. after   11 cycles
            NFock= 11  Conv=0.95D-08     -V/T= 2.0086
 DoSCS=F DFT=T ScalE2(SS,OS)=  1.000000  1.000000
 Range of M.O.s used for correlation:     1   242
 NBasis=   242 NAE=    58 NBE=    58 NFC=     0 NFV=     0
 NROrb=    242 NOA=    58 NOB=    58 NVA=   184 NVB=   184
 Symmetrizing basis deriv contribution to polar:
 IMax=3 JMax=2 DiffMx= 0.00D+00
 Calling FoFJK, ICntrl=      2147 FMM=F ISym2X=0 I1Cent= 0 IOpClX= 0 NMat=1 NMatS=1 NMatT=0.
 -------------------------------------------------------------------
 Center     Atomic                   Forces (Hartrees/Bohr)
 Number     Number              X              Y              Z
 -------------------------------------------------------------------
      1        8           0.004659443   -0.007625508    0.002674678
      2        6           0.000036278    0.000336008    0.000344650
      3        6          -0.000270805   -0.000793516   -0.000496886
      4        6           0.000005243    0.000266983   -0.000079313
      5        6          -0.000349682    0.012116917    0.008201463
      6        6          -0.000476392   -0.002348703    0.001023576
      7        1          -0.000041805   -0.000048567    0.000018637
      8        1           0.000537553    0.000347449    0.000069351
      9        1           0.000001573    0.000053050    0.000006482
     10        1           0.000031994   -0.000223199   -0.000217260
     11        6          -0.000399085   -0.000708204   -0.000143486
     12        1          -0.000005767   -0.000036698   -0.000007653
     13        1          -0.000013740   -0.000019849   -0.000016239
     14        1           0.000039078   -0.000062139   -0.000046607
     15        8          -0.002798397    0.002782125   -0.006593634
     16        8           0.000002242   -0.000097780    0.000052345
     17        1          -0.000000630   -0.000063084    0.000007461
     18        8          -0.000019136   -0.000419195   -0.000561757
     19        1           0.000013493    0.000038484    0.000069693
     20        8          -0.000086871   -0.000168515   -0.000063264
     21        1          -0.000006361    0.000024027   -0.000016175
     22        8           0.000367038   -0.000121486   -0.000222133
     23        1          -0.000065673   -0.000009092    0.000092691
     24        8          -0.001993128    0.004848754    0.001369794
     25        1          -0.005578561    0.000780490   -0.008552773
     26        1           0.006360374   -0.009366382    0.002445428
     27        1           0.000148476    0.000526687    0.000633566
     28        8          -0.000062483   -0.000028065   -0.000002150
     29        1          -0.000005277    0.000010356    0.000005455
     30        1          -0.000028991    0.000008652    0.000004062
 -------------------------------------------------------------------
 Cartesian Forces:  Max     0.012116917 RMS     0.002665426
 IRC-IRC-IRC-IRC-IRC-IRC-IRC-IRC-IRC-IRC-IRC-IRC-IRC-IRC-IRC-IRC-IRC-IRC
 Pt  2 Step number   1 out of a maximum of  20
 Modified Bulirsch-Stoer Extrapolation Cycles:
    EPS =    0.000010000000000
 Maximum DWI energy   std dev =  0.000004897 at pt    32
 Maximum DWI gradient std dev =  0.028241322 at pt    55
 CORRECTOR INTEGRATION CONVERGENCE:
   Recorrection delta-x convergence threshold:    0.010000
   Delta-x Convergence Met
 Point Number:   2          Path Number:   1
   CHANGE IN THE REACTION COORDINATE =    0.10552
   NET REACTION COORDINATE UP TO THIS POINT =    0.21107
  # OF POINTS ALONG THE PATH =   2
  # OF STEPS =   1

 Calculating another point on the path.
 IRC-IRC-IRC-IRC-IRC-IRC-IRC-IRC-IRC-IRC-IRC-IRC-IRC-IRC-IRC-IRC-IRC-IRC
                          Input orientation:                          
 ---------------------------------------------------------------------
 Center     Atomic      Atomic             Coordinates (Angstroms)
 Number     Number       Type             X           Y           Z
 ---------------------------------------------------------------------
      1          8           0       -1.720050    0.305653    0.440018
      2          6           0        0.656585    0.408047   -0.152495
      3          6           0       -0.253171   -1.797459    0.823588
      4          6           0        0.984154   -1.024807    0.323570
      5          6           0       -1.536514   -1.438791    0.093387
      6          6           0       -0.514292    1.046316    0.620673
      7          1           0        1.633262   -0.916068    1.207147
      8          1           0       -0.265038    1.038157    1.691641
      9          1           0        0.389101    0.349182   -1.217659
     10          1           0       -2.451927   -1.678687    0.658852
     11          6           0       -0.805583    2.496180    0.186937
     12          1           0       -0.997407    2.534872   -0.890785
     13          1           0       -1.706340    2.853021    0.702875
     14          1           0       -0.053414   -2.862940    0.634216
     15          8           0       -1.565675   -1.594001   -1.194056
     16          8           0        0.297349    3.387776    0.400493
     17          1           0        0.425715    3.479139    1.358848
     18          8           0       -0.371623   -1.528657    2.218675
     19          1           0       -1.207378   -1.908070    2.533311
     20          8           0        1.598589   -1.795647   -0.681146
     21          1           0        2.475372   -1.393432   -0.882362
     22          8           0        1.850275    1.189230    0.023371
     23          1           0        1.603735    2.132154   -0.066555
     24          8           0       -2.935073    0.300509   -1.628047
     25          1           0       -2.403218    0.542362   -0.688348
     26          1           0       -2.342922   -0.839463   -1.592451
     27          1           0       -2.549339    0.804076   -2.362740
     28          8           0        3.924016   -0.290483   -1.009740
     29          1           0        4.494930   -0.470137   -0.247393
     30          1           0        3.338285    0.439548   -0.708021
 ---------------------------------------------------------------------
                    Distance matrix (angstroms):
                    1          2          3          4          5
     1  O    0.000000
     2  C    2.451520   0.000000
     3  C    2.592670   2.577723   0.000000
     4  C    3.016024   1.544995   1.542071   0.000000
     5  C    1.787994   2.877665   1.519476   2.564788   0.000000
     6  C    1.426560   1.541470   2.862939   2.573550   2.738381
     7  H    3.650451   2.134434   2.117215   1.101759   3.400174
     8  H    2.054308   2.155752   2.965531   2.772709   3.210349
     9  H    2.682966   1.099813   3.031051   2.148795   2.936611
    10  H    2.126296   3.830873   2.208115   3.513777   1.102397
    11  C    2.387197   2.571663   4.375594   3.952110   4.003375
    12  H    2.694934   2.793590   4.718268   4.251182   4.129071
    13  H    2.560931   3.506133   4.873729   4.734995   4.338198
    14  H    3.585439   3.438368   1.100461   2.133491   2.126096
    15  O    2.510520   3.167252   2.415564   3.021390   1.297093
    16  O    3.683876   3.051824   5.231515   4.466375   5.172341
    17  H    3.939488   3.430607   5.346950   4.655017   5.444058
    18  O    2.889043   3.229625   1.425676   2.383992   2.425262
    19  H    3.089543   4.006534   1.961096   3.235108   2.506348
    20  O    4.084830   2.454203   2.386052   1.407544   3.249018
    21  H    4.715627   2.661958   3.243216   1.952918   4.129089
    22  O    3.701557   1.437384   3.739672   2.396298   4.287393
    23  H    3.826261   1.969016   4.436476   3.240753   4.757983
    24  O    2.398583   3.884434   4.195782   4.574452   2.818593
    25  H    1.340135   3.109273   3.519009   3.867078   2.299403
    26  H    2.414579   3.553421   3.334976   3.843816   1.962534
    27  H    2.965063   3.914074   4.710951   4.800692   3.476899
    28  O    5.857701   3.449481   4.804265   3.310550   5.687961
    29  H    6.300823   3.938668   5.045122   3.599890   6.118231
    30  H    5.188706   2.738816   4.499843   2.958116   5.285270
                    6          7          8          9         10
     6  C    0.000000
     7  H    2.967641   0.000000
     8  H    1.099621   2.767178   0.000000
     9  H    2.163696   3.004743   3.060493   0.000000
    10  H    3.343880   4.191776   3.637359   3.962951   0.000000
    11  C    1.541130   4.316507   2.163829   2.830152   4.512501
    12  H    2.175707   4.819826   3.073344   2.608925   4.719225
    13  H    2.166083   5.060955   2.519671   3.787945   4.592844
    14  H    3.936353   2.638832   4.047405   3.734031   2.675056
    15  O    3.371932   4.056916   4.116693   2.756386   2.055695
    16  O    2.487905   4.578038   2.739353   3.443819   5.770123
    17  H    2.710561   4.560595   2.558571   4.054178   5.947603
    18  O    3.033883   2.327663   2.622528   3.989157   2.604462
    19  H    3.587053   3.288163   3.205723   4.659797   2.261662
    20  O    3.773030   2.083390   4.139284   2.520119   4.268015
    21  H    4.141204   2.302840   4.477495   2.738915   5.170588
    22  O    2.443025   2.425016   2.698240   2.093052   5.209388
    23  H    2.477370   3.303763   2.789336   2.445275   5.612230
    24  O    3.387205   5.512538   4.323603   3.349764   3.062769
    25  H    2.352775   4.691812   3.237588   2.848602   2.598150
    26  H    3.434818   4.863503   4.316054   3.002881   2.405108
    27  H    3.619510   5.761696   4.659489   3.186309   3.911984
    28  O    4.913640   3.248615   5.158578   3.598337   6.735277
    29  H    5.305231   3.240939   5.356501   4.297736   7.109198
    30  H    4.120187   2.900460   4.370429   2.994259   6.315205
                   11         12         13         14         15
    11  C    0.000000
    12  H    1.095344   0.000000
    13  H    1.097674   1.773007   0.000000
    14  H    5.430100   5.687981   5.950554   0.000000
    15  O    4.383430   4.178814   4.836748   2.690673   0.000000
    16  O    1.434227   2.017730   2.095750   6.264911   5.552616
    17  H    1.963588   2.824493   2.316890   6.401298   6.018280
    18  O    4.529414   5.154862   4.824750   2.095729   3.616181
    19  H    5.006428   5.613221   5.125177   2.418672   3.757696
    20  O    4.995337   5.053369   5.869257   2.366095   3.211900
[...]
 Alpha  occ. eigenvalues --  -10.24824 -10.24595 -10.23979 -10.23311  -1.06935
 Alpha  occ. eigenvalues --   -1.05848  -1.03440  -1.02851  -1.01024  -1.00058
 Alpha  occ. eigenvalues --   -0.99286  -0.99023  -0.77356  -0.76253  -0.70410
 Alpha  occ. eigenvalues --   -0.65021  -0.63035  -0.56752  -0.55771  -0.54992
 Alpha  occ. eigenvalues --   -0.54778  -0.52627  -0.51932  -0.51112  -0.49762
 Alpha  occ. eigenvalues --   -0.47736  -0.46134  -0.44864  -0.44427  -0.42547
 Alpha  occ. eigenvalues --   -0.41133  -0.40878  -0.39980  -0.39224  -0.38523
 Alpha  occ. eigenvalues --   -0.37250  -0.35911  -0.35456  -0.33636  -0.32994
 Alpha  occ. eigenvalues --   -0.31067  -0.30172  -0.29782  -0.28522  -0.27594
 Alpha  occ. eigenvalues --   -0.27426  -0.26880  -0.24617
 Alpha virt. eigenvalues --    0.02536   0.04743   0.05436   0.06182   0.07701
 Alpha virt. eigenvalues --    0.10089   0.11644   0.12909   0.13957   0.14299
 Alpha virt. eigenvalues --    0.15752   0.16422   0.17306   0.18210   0.19353
 Alpha virt. eigenvalues --    0.20076   0.20598   0.21629   0.22984   0.23792
 Alpha virt. eigenvalues --    0.25591   0.25970   0.26885   0.28855   0.29702
 Alpha virt. eigenvalues --    0.31463   0.32097   0.33751   0.51820   0.52828
 Alpha virt. eigenvalues --    0.54771   0.55190   0.55348   0.56506   0.58600
 Alpha virt. eigenvalues --    0.60112   0.62021   0.62260   0.65960   0.66537
 Alpha virt. eigenvalues --    0.68944   0.70761   0.71668   0.73516   0.74411
 Alpha virt. eigenvalues --    0.76865   0.77454   0.77988   0.79417   0.81107
 Alpha virt. eigenvalues --    0.81750   0.82978   0.83670   0.84148   0.85070
 Alpha virt. eigenvalues --    0.85603   0.86568   0.88636   0.88767   0.90197
 Alpha virt. eigenvalues --    0.90566   0.92278   0.92406   0.93704   0.95135
 Alpha virt. eigenvalues --    0.96454   0.97366   1.00136   1.01992   1.03403
 Alpha virt. eigenvalues --    1.03963   1.05465   1.05953   1.07354   1.08780
 Alpha virt. eigenvalues --    1.09424   1.11259   1.11765   1.12705   1.15758
 Alpha virt. eigenvalues --    1.16974   1.21136   1.23335   1.24478   1.26211
 Alpha virt. eigenvalues --    1.28958   1.32492   1.33280   1.38826   1.39216
 Alpha virt. eigenvalues --    1.41884   1.43808   1.45843   1.47808   1.50560
 Alpha virt. eigenvalues --    1.52690   1.53955   1.55246   1.56526   1.59030
 Alpha virt. eigenvalues --    1.60471   1.61948   1.63337   1.65758   1.67052
 Alpha virt. eigenvalues --    1.70390   1.71749   1.72838   1.73343   1.74329
 Alpha virt. eigenvalues --    1.75387   1.76012   1.76477   1.78637   1.80217
 Alpha virt. eigenvalues --    1.82146   1.82743   1.83929   1.86141   1.86996
 Alpha virt. eigenvalues --    1.88035   1.90010   1.91586   1.93898   1.96629
 Alpha virt. eigenvalues --    1.97098   1.99524   2.00819   2.02853   2.03513
 Alpha virt. eigenvalues --    2.05158   2.08267   2.08704   2.11549   2.12591
 Alpha virt. eigenvalues --    2.16387   2.17195   2.22376   2.22957   2.27980
 Alpha virt. eigenvalues --    2.30528   2.33265   2.33503   2.36311   2.41362
 Alpha virt. eigenvalues --    2.42356   2.45507   2.45937   2.48792   2.50042
 Alpha virt. eigenvalues --    2.53161   2.54227   2.56893   2.58180   2.60058
 Alpha virt. eigenvalues --    2.60751   2.63886   2.65214   2.68917   2.70246
 Alpha virt. eigenvalues --    2.71685   2.75408   2.81972   2.83827   2.90097
 Alpha virt. eigenvalues --    2.90641   2.97190   2.97853   3.03263   3.13069
 Alpha virt. eigenvalues --    3.73926   3.76668   3.78622   3.86774   3.90146
 Alpha virt. eigenvalues --    4.00481   4.01911   4.09747   4.25294   4.31872
 Alpha virt. eigenvalues --    4.49137   4.53838   4.64505   4.83101
          Condensed to atoms (all electrons):
               1          2          3          4          5          6
     1  O    8.514076  -0.032481  -0.007747  -0.011451   0.121926   0.159166
     2  C   -0.032481   5.044343  -0.033886   0.335050  -0.009648   0.276068
     3  C   -0.007747  -0.033886   5.030374   0.301159   0.306490  -0.010056
     4  C   -0.011451   0.335050   0.301159   4.860526  -0.023209  -0.020680
     5  C    0.121926  -0.009648   0.306490  -0.023209   4.788126  -0.015870
     6  C    0.159166   0.276068  -0.010056  -0.020680  -0.015870   4.998997
     7  H    0.000303  -0.057327  -0.055513   0.350853   0.005152  -0.001713
     8  H   -0.033790  -0.057721  -0.000448  -0.008348  -0.001983   0.354717
     9  H    0.002214   0.337383  -0.004091  -0.046107   0.002007  -0.044535
    10  H   -0.043266   0.000428  -0.064737   0.004855   0.365230   0.002839
    11  C   -0.036260  -0.021920   0.000234   0.003387   0.001565   0.319847
    12  H    0.001294  -0.008918   0.000006  -0.000028  -0.000047  -0.038116
    13  H    0.004597   0.004911   0.000002  -0.000101  -0.000132  -0.043625
    14  H    0.002239   0.004946   0.356370  -0.041754  -0.048950   0.000431
    15  O   -0.042003  -0.000253  -0.047312   0.003097   0.277064   0.000930
    16  O    0.001295  -0.002087   0.000008  -0.000052  -0.000023  -0.032796
    17  H    0.000004  -0.001274   0.000001  -0.000002  -0.000001  -0.001398
    18  O   -0.001028  -0.000031   0.194429  -0.040122  -0.032304   0.002007
    19  H   -0.000056  -0.000344  -0.027869   0.007059  -0.003346   0.000145
    20  O    0.000038  -0.044411  -0.043388   0.245771  -0.000334   0.003836
    21  H   -0.000002  -0.001625   0.005345  -0.020769  -0.000092   0.000046
    22  O    0.001325   0.188692   0.002950  -0.042914   0.000138  -0.025035
    23  H    0.000041  -0.018854  -0.000206   0.004166  -0.000001  -0.009618
    24  O   -0.070812  -0.001114  -0.000314   0.000018   0.008015   0.006814
    25  H    0.084154   0.000906   0.001038  -0.000005  -0.008831  -0.011790
    26  H    0.004750  -0.000130   0.004709  -0.000261  -0.024434  -0.000218
    27  H    0.003510  -0.000055  -0.000023   0.000001  -0.000274  -0.000397
    28  O    0.000000   0.000099   0.000071   0.004810  -0.000000  -0.000010
    29  H   -0.000000  -0.000295   0.000015   0.000509  -0.000000  -0.000003
    30  H   -0.000005  -0.003797   0.000038  -0.000789  -0.000002   0.000579
               7          8          9         10         11         12
     1  O    0.000303  -0.033790   0.002214  -0.043266  -0.036260   0.001294
     2  C   -0.057327  -0.057721   0.337383   0.000428  -0.021920  -0.008918
     3  C   -0.055513  -0.000448  -0.004091  -0.064737   0.000234   0.000006
     4  C    0.350853  -0.008348  -0.046107   0.004855   0.003387  -0.000028
     5  C    0.005152  -0.001983   0.002007   0.365230   0.001565  -0.000047
     6  C   -0.001713   0.354717  -0.044535   0.002839   0.319847  -0.038116
     7  H    0.642440   0.003741   0.007509  -0.000221  -0.000305   0.000004
     8  H    0.003741   0.637586   0.007184  -0.000037  -0.058760   0.005985
     9  H    0.007509   0.007184   0.637321   0.000191  -0.013040   0.005839
    10  H   -0.000221  -0.000037   0.000191   0.638521  -0.000143  -0.000002
    11  C   -0.000305  -0.058760  -0.013040  -0.000143   4.983166   0.360224
    12  H    0.000004   0.005985   0.005839  -0.000002   0.360224   0.588461
    13  H    0.000007  -0.005802  -0.000124   0.000004   0.365535  -0.039583
    14  H   -0.001550   0.000073  -0.000251  -0.001468   0.000017  -0.000000
    15  O   -0.000016  -0.000145   0.006249  -0.042536  -0.000039  -0.000046
    16  O   -0.000005   0.001260   0.000140   0.000000   0.215147  -0.034599
    17  H    0.000004   0.005621   0.000108  -0.000000  -0.029021   0.007163
    18  O    0.006096   0.008235   0.000083  -0.000162   0.000230  -0.000005
    19  H    0.000069  -0.000254   0.000022   0.008278  -0.000020   0.000000
    20  O   -0.035850   0.000021   0.003626  -0.000089  -0.000047  -0.000003
    21  H   -0.004012   0.000003  -0.000004   0.000006  -0.000001   0.000000
    22  O    0.001686   0.004644  -0.037620   0.000002   0.000541   0.000247
    23  H   -0.000024  -0.000182  -0.001311  -0.000000  -0.005173  -0.001106
    24  O   -0.000000  -0.000119   0.001071   0.000362  -0.000081   0.001227
    25  H    0.000002   0.001240   0.000565   0.000841  -0.002193   0.003716
    26  H    0.000013   0.000024   0.000239  -0.003823  -0.000017  -0.000064
    27  H    0.000000   0.000029   0.000688   0.000013  -0.000285   0.002408
    28  O    0.001121   0.000000   0.000086  -0.000000  -0.000001   0.000000
    29  H    0.000263  -0.000000   0.000004  -0.000000  -0.000000  -0.000000
    30  H    0.000197  -0.000026  -0.000390   0.000000  -0.000009  -0.000005
              13         14         15         16         17         18
     1  O    0.004597   0.002239  -0.042003   0.001295   0.000004  -0.001028
     2  C    0.004911   0.004946  -0.000253  -0.002087  -0.001274  -0.000031
     3  C    0.000002   0.356370  -0.047312   0.000008   0.000001   0.194429
     4  C   -0.000101  -0.041754   0.003097  -0.000052  -0.000002  -0.040122
     5  C   -0.000132  -0.048950   0.277064  -0.000023  -0.000001  -0.032304
     6  C   -0.043625   0.000431   0.000930  -0.032796  -0.001398   0.002007
     7  H    0.000007  -0.001550  -0.000016  -0.000005   0.000004   0.006096
     8  H   -0.005802   0.000073  -0.000145   0.001260   0.005621   0.008235
     9  H   -0.000124  -0.000251   0.006249   0.000140   0.000108   0.000083
    10  H    0.000004  -0.001468  -0.042536   0.000000  -0.000000  -0.000162
    11  C    0.365535   0.000017  -0.000039   0.215147  -0.029021   0.000230
    12  H   -0.039583  -0.000000  -0.000046  -0.034599   0.007163  -0.000005
    13  H    0.585700  -0.000000   0.000010  -0.028009  -0.006852   0.000002
    14  H   -0.000000   0.582731   0.003414  -0.000000  -0.000000  -0.029984
    15  O    0.000010   0.003414   8.305019   0.000000  -0.000000   0.001753
    16  O   -0.028009  -0.000000   0.000000   8.225924   0.235709  -0.000000
    17  H   -0.006852  -0.000000  -0.000000   0.235709   0.382638  -0.000002
    18  O    0.000002  -0.029984   0.001753  -0.000000  -0.000002   8.289355
    19  H    0.000001  -0.003144   0.000034   0.000000   0.000000   0.231502
    20  O    0.000000   0.008312   0.000630   0.000000  -0.000000   0.001004
    21  H   -0.000000   0.000031   0.000045   0.000000  -0.000000  -0.000091
    22  O   -0.000205  -0.000058   0.000023  -0.021306   0.002699  -0.000036
    23  H    0.000993   0.000005   0.000000   0.059708  -0.004078   0.000002
    24  O   -0.000103   0.000008  -0.074385   0.000002  -0.000001   0.000001
    25  H    0.000819  -0.000059   0.011322   0.000072   0.000012   0.000024
    26  H    0.000002  -0.000172   0.185175  -0.000000   0.000000  -0.000068
    27  H   -0.000032  -0.000001   0.004411   0.000004   0.000001  -0.000000
    28  O   -0.000000   0.000001  -0.000000  -0.000000   0.000000   0.000000
    29  H    0.000000  -0.000000  -0.000000   0.000000  -0.000000  -0.000000
    30  H    0.000001  -0.000005   0.000000   0.000031  -0.000006  -0.000000
              19         20         21         22         23         24
     1  O   -0.000056   0.000038  -0.000002   0.001325   0.000041  -0.070812
     2  C   -0.000344  -0.044411  -0.001625   0.188692  -0.018854  -0.001114
     3  C   -0.027869  -0.043388   0.005345   0.002950  -0.000206  -0.000314
     4  C    0.007059   0.245771  -0.020769  -0.042914   0.004166   0.000018
     5  C   -0.003346  -0.000334  -0.000092   0.000138  -0.000001   0.008015
     6  C    0.000145   0.003836   0.000046  -0.025035  -0.009618   0.006814
     7  H    0.000069  -0.035850  -0.004012   0.001686  -0.000024  -0.000000
     8  H   -0.000254   0.000021   0.000003   0.004644  -0.000182  -0.000119
     9  H    0.000022   0.003626  -0.000004  -0.037620  -0.001311   0.001071
    10  H    0.008278  -0.000089   0.000006   0.000002  -0.000000   0.000362
    11  C   -0.000020  -0.000047  -0.000001   0.000541  -0.005173  -0.000081
    12  H    0.000000  -0.000003   0.000000   0.000247  -0.001106   0.001227
    13  H    0.000001   0.000000  -0.000000  -0.000205   0.000993  -0.000103
    14  H   -0.003144   0.008312   0.000031  -0.000058   0.000005   0.000008
    15  O    0.000034   0.000630   0.000045   0.000023   0.000000  -0.074385
    16  O    0.000000   0.000000   0.000000  -0.021306   0.059708   0.000002
    17  H    0.000000  -0.000000  -0.000000   0.002699  -0.004078  -0.000001
    18  O    0.231502   0.001004  -0.000091  -0.000036   0.000002   0.000001
    19  H    0.392491  -0.000126   0.000007   0.000003  -0.000001   0.000001
    20  O   -0.000126   8.345847   0.204590   0.000554  -0.000124  -0.000000
    21  H    0.000007   0.204590   0.326412   0.001415  -0.000020   0.000000
    22  O    0.000003   0.000554   0.001415   8.370329   0.213442   0.000001
    23  H   -0.000001  -0.000124  -0.000020   0.213442   0.336367  -0.000000
    24  O    0.000001  -0.000000   0.000000   0.000001  -0.000000   8.451550
    25  H   -0.000006   0.000001  -0.000000  -0.000013   0.000004   0.169895
    26  H   -0.000013   0.000069  -0.000003  -0.000002  -0.000000   0.103501
    27  H    0.000000  -0.000000   0.000000  -0.000000   0.000000   0.234725
    28  O   -0.000000  -0.025378   0.076746  -0.021576   0.000431   0.000000
    29  H    0.000000   0.001347  -0.004153   0.001190  -0.000017  -0.000000
    30  H    0.000000   0.004530  -0.009004   0.056106  -0.001033  -0.000000
              25         26         27         28         29         30
     1  O    0.084154   0.004750   0.003510   0.000000  -0.000000  -0.000005
     2  C    0.000906  -0.000130  -0.000055   0.000099  -0.000295  -0.003797
     3  C    0.001038   0.004709  -0.000023   0.000071   0.000015   0.000038
     4  C   -0.000005  -0.000261   0.000001   0.004810   0.000509  -0.000789
     5  C   -0.008831  -0.024434  -0.000274  -0.000000  -0.000000  -0.000002
     6  C   -0.011790  -0.000218  -0.000397  -0.000010  -0.000003   0.000579
     7  H    0.000002   0.000013   0.000000   0.001121   0.000263   0.000197
     8  H    0.001240   0.000024   0.000029   0.000000  -0.000000  -0.000026
     9  H    0.000565   0.000239   0.000688   0.000086   0.000004  -0.000390
    10  H    0.000841  -0.003823   0.000013  -0.000000  -0.000000   0.000000
    11  C   -0.002193  -0.000017  -0.000285  -0.000001  -0.000000  -0.000009
    12  H    0.003716  -0.000064   0.002408   0.000000  -0.000000  -0.000005
    13  H    0.000819   0.000002  -0.000032  -0.000000   0.000000   0.000001
    14  H   -0.000059  -0.000172  -0.000001   0.000001  -0.000000  -0.000005
    15  O    0.011322   0.185175   0.004411  -0.000000  -0.000000   0.000000
    16  O    0.000072  -0.000000   0.000004  -0.000000   0.000000   0.000031
    17  H    0.000012   0.000000   0.000001   0.000000  -0.000000  -0.000006
    18  O    0.000024  -0.000068  -0.000000   0.000000  -0.000000  -0.000000
    19  H   -0.000006  -0.000013   0.000000  -0.000000   0.000000   0.000000
    20  O    0.000001   0.000069  -0.000000  -0.025378   0.001347   0.004530
    21  H   -0.000000  -0.000003   0.000000   0.076746  -0.004153  -0.009004
    22  O   -0.000013  -0.000002  -0.000000  -0.021576   0.001190   0.056106
    23  H    0.000004  -0.000000   0.000000   0.000431  -0.000017  -0.001033
    24  O    0.169895   0.103501   0.234725   0.000000  -0.000000  -0.000000
    25  H    0.321085  -0.015151  -0.008201  -0.000000   0.000000   0.000000
    26  H   -0.015151   0.301979  -0.006157   0.000000  -0.000000  -0.000000
    27  H   -0.008201  -0.006157   0.372405  -0.000000   0.000000   0.000000
    28  O   -0.000000   0.000000  -0.000000   8.314052   0.240811   0.213629
    29  H    0.000000  -0.000000   0.000000   0.240811   0.384659  -0.016792
    30  H    0.000000  -0.000000   0.000000   0.213629  -0.016792   0.327010
 Mulliken charges:
               1
     1  O   -0.622032
     2  C    0.103346
     3  C    0.092351
     4  C    0.135332
     5  C    0.293769
     6  C    0.129437
     7  H    0.137076
     8  H    0.137251
     9  H    0.134941
    10  H    0.134914
    11  C   -0.082576
    12  H    0.145948
    13  H    0.161985
    14  H    0.168819
    15  O   -0.592440
    16  O   -0.620421
    17  H    0.408675
    18  O   -0.630890
    19  H    0.395564
    20  O   -0.670428
    21  H    0.425130
    22  O   -0.697221
    23  H    0.426589
    24  O   -0.830262
    25  H    0.450553
    26  H    0.450052
    27  H    0.397230
    28  O   -0.804895
    29  H    0.392463
    30  H    0.429743
 Sum of Mulliken charges =  -0.00000
 Mulliken charges with hydrogens summed into heavy atoms:
               1
     1  O   -0.622032
     2  C    0.238287
     3  C    0.261170
     4  C    0.272408
     5  C    0.428683
     6  C    0.266687
    11  C    0.225356
    15  O   -0.142388
    16  O   -0.211746
    18  O   -0.235326
    20  O   -0.245298
    22  O   -0.270632
    24  O    0.017521
    28  O    0.017311
 APT charges:
               1
     1  O   -0.447994
     2  C   -0.113124
     3  C   -0.349020
     4  C   -0.342192
     5  C   -0.317621
     6  C   -0.204167
     7  H    0.381779
     8  H    0.353192
     9  H    0.284553
    10  H    0.540427
    11  C   -0.704034
    12  H    0.334469
    13  H    0.543060
    14  H    0.536369
    15  O   -0.458940
    16  O   -0.768980
    17  H    0.681906
    18  O   -0.887918
    19  H    0.775312
    20  O   -0.720629
    21  H    0.569079
    22  O   -0.818158
    23  H    0.591598
    24  O   -0.847297
    25  H    0.202265
    26  H    0.510158
    27  H    0.593167
    28  O   -0.864418
    29  H    0.783957
    30  H    0.163199
 Sum of APT charges =  -0.00000
 APT charges with hydrogens summed into heavy atoms:
               1
     1  O   -0.447994
     2  C    0.171430
     3  C    0.187349
     4  C    0.039588
     5  C    0.222806
     6  C    0.149026
    11  C    0.173495
    15  O    0.051218
    16  O   -0.087074
    18  O   -0.112606
    20  O   -0.151549
    22  O   -0.226560
    24  O   -0.051865
    28  O    0.082738
 Electronic spatial extent (au):  <R**2>=           3083.7165
 Charge=              0.0000 electrons
 Dipole moment (field-independent basis, Debye):
    X=             -1.0422    Y=              2.9684    Z=              3.0374  Tot=              4.3730
 Quadrupole moment (field-independent basis, Debye-Ang):
   XX=            -86.1376   YY=            -80.5814   ZZ=            -81.7597
   XY=              3.6876   XZ=              4.3416   YZ=             -3.7472
 Traceless Quadrupole moment (field-independent basis, Debye-Ang):
   XX=             -3.3113   YY=              2.2448   ZZ=              1.0665
   XY=              3.6876   XZ=              4.3416   YZ=             -3.7472
 Octapole moment (field-independent basis, Debye-Ang**2):
  XXX=             51.0132  YYY=              2.0352  ZZZ=            -10.9441  XYY=            -13.0627
  XXY=             -7.2486  XXZ=             38.9274  XZZ=            -21.8284  YZZ=             18.1933
  YYZ=             30.1146  XYZ=             10.9098
 Hexadecapole moment (field-independent basis, Debye-Ang**3):
 XXXX=          -1630.2585 YYYY=          -1401.5985 ZZZZ=           -510.3481 XXXY=              6.2702
 XXXZ=             76.1716 YYYX=             28.8626 YYYZ=             33.3267 ZZZX=             20.1359
 ZZZY=             -7.3932 XXYY=           -468.5843 XXZZ=           -394.6484 YYZZ=           -270.7207
 XXYZ=            -30.4185 YYXZ=             -6.9562 ZZXY=             17.4278
 N-N= 1.116493292536D+03 E-N=-4.205414315579D+03  KE= 8.328499839301D+02
  Exact polarizability:   0.000   0.000   0.000   0.000   0.000   0.000
 Approx polarizability: 131.976   2.741 138.856   1.362   7.654 132.825

 This type of calculation cannot be archived.


 FLOATING POINT NUMBERS ARE LIKE SANDPILES:
 EVERY TIME THAT YOU MOVE ONE, YOU LOSE A LITTLE SAND 
 AND YOU PICK UP A LITTLE DIRT.
 Job cpu time:       0 days  1 hours  9 minutes  3.1 seconds.
 File lengths (MBytes):  RWF=    220 Int=      0 D2E=      0 Chk=      9 Scr=      1
 Normal termination of Gaussian 09 at Sat Jan 14 00:52:28 2017.
