 Entering Gaussian System, Link 0=g09
 Initial command:
 /global/software/gaussian/g09.e01/l1.exe "/scratch/10464844.yak.local/Gau-5482.inp" -scrdir="/scratch/10464844.yak.local/"
 Entering Link 1 = /global/software/gaussian/g09.e01/l1.exe PID=      5483.
  
 Copyright (c) 1988,1990,1992,1993,1995,1998,2003,2009,2015,
            Gaussian, Inc.  All Rights Reserved.
  
 This is part of the Gaussian(R) 09 program.  It is based on
 the Gaussian(R) 03 system (copyright 2003, Gaussian, Inc.),
 the Gaussian(R) 98 system (copyright 1998, Gaussian, Inc.),
 the Gaussian(R) 94 system (copyright 1995, Gaussian, Inc.),
 the Gaussian 92(TM) system (copyright 1992, Gaussian, Inc.),
 the Gaussian 90(TM) system (copyright 1990, Gaussian, Inc.),
 the Gaussian 88(TM) system (copyright 1988, Gaussian, Inc.),
 the Gaussian 86(TM) system (copyright 1986, Carnegie Mellon
 University), and the Gaussian 82(TM) system (copyright 1983,
 Carnegie Mellon University). Gaussian is a federally registered
 trademark of Gaussian, Inc.
  
 This software contains proprietary and confidential information,
 including trade secrets, belonging to Gaussian, Inc.
  
 This software is provided under written license and may be
 used, copied, transmitted, or stored only in accord with that
 written license.
  
 The following legend is applicable only to US Government
 contracts under FAR:
  
                    RESTRICTED RIGHTS LEGEND
  
 Use, reproduction and disclosure by the US Government is
 subject to restrictions as set forth in subparagraphs (a)
 and (c) of the Commercial Computer Software - Restricted
 Rights clause in FAR 52.227-19.
  
 Gaussian, Inc.
 340 Quinnipiac St., Bldg. 40, Wallingford CT 06492
  
  
 ---------------------------------------------------------------
 Warning -- This program may not be used in any manner that
 competes with the business of Gaussian, Inc. or will provide
 assistance to any competitor of Gaussian, Inc.  The licensee
 of this program is prohibited from giving any competitor of
 Gaussian, Inc. access to this program.  By using this program,
 the user acknowledges that Gaussian, Inc. is engaged in the
 business of creating and licensing software in the field of
 computational chemistry and represents and warrants to the
 licensee that it is not a competitor of Gaussian, Inc. and that
 it will not use this program in any manner prohibited above.
 ---------------------------------------------------------------
  

 Cite this work as:
 Gaussian 09, Revision E.01,
 M. J. Frisch, G. W. Trucks, H. B. Schlegel, G. E. Scuseria, 
 M. A. Robb, J. R. Cheeseman, G. Scalmani, V. Barone, B. Mennucci, 
 G. A. Petersson, H. Nakatsuji, M. Caricato, X. Li, H. P. Hratchian, 
 A. F. Izmaylov, J. Bloino, G. Zheng, J. L. Sonnenberg, M. Hada, 
 M. Ehara, K. Toyota, R. Fukuda, J. Hasegawa, M. Ishida, T. Nakajima, 
 Y. Honda, O. Kitao, H. Nakai, T. Vreven, J. A. Montgomery, Jr., 
 J. E. Peralta, F. Ogliaro, M. Bearpark, J. J. Heyd, E. Brothers, 
 K. N. Kudin, V. N. Staroverov, T. Keith, R. Kobayashi, J. Normand, 
 K. Raghavachari, A. Rendell, J. C. Burant, S. S. Iyengar, J. Tomasi, 
 M. Cossi, N. Rega, J. M. Millam, M. Klene, J. E. Knox, J. B. Cross, 
 V. Bakken, C. Adamo, J. Jaramillo, R. Gomperts, R. E. Stratmann, 
 O. Yazyev, A. J. Austin, R. Cammi, C. Pomelli, J. W. Ochterski, 
 R. L. Martin, K. Morokuma, V. G. Zakrzewski, G. A. Voth, 
 P. Salvador, J. J. Dannenberg, S. Dapprich, A. D. Daniels, 
 O. Farkas, J. B. Foresman, J. V. Ortiz, J. Cioslowski, 
 and D. J. Fox, Gaussian, Inc., Wallingford CT, 2013.
 
 ******************************************
 Gaussian 09:  ES64L-G09RevE.01 30-Nov-2015
                15-Jan-2017 
 ******************************************
 -------------------------
 # b3lyp/6-31g(d) opt freq
 -------------------------
 1/14=-1,18=20,19=15,26=3,38=1/1,3;
 2/9=110,12=2,17=6,18=5,40=1/2;
 3/5=1,6=6,7=1,11=2,16=1,25=1,30=1,71=1,74=-5/1,2,3;
 4//1;
 5/5=2,38=5/2;
 6/7=2,8=2,9=2,10=2,28=1/1;
 7//1,2,3,16;
 1/14=-1,18=20,19=15,26=3/3(2);
 2/9=110/2;
 99//99;
 2/9=110/2;
 3/5=1,6=6,7=1,11=2,16=1,25=1,30=1,71=1,74=-5/1,2,3;
 4/5=5,16=3,69=1/1;
 5/5=2,38=5/2;
 7//1,2,3,16;
 1/14=-1,18=20,19=15,26=3/3(-5);
 2/9=110/2;
 6/7=2,8=2,9=2,10=2,19=2,28=1/1;
 99/9=1/99;
 ----------------------------------
 glo_1w_beta_ircr_boat3_B3LYP_631Gd
 ----------------------------------
 Symbolic Z-matrix:
 Charge =  0 Multiplicity = 1
 6                    -0.76956  -0.57694   0.14391 
 6                    -0.27888   1.84941  -0.07377 
 8                     1.44841   0.28016   0.78102 
 6                     1.1704    1.32611  -0.16522 
 6                     0.60632  -0.89702   0.74721 
 6                    -1.17154   0.82149   0.61216 
 1                     1.84854   2.12846   0.14806 
 1                    -1.02498   0.89899   1.69741 
 1                    -0.6378    1.98835  -1.10379 
 1                     0.44913  -1.17026   1.79809 
 1                    -0.695    -0.57285  -0.95289 
 6                     1.28282  -2.0867    0.05393 
 1                     2.30901  -2.19295   0.42345 
 1                     1.34009  -1.89702  -1.03028 
 8                     1.40454   0.91293  -1.47815 
 8                     0.60157  -3.29297   0.35189 
 1                    -0.35167  -3.08633   0.3461 
 8                    -0.25866   3.08628   0.62355 
 1                    -1.18004   3.38738   0.6789 
 8                    -2.5413    1.1477    0.30244 
 1                    -3.08966   0.66603   0.94433 
 8                    -1.69116  -1.58199   0.55922 
 1                    -2.40698  -1.58686  -0.11909 
 8                     3.89966   0.05944  -0.59753 
 1                     2.352     0.64799  -1.5105 
 1                     3.32136  -0.01013   0.18847 
 1                     4.59879   0.68223  -0.3472 
 8                    -3.51418  -0.87348  -1.38847 
 1                    -3.26512   0.03506  -1.11835 
 1                    -3.23055  -0.95656  -2.31147 
 
 Add virtual bond connecting atoms O28        and H23        Dist= 3.46D+00.
 Add virtual bond connecting atoms H29        and O20        Dist= 3.67D+00.
 Add virtual bond connecting atoms O3         and H26        Dist= 3.75D+00.
 Add virtual bond connecting atoms H25        and O24        Dist= 3.57D+00.

 GradGradGradGradGradGradGradGradGradGradGradGradGradGradGradGradGradGrad
 Berny optimization.
 Initialization pass.
                           ----------------------------
                           !    Initial Parameters    !
                           ! (Angstroms and Degrees)  !
 --------------------------                            --------------------------
 ! Name  Definition              Value          Derivative Info.                !
 --------------------------------------------------------------------------------
 ! R1    R(1,5)                  1.5361         estimate D2E/DX2                !
 ! R2    R(1,6)                  1.5285         estimate D2E/DX2                !
 ! R3    R(1,11)                 1.0993         estimate D2E/DX2                !
 ! R4    R(1,22)                 1.4255         estimate D2E/DX2                !
 ! R5    R(2,4)                  1.5436         estimate D2E/DX2                !
 ! R6    R(2,6)                  1.5244         estimate D2E/DX2                !
 ! R7    R(2,9)                  1.0996         estimate D2E/DX2                !
 ! R8    R(2,18)                 1.42           estimate D2E/DX2                !
 ! R9    R(3,4)                  1.4376         estimate D2E/DX2                !
 ! R10   R(3,5)                  1.4478         estimate D2E/DX2                !
 ! R11   R(3,26)                 1.9858         estimate D2E/DX2                !
 ! R12   R(4,7)                  1.0963         estimate D2E/DX2                !
 ! R13   R(4,15)                 1.3962         estimate D2E/DX2                !
 ! R14   R(5,10)                 1.0971         estimate D2E/DX2                !
 ! R15   R(5,12)                 1.5342         estimate D2E/DX2                !
 ! R16   R(6,8)                  1.0978         estimate D2E/DX2                !
 ! R17   R(6,20)                 1.4417         estimate D2E/DX2                !
 ! R18   R(12,13)                1.0959         estimate D2E/DX2                !
 ! R19   R(12,14)                1.1022         estimate D2E/DX2                !
 ! R20   R(12,16)                1.417          estimate D2E/DX2                !
 ! R21   R(15,25)                0.9843         estimate D2E/DX2                !
 ! R22   R(16,17)                0.9754         estimate D2E/DX2                !
 ! R23   R(18,19)                0.9709         estimate D2E/DX2                !
 ! R24   R(20,21)                0.972          estimate D2E/DX2                !
 ! R25   R(20,29)                1.9444         estimate D2E/DX2                !
 ! R26   R(22,23)                0.9862         estimate D2E/DX2                !
 ! R27   R(23,28)                1.8292         estimate D2E/DX2                !
 ! R28   R(24,25)                1.8908         estimate D2E/DX2                !
 ! R29   R(24,26)                0.9783         estimate D2E/DX2                !
 ! R30   R(24,27)                0.9692         estimate D2E/DX2                !
 ! R31   R(28,29)                0.98           estimate D2E/DX2                !
 ! R32   R(28,30)                0.9692         estimate D2E/DX2                !
 ! A1    A(5,1,6)              107.8111         estimate D2E/DX2                !
 ! A2    A(5,1,11)             109.3829         estimate D2E/DX2                !
 ! A3    A(5,1,22)             108.5272         estimate D2E/DX2                !
 ! A4    A(6,1,11)             108.6667         estimate D2E/DX2                !
 ! A5    A(6,1,22)             112.6918         estimate D2E/DX2                !
 ! A6    A(11,1,22)            109.7033         estimate D2E/DX2                !
 ! A7    A(4,2,6)              110.3559         estimate D2E/DX2                !
 ! A8    A(4,2,9)              107.0862         estimate D2E/DX2                !
 ! A9    A(4,2,18)             108.1199         estimate D2E/DX2                !
 ! A10   A(6,2,9)              108.3945         estimate D2E/DX2                !
 ! A11   A(6,2,18)             112.0057         estimate D2E/DX2                !
 ! A12   A(9,2,18)             110.7682         estimate D2E/DX2                !
 ! A13   A(4,3,5)              117.6281         estimate D2E/DX2                !
 ! A14   A(4,3,26)              95.299          estimate D2E/DX2                !
 ! A15   A(5,3,26)             115.0098         estimate D2E/DX2                !
 ! A16   A(2,4,3)              112.9072         estimate D2E/DX2                !
 ! A17   A(2,4,7)              108.4064         estimate D2E/DX2                !
 ! A18   A(2,4,15)             108.27           estimate D2E/DX2                !
 ! A19   A(3,4,7)              102.9899         estimate D2E/DX2                !
 ! A20   A(3,4,15)             111.7905         estimate D2E/DX2                !
 ! A21   A(7,4,15)             112.4319         estimate D2E/DX2                !
 ! A22   A(1,5,3)              111.1456         estimate D2E/DX2                !
 ! A23   A(1,5,10)             107.4433         estimate D2E/DX2                !
 ! A24   A(1,5,12)             112.2769         estimate D2E/DX2                !
 ! A25   A(3,5,10)             105.276          estimate D2E/DX2                !
 ! A26   A(3,5,12)             112.6187         estimate D2E/DX2                !
 ! A27   A(10,5,12)            107.6312         estimate D2E/DX2                !
 ! A28   A(1,6,2)              108.9692         estimate D2E/DX2                !
 ! A29   A(1,6,8)              109.4088         estimate D2E/DX2                !
 ! A30   A(1,6,20)             113.0191         estimate D2E/DX2                !
 ! A31   A(2,6,8)              108.604          estimate D2E/DX2                !
 ! A32   A(2,6,20)             107.8848         estimate D2E/DX2                !
 ! A33   A(8,6,20)             108.8578         estimate D2E/DX2                !
 ! A34   A(5,12,13)            109.6173         estimate D2E/DX2                !
 ! A35   A(5,12,14)            109.5111         estimate D2E/DX2                !
 ! A36   A(5,12,16)            110.6773         estimate D2E/DX2                !
 ! A37   A(13,12,14)           107.4419         estimate D2E/DX2                !
 ! A38   A(13,12,16)           107.2633         estimate D2E/DX2                !
 ! A39   A(14,12,16)           112.2301         estimate D2E/DX2                !
 ! A40   A(4,15,25)            105.7819         estimate D2E/DX2                !
 ! A41   A(12,16,17)           106.7533         estimate D2E/DX2                !
 ! A42   A(2,18,19)            106.5343         estimate D2E/DX2                !
 ! A43   A(6,20,21)            106.3805         estimate D2E/DX2                !
 ! A44   A(6,20,29)            112.4076         estimate D2E/DX2                !
 ! A45   A(21,20,29)            89.3684         estimate D2E/DX2                !
 ! A46   A(1,22,23)            105.8052         estimate D2E/DX2                !
 ! A47   A(22,23,28)           156.1672         estimate D2E/DX2                !
 ! A48   A(25,24,26)            85.7686         estimate D2E/DX2                !
 ! A49   A(25,24,27)           121.0065         estimate D2E/DX2                !
 ! A50   A(26,24,27)           105.342          estimate D2E/DX2                !
 ! A51   A(15,25,24)           148.8443         estimate D2E/DX2                !
 ! A52   A(3,26,24)            141.8958         estimate D2E/DX2                !
 ! A53   A(23,28,29)            90.9427         estimate D2E/DX2                !
 ! A54   A(23,28,30)           116.7643         estimate D2E/DX2                !
 ! A55   A(29,28,30)           105.5214         estimate D2E/DX2                !
 ! A56   A(20,29,28)           145.7426         estimate D2E/DX2                !
 ! D1    D(6,1,5,3)            -37.0791         estimate D2E/DX2                !
 ! D2    D(6,1,5,10)            77.6065         estimate D2E/DX2                !
 ! D3    D(6,1,5,12)          -164.2412         estimate D2E/DX2                !
 ! D4    D(11,1,5,3)            80.9167         estimate D2E/DX2                !
 ! D5    D(11,1,5,10)         -164.3978         estimate D2E/DX2                !
 ! D6    D(11,1,5,12)          -46.2455         estimate D2E/DX2                !
 ! D7    D(22,1,5,3)          -159.4237         estimate D2E/DX2                !
 ! D8    D(22,1,5,10)          -44.7382         estimate D2E/DX2                !
 ! D9    D(22,1,5,12)           73.4141         estimate D2E/DX2                !
 ! D10   D(5,1,6,2)             70.0845         estimate D2E/DX2                !
 ! D11   D(5,1,6,8)            -48.5211         estimate D2E/DX2                !
 ! D12   D(5,1,6,20)          -169.9901         estimate D2E/DX2                !
 ! D13   D(11,1,6,2)           -48.3713         estimate D2E/DX2                !
 ! D14   D(11,1,6,8)          -166.9768         estimate D2E/DX2                !
 ! D15   D(11,1,6,20)           71.5542         estimate D2E/DX2                !
 ! D16   D(22,1,6,2)          -170.1736         estimate D2E/DX2                !
 ! D17   D(22,1,6,8)            71.2208         estimate D2E/DX2                !
 ! D18   D(22,1,6,20)          -50.2482         estimate D2E/DX2                !
 ! D19   D(5,1,22,23)         -155.8908         estimate D2E/DX2                !
 ! D20   D(6,1,22,23)           84.7821         estimate D2E/DX2                !
 ! D21   D(11,1,22,23)         -36.4318         estimate D2E/DX2                !
 ! D22   D(6,2,4,3)            -20.5016         estimate D2E/DX2                !
 ! D23   D(6,2,4,7)           -133.9425         estimate D2E/DX2                !
 ! D24   D(6,2,4,15)           103.8239         estimate D2E/DX2                !
 ! D25   D(9,2,4,3)           -138.287          estimate D2E/DX2                !
 ! D26   D(9,2,4,7)            108.2721         estimate D2E/DX2                !
 ! D27   D(9,2,4,15)           -13.9615         estimate D2E/DX2                !
 ! D28   D(18,2,4,3)           102.313          estimate D2E/DX2                !
 ! D29   D(18,2,4,7)           -11.1279         estimate D2E/DX2                !
 ! D30   D(18,2,4,15)         -133.3614         estimate D2E/DX2                !
 ! D31   D(4,2,6,1)            -39.0769         estimate D2E/DX2                !
 ! D32   D(4,2,6,8)             80.0317         estimate D2E/DX2                !
 ! D33   D(4,2,6,20)          -162.1296         estimate D2E/DX2                !
 ! D34   D(9,2,6,1)             77.9004         estimate D2E/DX2                !
 ! D35   D(9,2,6,8)           -162.991          estimate D2E/DX2                !
 ! D36   D(9,2,6,20)           -45.1523         estimate D2E/DX2                !
 ! D37   D(18,2,6,1)          -159.5899         estimate D2E/DX2                !
 ! D38   D(18,2,6,8)           -40.4813         estimate D2E/DX2                !
 ! D39   D(18,2,6,20)           77.3574         estimate D2E/DX2                !
 ! D40   D(4,2,18,19)         -179.2035         estimate D2E/DX2                !
 ! D41   D(6,2,18,19)          -57.3998         estimate D2E/DX2                !
 ! D42   D(9,2,18,19)           63.7495         estimate D2E/DX2                !
 ! D43   D(5,3,4,2)             56.5719         estimate D2E/DX2                !
 ! D44   D(5,3,4,7)            173.2687         estimate D2E/DX2                !
 ! D45   D(5,3,4,15)           -65.8031         estimate D2E/DX2                !
 ! D46   D(26,3,4,2)           178.4273         estimate D2E/DX2                !
 ! D47   D(26,3,4,7)           -64.8759         estimate D2E/DX2                !
 ! D48   D(26,3,4,15)           56.0523         estimate D2E/DX2                !
 ! D49   D(4,3,5,1)            -24.7134         estimate D2E/DX2                !
 ! D50   D(4,3,5,10)          -140.7415         estimate D2E/DX2                !
 ! D51   D(4,3,5,12)           102.2618         estimate D2E/DX2                !
 ! D52   D(26,3,5,1)          -135.7647         estimate D2E/DX2                !
 ! D53   D(26,3,5,10)          108.2072         estimate D2E/DX2                !
 ! D54   D(26,3,5,12)           -8.7895         estimate D2E/DX2                !
 ! D55   D(4,3,26,24)          -28.7099         estimate D2E/DX2                !
 ! D56   D(5,3,26,24)           95.1509         estimate D2E/DX2                !
 ! D57   D(2,4,15,25)          176.092          estimate D2E/DX2                !
 ! D58   D(3,4,15,25)          -58.9183         estimate D2E/DX2                !
 ! D59   D(7,4,15,25)           56.3546         estimate D2E/DX2                !
 ! D60   D(1,5,12,13)          172.477          estimate D2E/DX2                !
 ! D61   D(1,5,12,14)           54.8388         estimate D2E/DX2                !
 ! D62   D(1,5,12,16)          -69.4068         estimate D2E/DX2                !
 ! D63   D(3,5,12,13)           46.1067         estimate D2E/DX2                !
 ! D64   D(3,5,12,14)          -71.5315         estimate D2E/DX2                !
 ! D65   D(3,5,12,16)          164.2229         estimate D2E/DX2                !
 ! D66   D(10,5,12,13)         -69.4819         estimate D2E/DX2                !
 ! D67   D(10,5,12,14)         172.8799         estimate D2E/DX2                !
 ! D68   D(10,5,12,16)          48.6342         estimate D2E/DX2                !
 ! D69   D(1,6,20,21)           76.0433         estimate D2E/DX2                !
 ! D70   D(1,6,20,29)          -20.2013         estimate D2E/DX2                !
 ! D71   D(2,6,20,21)         -163.4112         estimate D2E/DX2                !
 ! D72   D(2,6,20,29)          100.3441         estimate D2E/DX2                !
 ! D73   D(8,6,20,21)          -45.7361         estimate D2E/DX2                !
 ! D74   D(8,6,20,29)         -141.9807         estimate D2E/DX2                !
 ! D75   D(5,12,16,17)          39.1927         estimate D2E/DX2                !
 ! D76   D(13,12,16,17)        158.735          estimate D2E/DX2                !
 ! D77   D(14,12,16,17)        -83.4842         estimate D2E/DX2                !
 ! D78   D(4,15,25,24)          23.2547         estimate D2E/DX2                !
 ! D79   D(6,20,29,28)          64.4859         estimate D2E/DX2                !
 ! D80   D(21,20,29,28)        -43.003          estimate D2E/DX2                !
 ! D81   D(1,22,23,28)         -30.5097         estimate D2E/DX2                !
 ! D82   D(22,23,28,29)        -12.9889         estimate D2E/DX2                !
 ! D83   D(22,23,28,30)         94.9525         estimate D2E/DX2                !
 ! D84   D(26,24,25,15)          6.0201         estimate D2E/DX2                !
 ! D85   D(27,24,25,15)        -99.3508         estimate D2E/DX2                !
 ! D86   D(25,24,26,3)          -0.6177         estimate D2E/DX2                !
 ! D87   D(27,24,26,3)         120.402          estimate D2E/DX2                !
 ! D88   D(23,28,29,20)        -21.7315         estimate D2E/DX2                !
 ! D89   D(30,28,29,20)       -139.8956         estimate D2E/DX2                !
 --------------------------------------------------------------------------------
 Trust Radius=3.00D-01 FncErr=1.00D-07 GrdErr=1.00D-06
 Number of steps in this run=    180 maximum allowed number of steps=    180.
 GradGradGradGradGradGradGradGradGradGradGradGradGradGradGradGradGradGrad

                          Input orientation:                          
 ---------------------------------------------------------------------
 Center     Atomic      Atomic             Coordinates (Angstroms)
 Number     Number       Type             X           Y           Z
 ---------------------------------------------------------------------
      1          6           0       -0.769559   -0.576938    0.143908
      2          6           0       -0.278883    1.849410   -0.073769
      3          8           0        1.448413    0.280161    0.781020
      4          6           0        1.170397    1.326112   -0.165218
      5          6           0        0.606317   -0.897018    0.747207
      6          6           0       -1.171536    0.821493    0.612163
      7          1           0        1.848539    2.128456    0.148057
      8          1           0       -1.024983    0.898994    1.697410
      9          1           0       -0.637797    1.988346   -1.103792
     10          1           0        0.449125   -1.170263    1.798090
     11          1           0       -0.695001   -0.572846   -0.952885
     12          6           0        1.282824   -2.086701    0.053928
     13          1           0        2.309010   -2.192946    0.423445
     14          1           0        1.340085   -1.897023   -1.030279
     15          8           0        1.404536    0.912929   -1.478145
     16          8           0        0.601572   -3.292968    0.351894
     17          1           0       -0.351668   -3.086332    0.346097
     18          8           0       -0.258656    3.086283    0.623553
     19          1           0       -1.180043    3.387378    0.678901
     20          8           0       -2.541304    1.147695    0.302438
     21          1           0       -3.089662    0.666034    0.944332
     22          8           0       -1.691163   -1.581994    0.559220
     23          1           0       -2.406975   -1.586864   -0.119089
     24          8           0        3.899664    0.059435   -0.597534
     25          1           0        2.351998    0.647992   -1.510497
     26          1           0        3.321359   -0.010127    0.188473
     27          1           0        4.598789    0.682231   -0.347198
     28          8           0       -3.514178   -0.873482   -1.388471
     29          1           0       -3.265124    0.035060   -1.118347
     30          1           0       -3.230554   -0.956557   -2.311470
 ---------------------------------------------------------------------
                    Distance matrix (angstroms):
                    1          2          3          4          5
     1  C    0.000000
     2  C    2.485017   0.000000
     3  O    2.461693   2.485308   0.000000
     4  C    2.735066   1.543573   1.437593   0.000000
     5  C    1.536052   3.000075   1.447764   2.468403   0.000000
     6  C    1.528548   1.524449   2.680613   2.518653   2.476344
     7  H    3.764786   2.157081   1.994226   1.096254   3.324995
     8  H    2.158005   2.144069   2.709320   2.910585   2.605702
     9  H    2.855661   1.099577   3.289785   2.142205   3.646826
    10  H    2.138584   3.626607   2.033897   3.256793   1.097145
    11  H    1.099332   2.610234   2.885874   2.775999   2.165370
    12  C    2.549462   4.236532   2.481556   3.421689   1.534159
    13  H    3.488153   4.825459   2.642867   3.745228   2.164120
    14  H    2.751715   4.191865   2.834196   3.341515   2.167460
    15  O    3.094745   2.383940   2.346518   1.396180   2.977458
    16  O    3.049603   5.234543   3.697099   4.682613   2.428347
    17  H    2.551974   4.954103   3.842229   4.695507   2.423163
    18  O    3.729647   1.420043   3.288343   2.400532   4.078009
    19  H    4.021258   1.934928   4.071119   3.238197   4.642391
    20  O    2.477614   2.398434   4.110900   3.745298   3.779707
    21  H    2.751097   3.215181   4.557378   4.451394   4.017742
    22  O    1.425474   3.764272   3.657014   4.143720   2.404776
    23  H    1.941713   4.042129   4.377213   4.613583   3.210340
    24  O    4.770362   4.575871   2.820951   3.039781   3.683648
    25  H    3.739201   3.229416   2.490545   1.914629   3.245256
    26  H    4.130239   4.060590   1.985776   2.556808   2.910363
    27  H    5.535870   5.022823   3.370372   3.493075   4.430754
    28  O    3.157381   4.428286   5.537589   5.317876   4.641137
    29  H    2.862809   3.647005   5.087740   4.716897   4.397399
    30  H    3.497069   4.646840   5.743318   5.402346   4.907202
                    6          7          8          9         10
     6  C    0.000000
     7  H    3.323312   0.000000
     8  H    1.097837   3.488438   0.000000
     9  H    2.142644   2.787225   3.030402   0.000000
    10  H    2.828437   3.944935   2.542628   4.424831   0.000000
    11  H    2.149568   3.870233   3.049470   2.566272   3.038716
    12  C    3.846180   4.253991   4.115991   4.651356   2.139396
    13  H    4.608325   4.354582   4.722138   5.338476   2.528775
    14  H    4.049220   4.225101   4.566349   4.360449   3.053140
    15  O    3.318719   2.078263   3.998363   2.338330   3.998276
    16  O    4.487810   5.566715   4.693468   5.616701   2.573053
    17  H    4.001758   5.663404   4.261716   5.285490   2.533944
    18  O    2.441875   2.363007   2.554341   2.081570   4.471988
    19  H    2.566767   3.322497   2.693225   2.330089   4.967783
    20  O    1.441736   4.500716   2.075338   2.511477   4.068485
    21  H    1.952873   5.211388   2.210044   3.457595   4.077242
    22  O    2.459586   5.144510   2.809728   4.077072   2.507021
    23  H    2.803787   5.655472   3.374768   4.108742   3.465031
    24  O    5.268887   3.007302   5.497615   4.956364   4.376916
    25  H    4.117169   2.279484   4.664512   3.301641   4.227733
    26  H    4.588814   2.596992   4.689785   4.619390   3.490918
    27  H    5.851189   3.146541   5.987839   5.449789   5.025307
    28  O    3.516170   6.334926   4.342859   4.067514   5.094116
    29  H    2.827765   5.668830   3.700419   3.273895   4.873813
    30  H    3.993576   6.431467   4.937482   4.105281   5.520343
                   11         12         13         14         15
    11  H    0.000000
    12  C    2.686489   0.000000
    13  H    3.680094   1.095851   0.000000
    14  H    2.429199   1.102162   1.771920   0.000000
    15  O    2.625163   3.370436   3.752410   2.846150   0.000000
    16  O    3.283689   1.417028   2.032366   2.098682   4.656540
    17  H    2.850060   1.938089   2.807727   2.484129   4.733519
    18  O    4.008089   5.427743   5.873943   5.488576   3.450625
    19  H    4.310611   6.035051   6.586256   6.098954   4.178013
    20  O    2.818676   5.014681   5.890677   5.109953   4.335348
    21  H    3.296765   5.242996   6.131130   5.485527   5.111474
    22  O    2.072964   3.058537   4.048837   3.437181   4.467533
    23  H    2.157383   3.727518   4.785624   3.868711   4.756429
    24  O    4.651559   3.446470   2.940374   3.250606   2.780214
    25  H    3.329501   3.327026   3.436991   2.780590   0.984339
    26  H    4.213134   2.913055   2.417594   2.995193   2.702565
    27  H    5.474147   4.338607   3.755479   4.211686   3.396397
    28  O    2.868427   5.153993   6.239675   4.973913   5.233837
    29  H    2.646216   5.153633   6.197750   4.994862   4.765064
    30  H    2.902071   5.219475   6.300412   4.839077   5.066899
                   16         17         18         19         20
    16  O    0.000000
    17  H    0.975397   0.000000
    18  O    6.442719   6.179548   0.000000
    19  H    6.921568   6.534974   0.970915   0.000000
    20  O    5.440552   4.766906   3.011930   2.647817   0.000000
    21  H    5.445171   4.683455   3.738328   3.335088   0.971968
    22  O    2.868283   2.025513   4.883546   4.997022   2.870519
    23  H    3.490555   2.586327   5.196643   5.185097   2.770116
    24  O    4.797648   5.372161   5.286255   6.205475   6.593961
    25  H    4.697197   4.970103   4.161123   4.977250   5.242217
    26  H    4.266262   4.793643   4.753268   5.660935   5.976986
    27  H    5.680553   6.260172   5.506051   6.462631   7.184679
    28  O    5.081553   4.231655   5.506941   5.279881   2.809059
    29  H    5.309305   4.513968   4.624179   4.337707   1.944351
    30  H    5.218957   4.459438   5.813011   5.658329   3.425705
                   21         22         23         24         25
    21  H    0.000000
    22  O    2.675395   0.000000
    23  H    2.583113   0.986161   0.000000
    24  O    7.183035   5.940515   6.535511   0.000000
    25  H    5.969772   5.060012   5.438605   1.890812   0.000000
    26  H    6.490740   5.266270   5.949328   0.978306   2.063802
    27  H    7.796191   6.746244   7.367602   0.969185   2.530318
    28  O    2.827064   2.760231   1.829247   7.514051   6.061501
    29  H    2.164153   2.811841   2.089396   7.183734   5.664056
    30  H    3.640453   3.316890   2.425305   7.403366   5.863533
                   26         27         28         29         30
    26  H    0.000000
    27  H    1.548590   0.000000
    28  O    7.068005   8.326147   0.000000
    29  H    6.715026   7.928091   0.980022   0.000000
    30  H    7.076228   8.236662   0.969160   1.551787   0.000000
 Stoichiometry    C6H16O8
 Framework group  C1[X(C6H16O8)]
 Deg. of freedom    84
 Full point group                 C1      NOp   1
 Largest Abelian subgroup         C1      NOp   1
 Largest concise Abelian subgroup C1      NOp   1
                         Standard orientation:                         
 ---------------------------------------------------------------------
 Center     Atomic      Atomic             Coordinates (Angstroms)
 Number     Number       Type             X           Y           Z
 ---------------------------------------------------------------------
      1          6           0       -0.770986    0.572491   -0.153629
      2          6           0       -0.280310   -1.853857    0.064048
      3          8           0        1.446986   -0.284608   -0.790741
      4          6           0        1.168970   -1.330559    0.155497
      5          6           0        0.604890    0.892571   -0.756928
      6          6           0       -1.172963   -0.825940   -0.621884
      7          1           0        1.847112   -2.132903   -0.157778
      8          1           0       -1.026410   -0.903441   -1.707131
      9          1           0       -0.639224   -1.992793    1.094071
     10          1           0        0.447698    1.165816   -1.807811
     11          1           0       -0.696428    0.568399    0.943164
     12          6           0        1.281397    2.082254   -0.063649
     13          1           0        2.307583    2.188499   -0.433166
     14          1           0        1.338658    1.892576    1.020558
     15          8           0        1.403109   -0.917376    1.468424
     16          8           0        0.600145    3.288521   -0.361615
     17          1           0       -0.353095    3.081885   -0.355818
     18          8           0       -0.260083   -3.090730   -0.633274
     19          1           0       -1.181470   -3.391825   -0.688622
     20          8           0       -2.542731   -1.152142   -0.312159
     21          1           0       -3.091089   -0.670481   -0.954053
     22          8           0       -1.692590    1.577547   -0.568941
     23          1           0       -2.408402    1.582417    0.109368
     24          8           0        3.898237   -0.063882    0.587813
     25          1           0        2.350571   -0.652439    1.500776
     26          1           0        3.319932    0.005680   -0.198194
     27          1           0        4.597362   -0.686678    0.337477
     28          8           0       -3.515605    0.869035    1.378750
     29          1           0       -3.266551   -0.039507    1.108626
     30          1           0       -3.231981    0.952110    2.301749
 ---------------------------------------------------------------------
 Rotational constants (GHZ):      0.6986617      0.5354214      0.3580793
 Standard basis: 6-31G(d) (6D, 7F)
 There are   242 symmetry adapted cartesian basis functions of A   symmetry.
 There are   242 symmetry adapted basis functions of A   symmetry.
   242 basis functions,   456 primitive gaussians,   242 cartesian basis functions
    58 alpha electrons       58 beta electrons
       nuclear repulsion energy      1107.7137858349 Hartrees.
 NAtoms=   30 NActive=   30 NUniq=   30 SFac= 1.00D+00 NAtFMM=   60 NAOKFM=F Big=F
 Integral buffers will be    131072 words long.
 Raffenetti 2 integral format.
 Two-electron integral symmetry is turned on.
 One-electron integrals computed using PRISM.
 NBasis=   242 RedAO= T EigKep=  1.27D-03  NBF=   242
 NBsUse=   242 1.00D-06 EigRej= -1.00D+00 NBFU=   242
 ExpMin= 1.61D-01 ExpMax= 5.48D+03 ExpMxC= 8.25D+02 IAcc=1 IRadAn=         1 AccDes= 0.00D+00
 Harris functional with IExCor=  402 and IRadAn=       1 diagonalized for initial guess.
 HarFok:  IExCor=  402 AccDes= 0.00D+00 IRadAn=         1 IDoV= 1 UseB2=F ITyADJ=14
 ICtDFT=  3500011 ScaDFX=  1.000000  1.000000  1.000000  1.000000
 FoFCou: FMM=F IPFlag=           0 FMFlag=      100000 FMFlg1=           0
         NFxFlg=           0 DoJE=T BraDBF=F KetDBF=T FulRan=T
         wScrn=  0.000000 ICntrl=     500 IOpCl=  0 I1Cent=   200000004 NGrid=           0
         NMat0=    1 NMatS0=      1 NMatT0=    0 NMatD0=    1 NMtDS0=    0 NMtDT0=    0
 Petite list used in FoFCou.
 Requested convergence on RMS density matrix=1.00D-08 within 128 cycles.
 Requested convergence on MAX density matrix=1.00D-06.
 Requested convergence on             energy=1.00D-06.
 No special actions if energy rises.
 Integral accuracy reduced to 1.0D-05 until final iterations.
 Initial convergence to 1.0D-05 achieved.  Increase integral accuracy.
 SCF Done:  E(RB3LYP) =  -839.997852088     A.U. after   14 cycles
            NFock= 14  Conv=0.40D-08     -V/T= 2.0085

 **********************************************************************

            Population analysis using the SCF density.

 **********************************************************************

 Orbital symmetries:
       Occupied  (A) (A) (A) (A) (A) (A) (A) (A) (A) (A) (A) (A)
                 (A) (A) (A) (A) (A) (A) (A) (A) (A) (A) (A) (A)
                 (A) (A) (A) (A) (A) (A) (A) (A) (A) (A) (A) (A)
                 (A) (A) (A) (A) (A) (A) (A) (A) (A) (A) (A) (A)
                 (A) (A) (A) (A) (A) (A) (A) (A) (A) (A)
       Virtual   (A) (A) (A) (A) (A) (A) (A) (A) (A) (A) (A) (A)
                 (A) (A) (A) (A) (A) (A) (A) (A) (A) (A) (A) (A)
                 (A) (A) (A) (A) (A) (A) (A) (A) (A) (A) (A) (A)
                 (A) (A) (A) (A) (A) (A) (A) (A) (A) (A) (A) (A)
                 (A) (A) (A) (A) (A) (A) (A) (A) (A) (A) (A) (A)
                 (A) (A) (A) (A) (A) (A) (A) (A) (A) (A) (A) (A)
                 (A) (A) (A) (A) (A) (A) (A) (A) (A) (A) (A) (A)
                 (A) (A) (A) (A) (A) (A) (A) (A) (A) (A) (A) (A)
                 (A) (A) (A) (A) (A) (A) (A) (A) (A) (A) (A) (A)
                 (A) (A) (A) (A) (A) (A) (A) (A) (A) (A) (A) (A)
                 (A) (A) (A) (A) (A) (A) (A) (A) (A) (A) (A) (A)
                 (A) (A) (A) (A) (A) (A) (A) (A) (A) (A) (A) (A)
                 (A) (A) (A) (A) (A) (A) (A) (A) (A) (A) (A) (A)
                 (A) (A) (A) (A) (A) (A) (A) (A) (A) (A) (A) (A)
                 (A) (A) (A) (A) (A) (A) (A) (A) (A) (A) (A) (A)
                 (A) (A) (A) (A)
 The electronic state is 1-A.
 Alpha  occ. eigenvalues --  -19.18886 -19.17068 -19.17045 -19.16003 -19.15762
 Alpha  occ. eigenvalues --  -19.15687 -19.14865 -19.12392 -10.29276 -10.25190
 Alpha  occ. eigenvalues --  -10.24834 -10.24804 -10.24369 -10.22151  -1.07540
 Alpha  occ. eigenvalues --   -1.05964  -1.03452  -1.02595  -1.02304  -1.01617
 Alpha  occ. eigenvalues --   -1.00375  -0.99676  -0.79616  -0.76903  -0.68610
 Alpha  occ. eigenvalues --   -0.65293  -0.62548  -0.57893  -0.55898  -0.55602
 Alpha  occ. eigenvalues --   -0.54609  -0.53614  -0.52269  -0.51403  -0.49544
 Alpha  occ. eigenvalues --   -0.47335  -0.45796  -0.44642  -0.44144  -0.43221
 Alpha  occ. eigenvalues --   -0.41726  -0.40837  -0.39992  -0.39748  -0.38397
 Alpha  occ. eigenvalues --   -0.37871  -0.37046  -0.34722  -0.33688  -0.32751
 Alpha  occ. eigenvalues --   -0.32088  -0.31858  -0.30767  -0.29894  -0.28858
 Alpha  occ. eigenvalues --   -0.28125  -0.26185  -0.24807
 Alpha virt. eigenvalues --    0.03226   0.05343   0.06448   0.08117   0.08503
 Alpha virt. eigenvalues --    0.11863   0.12062   0.13088   0.13886   0.14666
 Alpha virt. eigenvalues --    0.15258   0.15598   0.16270   0.16792   0.18358
 Alpha virt. eigenvalues --    0.18804   0.19686   0.20566   0.22753   0.23549
 Alpha virt. eigenvalues --    0.23911   0.26281   0.26971   0.28014   0.30135
 Alpha virt. eigenvalues --    0.30806   0.31716   0.32489   0.51295   0.53259
 Alpha virt. eigenvalues --    0.54684   0.55162   0.56194   0.58549   0.59796
 Alpha virt. eigenvalues --    0.60770   0.61744   0.63095   0.65365   0.67227
 Alpha virt. eigenvalues --    0.69320   0.71604   0.73501   0.74406   0.76032
 Alpha virt. eigenvalues --    0.76511   0.77830   0.78490   0.80520   0.81513
 Alpha virt. eigenvalues --    0.82404   0.83357   0.83884   0.84093   0.85371
 Alpha virt. eigenvalues --    0.86136   0.86950   0.88074   0.89048   0.89389
 Alpha virt. eigenvalues --    0.89995   0.91897   0.92108   0.93867   0.96156
 Alpha virt. eigenvalues --    0.96768   0.97682   0.98061   1.01123   1.02068
 Alpha virt. eigenvalues --    1.02872   1.04167   1.04781   1.06603   1.08848
 Alpha virt. eigenvalues --    1.09615   1.10585   1.11375   1.12178   1.14475
 Alpha virt. eigenvalues --    1.15137   1.18536   1.19797   1.20301   1.24857
 Alpha virt. eigenvalues --    1.28821   1.30320   1.32303   1.33778   1.36489
 Alpha virt. eigenvalues --    1.38352   1.41017   1.43614   1.44729   1.49036
 Alpha virt. eigenvalues --    1.51115   1.54195   1.54532   1.58495   1.62447
 Alpha virt. eigenvalues --    1.63330   1.64489   1.65270   1.67855   1.68584
 Alpha virt. eigenvalues --    1.70170   1.70369   1.71135   1.72670   1.72878
 Alpha virt. eigenvalues --    1.75909   1.77140   1.77817   1.78905   1.79031
 Alpha virt. eigenvalues --    1.81178   1.81757   1.83000   1.84665   1.87993
 Alpha virt. eigenvalues --    1.89154   1.90288   1.91958   1.92735   1.94252
 Alpha virt. eigenvalues --    1.94968   1.98320   2.02365   2.03331   2.05325
 Alpha virt. eigenvalues --    2.07423   2.08312   2.09645   2.11636   2.16253
 Alpha virt. eigenvalues --    2.19867   2.22708   2.24088   2.25110   2.27676
 Alpha virt. eigenvalues --    2.28695   2.30314   2.31422   2.33766   2.38509
 Alpha virt. eigenvalues --    2.41270   2.46824   2.48252   2.50102   2.51167
 Alpha virt. eigenvalues --    2.52554   2.53682   2.54584   2.55213   2.56881
 Alpha virt. eigenvalues --    2.59772   2.61088   2.61977   2.65590   2.67376
 Alpha virt. eigenvalues --    2.74689   2.78768   2.85275   2.86412   2.90750
 Alpha virt. eigenvalues --    2.92740   2.97456   2.97708   3.08010   3.10826
 Alpha virt. eigenvalues --    3.68053   3.69908   3.75893   3.82684   3.87590
 Alpha virt. eigenvalues --    3.93187   4.00669   4.11185   4.26719   4.39016
 Alpha virt. eigenvalues --    4.47372   4.52854   4.64350   4.84289
          Condensed to atoms (all electrons):
               1          2          3          4          5          6
     1  C    5.104881  -0.030735  -0.033513  -0.000112   0.310456   0.260685
     2  C   -0.030735   4.942628  -0.027239   0.300477  -0.014347   0.300761
     3  O   -0.033513  -0.027239   8.388371   0.187851   0.163955  -0.000190
     4  C   -0.000112   0.300477   0.187851   4.766162  -0.023492  -0.031354
     5  C    0.310456  -0.014347   0.163955  -0.023492   4.949442  -0.043829
     6  C    0.260685   0.300761  -0.000190  -0.031354  -0.043829   5.086799
     7  H   -0.000197  -0.054674  -0.050557   0.377933   0.005265   0.003571
     8  H   -0.052473  -0.033138   0.002481  -0.005009  -0.002031   0.351769
     9  H   -0.004160   0.355924   0.002979  -0.056495   0.001241  -0.047304
    10  H   -0.047321   0.001009  -0.033433   0.002616   0.363210  -0.009598
    11  H    0.348938  -0.002127   0.000389  -0.002226  -0.036309  -0.061866
    12  C   -0.031787  -0.000361  -0.029638  -0.000377   0.345215   0.005009
    13  H    0.005675  -0.000014  -0.000341  -0.000334  -0.030363  -0.000150
    14  H   -0.016214  -0.000003   0.003040   0.000605  -0.040848  -0.000076
    15  O   -0.003007  -0.043617  -0.064516   0.217763   0.007276  -0.000013
    16  O   -0.000093  -0.000004   0.001422   0.000027  -0.029986   0.000032
    17  H    0.000553  -0.000028   0.000073   0.000024  -0.012007   0.000642
    18  O    0.003816   0.222124   0.000625  -0.031789   0.000061  -0.033768
    19  H    0.000514  -0.028371  -0.000163   0.007147  -0.000040  -0.005502
    20  O   -0.038971  -0.037769   0.000094   0.002322   0.002394   0.200343
    21  H   -0.004123   0.006897   0.000012  -0.000255   0.000040  -0.019973
    22  O    0.187710   0.002439   0.001064   0.000040  -0.037292  -0.032758
    23  H   -0.015889  -0.000156  -0.000063   0.000027   0.004640  -0.001895
    24  O   -0.000036   0.000198  -0.015575   0.010058  -0.000146   0.000001
    25  H    0.000195   0.006597   0.003191  -0.019769  -0.001395  -0.000327
    26  H    0.000514   0.000662   0.043861  -0.003902  -0.002703  -0.000022
    27  H    0.000000   0.000013   0.000382   0.000300   0.000044  -0.000001
    28  O    0.006107  -0.000047  -0.000000   0.000006   0.000210  -0.000773
    29  H   -0.000600  -0.000402  -0.000000   0.000007   0.000078  -0.004168
    30  H    0.000017   0.000004  -0.000000  -0.000000   0.000016   0.000012
               7          8          9         10         11         12
     1  C   -0.000197  -0.052473  -0.004160  -0.047321   0.348938  -0.031787
     2  C   -0.054674  -0.033138   0.355924   0.001009  -0.002127  -0.000361
     3  O   -0.050557   0.002481   0.002979  -0.033433   0.000389  -0.029638
     4  C    0.377933  -0.005009  -0.056495   0.002616  -0.002226  -0.000377
     5  C    0.005265  -0.002031   0.001241   0.363210  -0.036309   0.345215
     6  C    0.003571   0.351769  -0.047304  -0.009598  -0.061866   0.005009
     7  H    0.601081  -0.000034   0.003251  -0.000207   0.000279  -0.000074
     8  H   -0.000034   0.610950   0.007160   0.004206   0.006643   0.000149
     9  H    0.003251   0.007160   0.615965  -0.000005   0.005759   0.000023
    10  H   -0.000207   0.004206  -0.000005   0.601242   0.006700  -0.055561
    11  H    0.000279   0.006643   0.005759   0.006700   0.626412  -0.009717
    12  C   -0.000074   0.000149   0.000023  -0.055561  -0.009717   4.876013
    13  H   -0.000007   0.000005  -0.000000  -0.006428   0.000001   0.366921
    14  H    0.000069  -0.000003  -0.000023   0.007177   0.006797   0.347192
    15  O   -0.037762   0.000086   0.007411  -0.000163   0.007763  -0.000579
    16  O    0.000001  -0.000011  -0.000000   0.007670  -0.000001   0.258607
    17  H    0.000000  -0.000004   0.000001  -0.000279   0.000357  -0.034654
    18  O    0.006815   0.002448  -0.036241   0.000007   0.000011  -0.000000
    19  H   -0.000323  -0.000575  -0.004034  -0.000001  -0.000008   0.000000
    20  O   -0.000063  -0.039002  -0.001897  -0.000055  -0.000905  -0.000039
    21  H    0.000006  -0.005872  -0.000136   0.000024   0.000299  -0.000004
    22  O    0.000004   0.000539  -0.000093   0.002030  -0.037787   0.001366
    23  H   -0.000000  -0.000255  -0.000032  -0.000112  -0.005460  -0.000285
    24  O    0.002382   0.000000   0.000004  -0.000017   0.000001   0.000759
    25  H   -0.005625   0.000010   0.000160   0.000023  -0.000095   0.000685
    26  H   -0.001634  -0.000009  -0.000037   0.000054  -0.000028  -0.001012
    27  H    0.000359   0.000000  -0.000000   0.000003   0.000000  -0.000036
    28  O    0.000000  -0.000081  -0.000069  -0.000001   0.004371  -0.000004
    29  H   -0.000000   0.000748   0.000818   0.000003   0.001698  -0.000001
    30  H    0.000000   0.000004   0.000030   0.000000   0.000935  -0.000003
              13         14         15         16         17         18
     1  C    0.005675  -0.016214  -0.003007  -0.000093   0.000553   0.003816
     2  C   -0.000014  -0.000003  -0.043617  -0.000004  -0.000028   0.222124
     3  O   -0.000341   0.003040  -0.064516   0.001422   0.000073   0.000625
     4  C   -0.000334   0.000605   0.217763   0.000027   0.000024  -0.031789
     5  C   -0.030363  -0.040848   0.007276  -0.029986  -0.012007   0.000061
     6  C   -0.000150  -0.000076  -0.000013   0.000032   0.000642  -0.033768
     7  H   -0.000007   0.000069  -0.037762   0.000001   0.000000   0.006815
     8  H    0.000005  -0.000003   0.000086  -0.000011  -0.000004   0.002448
     9  H   -0.000000  -0.000023   0.007411  -0.000000   0.000001  -0.036241
    10  H   -0.006428   0.007177  -0.000163   0.007670  -0.000279   0.000007
    11  H    0.000001   0.006797   0.007763  -0.000001   0.000357   0.000011
    12  C    0.366921   0.347192  -0.000579   0.258607  -0.034654  -0.000000
    13  H    0.599675  -0.050499   0.000095  -0.038026   0.005531  -0.000000
    14  H   -0.050499   0.644469   0.005586  -0.037046  -0.001052   0.000000
    15  O    0.000095   0.005586   8.356554   0.000013   0.000001   0.000785
    16  O   -0.038026  -0.037046   0.000013   8.262160   0.230692  -0.000000
    17  H    0.005531  -0.001052   0.000001   0.230692   0.356230   0.000000
    18  O   -0.000000   0.000000   0.000785  -0.000000   0.000000   8.271075
    19  H   -0.000000   0.000000  -0.000154   0.000000  -0.000000   0.236178
    20  O    0.000000  -0.000001  -0.000017  -0.000000   0.000003  -0.000433
    21  H    0.000000  -0.000000   0.000001   0.000001  -0.000012  -0.000215
    22  O   -0.000169   0.000328   0.000036  -0.012358   0.041588  -0.000012
    23  H    0.000014  -0.000020  -0.000004   0.000280   0.000102   0.000000
    24  O    0.001878   0.000176  -0.020761   0.000005  -0.000000  -0.000000
    25  H   -0.000143   0.000513   0.212315  -0.000001   0.000000  -0.000112
    26  H    0.003618  -0.000257   0.002733  -0.000007   0.000002  -0.000007
    27  H   -0.000061   0.000017   0.000799  -0.000000   0.000000  -0.000000
    28  O   -0.000000  -0.000002  -0.000000  -0.000000   0.000005   0.000000
    29  H    0.000000  -0.000001  -0.000003   0.000000  -0.000003  -0.000005
    30  H    0.000000   0.000000  -0.000001   0.000000  -0.000006  -0.000000
              19         20         21         22         23         24
     1  C    0.000514  -0.038971  -0.004123   0.187710  -0.015889  -0.000036
     2  C   -0.028371  -0.037769   0.006897   0.002439  -0.000156   0.000198
     3  O   -0.000163   0.000094   0.000012   0.001064  -0.000063  -0.015575
     4  C    0.007147   0.002322  -0.000255   0.000040   0.000027   0.010058
     5  C   -0.000040   0.002394   0.000040  -0.037292   0.004640  -0.000146
     6  C   -0.005502   0.200343  -0.019973  -0.032758  -0.001895   0.000001
     7  H   -0.000323  -0.000063   0.000006   0.000004  -0.000000   0.002382
     8  H   -0.000575  -0.039002  -0.005872   0.000539  -0.000255   0.000000
     9  H   -0.004034  -0.001897  -0.000136  -0.000093  -0.000032   0.000004
    10  H   -0.000001  -0.000055   0.000024   0.002030  -0.000112  -0.000017
    11  H   -0.000008  -0.000905   0.000299  -0.037787  -0.005460   0.000001
    12  C    0.000000  -0.000039  -0.000004   0.001366  -0.000285   0.000759
    13  H   -0.000000   0.000000   0.000000  -0.000169   0.000014   0.001878
    14  H    0.000000  -0.000001  -0.000000   0.000328  -0.000020   0.000176
    15  O   -0.000154  -0.000017   0.000001   0.000036  -0.000004  -0.020761
    16  O    0.000000  -0.000000   0.000001  -0.012358   0.000280   0.000005
    17  H   -0.000000   0.000003  -0.000012   0.041588   0.000102  -0.000000
    18  O    0.236178  -0.000433  -0.000215  -0.000012   0.000000  -0.000000
    19  H    0.384586   0.008904  -0.000439  -0.000001  -0.000000  -0.000000
    20  O    0.008904   8.292672   0.229081  -0.001888   0.002818   0.000000
    21  H   -0.000439   0.229081   0.371850   0.009738   0.000160   0.000000
    22  O   -0.000001  -0.001888   0.009738   8.372408   0.206710   0.000000
    23  H   -0.000000   0.002818   0.000160   0.206710   0.316680  -0.000000
    24  O   -0.000000   0.000000   0.000000   0.000000  -0.000000   8.318407
    25  H    0.000009   0.000001  -0.000000  -0.000002   0.000000   0.058368
    26  H    0.000001   0.000000  -0.000000  -0.000002   0.000000   0.206525
    27  H    0.000000  -0.000000  -0.000000  -0.000000   0.000000   0.239893
    28  O    0.000001  -0.017000   0.002656  -0.024523   0.067238   0.000000
    29  H   -0.000005   0.055195  -0.005784   0.002765  -0.009080  -0.000000
    30  H   -0.000000   0.000562  -0.000066   0.001073  -0.003329  -0.000000
              25         26         27         28         29         30
     1  C    0.000195   0.000514   0.000000   0.006107  -0.000600   0.000017
     2  C    0.006597   0.000662   0.000013  -0.000047  -0.000402   0.000004
     3  O    0.003191   0.043861   0.000382  -0.000000  -0.000000  -0.000000
     4  C   -0.019769  -0.003902   0.000300   0.000006   0.000007  -0.000000
     5  C   -0.001395  -0.002703   0.000044   0.000210   0.000078   0.000016
     6  C   -0.000327  -0.000022  -0.000001  -0.000773  -0.004168   0.000012
     7  H   -0.005625  -0.001634   0.000359   0.000000  -0.000000   0.000000
     8  H    0.000010  -0.000009   0.000000  -0.000081   0.000748   0.000004
     9  H    0.000160  -0.000037  -0.000000  -0.000069   0.000818   0.000030
    10  H    0.000023   0.000054   0.000003  -0.000001   0.000003   0.000000
    11  H   -0.000095  -0.000028   0.000000   0.004371   0.001698   0.000935
    12  C    0.000685  -0.001012  -0.000036  -0.000004  -0.000001  -0.000003
    13  H   -0.000143   0.003618  -0.000061  -0.000000   0.000000   0.000000
    14  H    0.000513  -0.000257   0.000017  -0.000002  -0.000001   0.000000
    15  O    0.212315   0.002733   0.000799  -0.000000  -0.000003  -0.000001
    16  O   -0.000001  -0.000007  -0.000000  -0.000000   0.000000   0.000000
    17  H    0.000000   0.000002   0.000000   0.000005  -0.000003  -0.000006
    18  O   -0.000112  -0.000007  -0.000000   0.000000  -0.000005  -0.000000
    19  H    0.000009   0.000001   0.000000   0.000001  -0.000005  -0.000000
    20  O    0.000001   0.000000  -0.000000  -0.017000   0.055195   0.000562
    21  H   -0.000000  -0.000000  -0.000000   0.002656  -0.005784  -0.000066
    22  O   -0.000002  -0.000002  -0.000000  -0.024523   0.002765   0.001073
    23  H    0.000000   0.000000   0.000000   0.067238  -0.009080  -0.003329
    24  O    0.058368   0.206525   0.239893   0.000000  -0.000000  -0.000000
    25  H    0.323228  -0.007962  -0.002372  -0.000000   0.000000   0.000000
    26  H   -0.007962   0.345462  -0.012085  -0.000000   0.000000   0.000000
    27  H   -0.002372  -0.012085   0.373033  -0.000000   0.000000   0.000000
    28  O   -0.000000  -0.000000  -0.000000   8.318000   0.206443   0.242412
    29  H    0.000000   0.000000   0.000000   0.206443   0.345662  -0.012476
    30  H    0.000000   0.000000   0.000000   0.242412  -0.012476   0.365039
 Mulliken charges:
               1
     1  C    0.049170
     2  C    0.133299
     3  O   -0.544564
     4  C    0.301751
     5  C    0.121246
     6  C    0.083944
     7  H    0.150144
     8  H    0.151299
     9  H    0.149800
    10  H    0.157206
    11  H    0.139174
    12  C   -0.037809
    13  H    0.143122
    14  H    0.130074
    15  O   -0.648621
    16  O   -0.643377
    17  H    0.412241
    18  O   -0.641362
    19  H    0.402278
    20  O   -0.656350
    21  H    0.416114
    22  O   -0.682953
    23  H    0.437909
    24  O   -0.802120
    25  H    0.432507
    26  H    0.426236
    27  H    0.399712
    28  O   -0.804949
    29  H    0.419109
    30  H    0.405773
 Sum of Mulliken charges =  -0.00000
 Mulliken charges with hydrogens summed into heavy atoms:
               1
     1  C    0.188344
     2  C    0.283098
     3  O   -0.544564
     4  C    0.451895
     5  C    0.278452
     6  C    0.235243
    12  C    0.235386
    15  O   -0.216115
    16  O   -0.231135
    18  O   -0.239084
    20  O   -0.240237
    22  O   -0.245044
    24  O    0.023827
    28  O    0.019933
 Electronic spatial extent (au):  <R**2>=           3207.4907
 Charge=             -0.0000 electrons
 Dipole moment (field-independent basis, Debye):
    X=             -1.2487    Y=             -3.1894    Z=              0.2764  Tot=              3.4362
 Quadrupole moment (field-independent basis, Debye-Ang):
   XX=            -72.7924   YY=            -97.0827   ZZ=            -80.8475
   XY=             -2.5572   XZ=             -3.7107   YZ=              3.1556
 Traceless Quadrupole moment (field-independent basis, Debye-Ang):
   XX=             10.7818   YY=            -13.5085   ZZ=              2.7267
   XY=             -2.5572   XZ=             -3.7107   YZ=              3.1556
 Octapole moment (field-independent basis, Debye-Ang**2):
  XXX=             56.8305  YYY=            -42.0469  ZZZ=             15.3435  XYY=            -20.0654
  XXY=            -42.7025  XXZ=            -13.0692  XZZ=            -26.1989  YZZ=              5.3725
  YYZ=             11.2374  XYZ=             -9.2483
 Hexadecapole moment (field-independent basis, Debye-Ang**3):
 XXXX=          -1690.1777 YYYY=          -1606.5449 ZZZZ=           -329.1655 XXXY=            -89.6465
 XXXZ=             -2.6208 YYYX=            -20.1762 YYYZ=             26.0807 ZZZX=            -47.4703
 ZZZY=             23.8958 XXYY=           -526.2625 XXZZ=           -329.0208 YYZZ=           -306.8859
 XXYZ=              1.0370 YYXZ=              7.4168 ZZXY=             -3.7142
 N-N= 1.107713785835D+03 E-N=-4.187545637167D+03  KE= 8.328909002670D+02
 Calling FoFJK, ICntrl=      2127 FMM=F ISym2X=0 I1Cent= 0 IOpClX= 0 NMat=1 NMatS=1 NMatT=0.
 ***** Axes restored to original set *****
 -------------------------------------------------------------------
 Center     Atomic                   Forces (Hartrees/Bohr)
 Number     Number              X              Y              Z
 -------------------------------------------------------------------
      1        6           0.000000037    0.000020258    0.000000373
      2        6           0.000012980   -0.000016530   -0.000016649
      3        8           0.000001576    0.000003109   -0.000020050
      4        6           0.000013825   -0.000006905    0.000026826
      5        6           0.000014424    0.000015100    0.000006226
      6        6          -0.000002972   -0.000007662    0.000004733
      7        1          -0.000005316    0.000003741   -0.000014638
      8        1           0.000004514    0.000000289    0.000001180
      9        1          -0.000004908   -0.000006044   -0.000004159
     10        1          -0.000004775    0.000002858    0.000003594
     11        1          -0.000001411   -0.000003466   -0.000000679
     12        6          -0.000020760   -0.000028796    0.000008955
     13        1          -0.000005831   -0.000005702    0.000001981
     14        1           0.000000475    0.000001252   -0.000002634
     15        8          -0.000002756   -0.000004210   -0.000014309
     16        8           0.000006271    0.000026139    0.000004683
     17        1           0.000012841    0.000001570    0.000007823
     18        8           0.000002113    0.000004219   -0.000000533
     19        1           0.000004339    0.000005132   -0.000010467
     20        8           0.000013820   -0.000002906    0.000000042
     21        1          -0.000003034    0.000008525    0.000016028
     22        8          -0.000010150    0.000001847   -0.000000962
     23        1           0.000001923    0.000002055    0.000016913
     24        8          -0.000024165    0.000008503   -0.000014331
     25        1           0.000018811   -0.000010547    0.000008184
     26        1          -0.000014049   -0.000011219    0.000000606
     27        1          -0.000000920   -0.000003751   -0.000009726
     28        8           0.000000569    0.000005686    0.000014334
     29        1          -0.000002716   -0.000001725   -0.000022675
     30        1          -0.000004755   -0.000000820    0.000009332
 -------------------------------------------------------------------
 Cartesian Forces:  Max     0.000028796 RMS     0.000010499

 GradGradGradGradGradGradGradGradGradGradGradGradGradGradGradGradGradGrad
 Berny optimization.
 FormGI is forming the generalized inverse of G from B-inverse, IUseBI=4.
 Internal  Forces:  Max     0.000033889 RMS     0.000005439
 Search for a local minimum.
 Step number   1 out of a maximum of  180
 All quantities printed in internal units (Hartrees-Bohrs-Radians)
 Mixed Optimization -- En-DIIS/RFO-DIIS
 Second derivative matrix not updated -- first step.
 ITU=  0
     Eigenvalues ---    0.00314   0.00426   0.00575   0.00608   0.00737
     Eigenvalues ---    0.00845   0.00887   0.01395   0.01427   0.01467
     Eigenvalues ---    0.01913   0.02824   0.03112   0.03938   0.04057
     Eigenvalues ---    0.04236   0.04499   0.04705   0.04761   0.04878
     Eigenvalues ---    0.04966   0.05018   0.05095   0.05194   0.05326
     Eigenvalues ---    0.05742   0.05866   0.05879   0.05992   0.06214
     Eigenvalues ---    0.06405   0.06645   0.06921   0.07917   0.08236
     Eigenvalues ---    0.08510   0.09186   0.09590   0.10136   0.11322
     Eigenvalues ---    0.11434   0.11654   0.13312   0.13850   0.15429
     Eigenvalues ---    0.15978   0.16000   0.16000   0.16249   0.16803
     Eigenvalues ---    0.18393   0.18894   0.19945   0.20139   0.20560
     Eigenvalues ---    0.22008   0.25830   0.26908   0.27857   0.28729
     Eigenvalues ---    0.29043   0.33444   0.33729   0.33756   0.33922
     Eigenvalues ---    0.34000   0.34100   0.34145   0.34974   0.37198
     Eigenvalues ---    0.38083   0.40417   0.42454   0.42911   0.44579
     Eigenvalues ---    0.47669   0.48273   0.50143   0.50769   0.52289
     Eigenvalues ---    0.52977   0.53190   0.53544   0.53549
 RFO step:  Lambda=-5.20393008D-08 EMin= 3.14092388D-03
 Linear search not attempted -- first point.
 Iteration  1 RMS(Cart)=  0.00016586 RMS(Int)=  0.00000001
 Iteration  2 RMS(Cart)=  0.00000002 RMS(Int)=  0.00000000
 Variable       Old X    -DE/DX   Delta X   Delta X   Delta X     New X
                                 (Linear)    (Quad)   (Total)
    R1        2.90272   0.00000   0.00000   0.00002   0.00002   2.90273
    R2        2.88854  -0.00002   0.00000  -0.00007  -0.00007   2.88847
    R3        2.07744   0.00000   0.00000   0.00001   0.00001   2.07744
    R4        2.69376   0.00000   0.00000   0.00001   0.00001   2.69377
    R5        2.91693  -0.00001   0.00000  -0.00004  -0.00004   2.91689
    R6        2.88079  -0.00000   0.00000  -0.00002  -0.00002   2.88077
    R7        2.07790   0.00000   0.00000   0.00000   0.00000   2.07790
    R8        2.68349   0.00001   0.00000   0.00001   0.00001   2.68350
    R9        2.71666  -0.00001   0.00000  -0.00003  -0.00003   2.71662
   R10        2.73588  -0.00001   0.00000  -0.00002  -0.00002   2.73586
   R11        3.75257  -0.00002   0.00000  -0.00036  -0.00036   3.75221
   R12        2.07162  -0.00000   0.00000  -0.00001  -0.00001   2.07161
   R13        2.63840   0.00001   0.00000   0.00001   0.00001   2.63841
   R14        2.07330   0.00000   0.00000   0.00001   0.00001   2.07331
   R15        2.89914   0.00000   0.00000   0.00001   0.00001   2.89915
   R16        2.07461   0.00000   0.00000   0.00001   0.00001   2.07462
   R17        2.72449  -0.00001   0.00000  -0.00002  -0.00002   2.72446
   R18        2.07086  -0.00000   0.00000  -0.00001  -0.00001   2.07085
   R19        2.08278   0.00001   0.00000   0.00002   0.00002   2.08280
   R20        2.67779  -0.00003   0.00000  -0.00008  -0.00008   2.67772
   R21        1.86013  -0.00000   0.00000  -0.00001  -0.00001   1.86012
   R22        1.84323  -0.00001   0.00000  -0.00003  -0.00003   1.84320
   R23        1.83476   0.00000   0.00000   0.00000   0.00000   1.83476
   R24        1.83675   0.00001   0.00000   0.00002   0.00002   1.83677
   R25        3.67429   0.00001   0.00000   0.00011   0.00011   3.67441
   R26        1.86357  -0.00001   0.00000  -0.00001  -0.00001   1.86356
   R27        3.45678   0.00000   0.00000   0.00007   0.00007   3.45684
   R28        3.57312  -0.00002   0.00000  -0.00049  -0.00049   3.57263
   R29        1.84873   0.00000   0.00000   0.00000   0.00000   1.84873
   R30        1.83149  -0.00000   0.00000  -0.00000  -0.00000   1.83149
   R31        1.85197  -0.00001   0.00000  -0.00002  -0.00002   1.85195
   R32        1.83145  -0.00000   0.00000  -0.00001  -0.00001   1.83144
    A1        1.88166  -0.00000   0.00000  -0.00005  -0.00005   1.88160
    A2        1.90909  -0.00000   0.00000   0.00002   0.00002   1.90911
    A3        1.89416   0.00001   0.00000   0.00004   0.00004   1.89419
    A4        1.89659   0.00000   0.00000   0.00003   0.00003   1.89662
    A5        1.96684  -0.00001   0.00000  -0.00003  -0.00003   1.96681
    A6        1.91468  -0.00000   0.00000   0.00000   0.00000   1.91469
    A7        1.92607   0.00000   0.00000   0.00001   0.00001   1.92609
    A8        1.86901   0.00000   0.00000   0.00003   0.00003   1.86903
    A9        1.88705  -0.00000   0.00000  -0.00000  -0.00000   1.88705
   A10        1.89184  -0.00000   0.00000  -0.00004  -0.00004   1.89180
   A11        1.95487   0.00000   0.00000   0.00000   0.00000   1.95487
   A12        1.93327   0.00000   0.00000   0.00001   0.00001   1.93328
   A13        2.05300   0.00000   0.00000   0.00002   0.00002   2.05302
   A14        1.66328  -0.00000   0.00000  -0.00001  -0.00001   1.66327
   A15        2.00730  -0.00000   0.00000  -0.00004  -0.00004   2.00726
   A16        1.97060  -0.00000   0.00000  -0.00001  -0.00001   1.97059
   A17        1.89205  -0.00000   0.00000  -0.00003  -0.00003   1.89202
   A18        1.88967  -0.00000   0.00000  -0.00005  -0.00005   1.88962
   A19        1.79751   0.00001   0.00000   0.00011   0.00011   1.79762
   A20        1.95111   0.00000   0.00000   0.00001   0.00001   1.95112
   A21        1.96231  -0.00000   0.00000  -0.00002  -0.00002   1.96229
   A22        1.93986  -0.00000   0.00000   0.00000   0.00000   1.93986
   A23        1.87524  -0.00000   0.00000  -0.00004  -0.00004   1.87519
   A24        1.95960   0.00000   0.00000   0.00001   0.00001   1.95962
   A25        1.83741   0.00000   0.00000   0.00003   0.00003   1.83744
   A26        1.96557  -0.00000   0.00000  -0.00002  -0.00002   1.96555
   A27        1.87852   0.00000   0.00000   0.00002   0.00002   1.87854
   A28        1.90187  -0.00000   0.00000  -0.00007  -0.00007   1.90180
   A29        1.90954  -0.00000   0.00000   0.00001   0.00001   1.90955
   A30        1.97256   0.00000   0.00000   0.00002   0.00002   1.97257
   A31        1.89550   0.00000   0.00000   0.00007   0.00007   1.89556
   A32        1.88294  -0.00001   0.00000  -0.00006  -0.00006   1.88289
   A33        1.89993   0.00000   0.00000   0.00004   0.00004   1.89997
   A34        1.91318   0.00000   0.00000   0.00001   0.00001   1.91319
   A35        1.91133  -0.00000   0.00000  -0.00000  -0.00000   1.91133
   A36        1.93168   0.00000   0.00000   0.00001   0.00001   1.93170
   A37        1.87521  -0.00000   0.00000  -0.00001  -0.00001   1.87521
   A38        1.87210  -0.00001   0.00000  -0.00007  -0.00007   1.87202
   A39        1.95878   0.00000   0.00000   0.00006   0.00006   1.95884
   A40        1.84624  -0.00000   0.00000  -0.00004  -0.00004   1.84621
   A41        1.86320  -0.00001   0.00000  -0.00004  -0.00004   1.86316
   A42        1.85937   0.00000   0.00000   0.00000   0.00000   1.85938
   A43        1.85669   0.00000   0.00000   0.00005   0.00005   1.85674
   A44        1.96188   0.00000   0.00000  -0.00001  -0.00001   1.96187
   A45        1.55977   0.00001   0.00000   0.00013   0.00013   1.55990
   A46        1.84665  -0.00000   0.00000   0.00002   0.00002   1.84667
   A47        2.72563   0.00000   0.00000   0.00001   0.00001   2.72564
   A48        1.49694   0.00001   0.00000   0.00007   0.00007   1.49702
   A49        2.11196  -0.00000   0.00000  -0.00001  -0.00001   2.11195
   A50        1.83857  -0.00000   0.00000   0.00002   0.00002   1.83858
   A51        2.59782  -0.00000   0.00000  -0.00000  -0.00000   2.59782
   A52        2.47655  -0.00000   0.00000   0.00000   0.00000   2.47655
   A53        1.58725   0.00001   0.00000  -0.00000  -0.00000   1.58725
   A54        2.03792  -0.00000   0.00000   0.00000   0.00000   2.03792
   A55        1.84170  -0.00000   0.00000  -0.00001  -0.00001   1.84168
   A56        2.54369  -0.00001   0.00000  -0.00008  -0.00008   2.54361
    D1       -0.64715  -0.00000   0.00000   0.00002   0.00002  -0.64714
    D2        1.35449  -0.00000   0.00000   0.00003   0.00003   1.35452
    D3       -2.86655  -0.00000   0.00000   0.00003   0.00003  -2.86652
    D4        1.41226  -0.00000   0.00000   0.00003   0.00003   1.41229
    D5       -2.86928  -0.00000   0.00000   0.00004   0.00004  -2.86924
    D6       -0.80714   0.00000   0.00000   0.00004   0.00004  -0.80709
    D7       -2.78247   0.00000   0.00000   0.00007   0.00007  -2.78240
    D8       -0.78083   0.00000   0.00000   0.00008   0.00008  -0.78075
    D9        1.28132   0.00000   0.00000   0.00008   0.00008   1.28140
   D10        1.22320   0.00000   0.00000   0.00013   0.00013   1.22334
   D11       -0.84685  -0.00000   0.00000   0.00009   0.00009  -0.84676
   D12       -2.96689  -0.00001   0.00000   0.00002   0.00002  -2.96686
   D13       -0.84424   0.00000   0.00000   0.00012   0.00012  -0.84411
   D14       -2.91430  -0.00000   0.00000   0.00008   0.00008  -2.91421
   D15        1.24886  -0.00000   0.00000   0.00002   0.00002   1.24887
   D16       -2.97009   0.00000   0.00000   0.00012   0.00012  -2.96997
   D17        1.24304   0.00000   0.00000   0.00008   0.00008   1.24312
   D18       -0.87700  -0.00000   0.00000   0.00001   0.00001  -0.87698
   D19       -2.72081  -0.00000   0.00000  -0.00008  -0.00008  -2.72089
   D20        1.47973   0.00000   0.00000  -0.00002  -0.00002   1.47971
   D21       -0.63585  -0.00000   0.00000  -0.00003  -0.00003  -0.63589
   D22       -0.35782   0.00000   0.00000   0.00025   0.00025  -0.35757
   D23       -2.33774  -0.00000   0.00000   0.00014   0.00014  -2.33759
   D24        1.81207   0.00000   0.00000   0.00022   0.00022   1.81229
   D25       -2.41356   0.00000   0.00000   0.00028   0.00028  -2.41328
   D26        1.88970  -0.00000   0.00000   0.00017   0.00017   1.88988
   D27       -0.24367   0.00000   0.00000   0.00025   0.00025  -0.24343
   D28        1.78570   0.00000   0.00000   0.00026   0.00026   1.78596
   D29       -0.19422  -0.00000   0.00000   0.00015   0.00015  -0.19407
   D30       -2.32760   0.00000   0.00000   0.00023   0.00023  -2.32737
   D31       -0.68202  -0.00000   0.00000  -0.00028  -0.00028  -0.68230
   D32        1.39682  -0.00000   0.00000  -0.00027  -0.00027   1.39654
   D33       -2.82970  -0.00000   0.00000  -0.00022  -0.00022  -2.82992
   D34        1.35962  -0.00000   0.00000  -0.00027  -0.00027   1.35935
   D35       -2.84473  -0.00000   0.00000  -0.00026  -0.00026  -2.84499
   D36       -0.78806  -0.00000   0.00000  -0.00021  -0.00021  -0.78827
   D37       -2.78537  -0.00000   0.00000  -0.00029  -0.00029  -2.78566
   D38       -0.70653  -0.00000   0.00000  -0.00028  -0.00028  -0.70682
   D39        1.35014  -0.00000   0.00000  -0.00023  -0.00023   1.34991
   D40       -3.12769  -0.00000   0.00000  -0.00019  -0.00019  -3.12788
   D41       -1.00182  -0.00000   0.00000  -0.00017  -0.00017  -1.00198
   D42        1.11264  -0.00001   0.00000  -0.00022  -0.00022   1.11242
   D43        0.98737  -0.00000   0.00000  -0.00010  -0.00010   0.98727
   D44        3.02411  -0.00000   0.00000  -0.00008  -0.00008   3.02403
   D45       -1.14848   0.00000   0.00000  -0.00003  -0.00003  -1.14851
   D46        3.11414  -0.00000   0.00000  -0.00015  -0.00015   3.11400
   D47       -1.13230  -0.00000   0.00000  -0.00013  -0.00013  -1.13242
   D48        0.97830   0.00000   0.00000  -0.00008  -0.00008   0.97822
   D49       -0.43133  -0.00000   0.00000  -0.00005  -0.00005  -0.43138
   D50       -2.45640   0.00000   0.00000  -0.00002  -0.00002  -2.45642
   D51        1.78481  -0.00000   0.00000  -0.00005  -0.00005   1.78476
   D52       -2.36954   0.00000   0.00000  -0.00002  -0.00002  -2.36956
   D53        1.88857   0.00000   0.00000   0.00002   0.00002   1.88859
   D54       -0.15341   0.00000   0.00000  -0.00001  -0.00001  -0.15342
   D55       -0.50108   0.00000   0.00000   0.00026   0.00026  -0.50082
   D56        1.66070   0.00000   0.00000   0.00026   0.00026   1.66095
   D57        3.07339   0.00000   0.00000   0.00002   0.00002   3.07341
   D58       -1.02832  -0.00000   0.00000  -0.00002  -0.00002  -1.02834
   D59        0.98357   0.00001   0.00000   0.00011   0.00011   0.98368
   D60        3.01029   0.00000   0.00000  -0.00005  -0.00005   3.01024
   D61        0.95712   0.00000   0.00000  -0.00004  -0.00004   0.95708
   D62       -1.21138  -0.00000   0.00000  -0.00013  -0.00013  -1.21150
   D63        0.80471   0.00000   0.00000  -0.00004  -0.00004   0.80467
   D64       -1.24846   0.00000   0.00000  -0.00004  -0.00004  -1.24850
   D65        2.86623  -0.00000   0.00000  -0.00012  -0.00012   2.86611
   D66       -1.21269  -0.00000   0.00000  -0.00008  -0.00008  -1.21277
   D67        3.01732   0.00000   0.00000  -0.00008  -0.00008   3.01725
   D68        0.84883  -0.00000   0.00000  -0.00016  -0.00016   0.84867
   D69        1.32721   0.00001   0.00000   0.00011   0.00011   1.32731
   D70       -0.35258  -0.00000   0.00000  -0.00005  -0.00005  -0.35263
   D71       -2.85206   0.00000   0.00000  -0.00001  -0.00001  -2.85207
   D72        1.75134  -0.00001   0.00000  -0.00017  -0.00017   1.75117
   D73       -0.79825   0.00000   0.00000   0.00006   0.00006  -0.79819
   D74       -2.47803  -0.00000   0.00000  -0.00010  -0.00010  -2.47813
   D75        0.68404  -0.00000   0.00000  -0.00001  -0.00001   0.68403
   D76        2.77045   0.00000   0.00000  -0.00004  -0.00004   2.77041
   D77       -1.45707  -0.00000   0.00000  -0.00006  -0.00006  -1.45713
   D78        0.40587  -0.00000   0.00000   0.00011   0.00011   0.40598
   D79        1.12549   0.00000   0.00000   0.00015   0.00015   1.12564
   D80       -0.75054  -0.00000   0.00000   0.00004   0.00004  -0.75050
   D81       -0.53249   0.00000   0.00000   0.00011   0.00011  -0.53238
   D82       -0.22670   0.00000   0.00000  -0.00007  -0.00007  -0.22677
   D83        1.65723   0.00000   0.00000  -0.00008  -0.00008   1.65715
   D84        0.10507  -0.00000   0.00000  -0.00000  -0.00000   0.10507
   D85       -1.73400  -0.00000   0.00000  -0.00006  -0.00006  -1.73406
   D86       -0.01078  -0.00000   0.00000  -0.00020  -0.00020  -0.01098
   D87        2.10141  -0.00000   0.00000  -0.00019  -0.00019   2.10122
   D88       -0.37929  -0.00000   0.00000  -0.00008  -0.00008  -0.37937
   D89       -2.44164  -0.00000   0.00000  -0.00008  -0.00008  -2.44172
         Item               Value     Threshold  Converged?
 Maximum Force            0.000034     0.000450     YES
 RMS     Force            0.000005     0.000300     YES
 Maximum Displacement     0.001001     0.001800     YES
 RMS     Displacement     0.000166     0.001200     YES
 Predicted change in Energy=-2.601970D-08
 Optimization completed.
    -- Stationary point found.
                           ----------------------------
                           !   Optimized Parameters   !
                           ! (Angstroms and Degrees)  !
 --------------------------                            --------------------------
 ! Name  Definition              Value          Derivative Info.                !
 --------------------------------------------------------------------------------
 ! R1    R(1,5)                  1.5361         -DE/DX =    0.0                 !
 ! R2    R(1,6)                  1.5285         -DE/DX =    0.0                 !
 ! R3    R(1,11)                 1.0993         -DE/DX =    0.0                 !
 ! R4    R(1,22)                 1.4255         -DE/DX =    0.0                 !
 ! R5    R(2,4)                  1.5436         -DE/DX =    0.0                 !
 ! R6    R(2,6)                  1.5244         -DE/DX =    0.0                 !
 ! R7    R(2,9)                  1.0996         -DE/DX =    0.0                 !
 ! R8    R(2,18)                 1.42           -DE/DX =    0.0                 !
 ! R9    R(3,4)                  1.4376         -DE/DX =    0.0                 !
 ! R10   R(3,5)                  1.4478         -DE/DX =    0.0                 !
 ! R11   R(3,26)                 1.9858         -DE/DX =    0.0                 !
 ! R12   R(4,7)                  1.0963         -DE/DX =    0.0                 !
 ! R13   R(4,15)                 1.3962         -DE/DX =    0.0                 !
 ! R14   R(5,10)                 1.0971         -DE/DX =    0.0                 !
 ! R15   R(5,12)                 1.5342         -DE/DX =    0.0                 !
 ! R16   R(6,8)                  1.0978         -DE/DX =    0.0                 !
 ! R17   R(6,20)                 1.4417         -DE/DX =    0.0                 !
 ! R18   R(12,13)                1.0959         -DE/DX =    0.0                 !
 ! R19   R(12,14)                1.1022         -DE/DX =    0.0                 !
 ! R20   R(12,16)                1.417          -DE/DX =    0.0                 !
 ! R21   R(15,25)                0.9843         -DE/DX =    0.0                 !
 ! R22   R(16,17)                0.9754         -DE/DX =    0.0                 !
 ! R23   R(18,19)                0.9709         -DE/DX =    0.0                 !
 ! R24   R(20,21)                0.972          -DE/DX =    0.0                 !
 ! R25   R(20,29)                1.9444         -DE/DX =    0.0                 !
 ! R26   R(22,23)                0.9862         -DE/DX =    0.0                 !
 ! R27   R(23,28)                1.8292         -DE/DX =    0.0                 !
 ! R28   R(24,25)                1.8908         -DE/DX =    0.0                 !
 ! R29   R(24,26)                0.9783         -DE/DX =    0.0                 !
 ! R30   R(24,27)                0.9692         -DE/DX =    0.0                 !
 ! R31   R(28,29)                0.98           -DE/DX =    0.0                 !
 ! R32   R(28,30)                0.9692         -DE/DX =    0.0                 !
 ! A1    A(5,1,6)              107.8111         -DE/DX =    0.0                 !
 ! A2    A(5,1,11)             109.3829         -DE/DX =    0.0                 !
 ! A3    A(5,1,22)             108.5272         -DE/DX =    0.0                 !
 ! A4    A(6,1,11)             108.6667         -DE/DX =    0.0                 !
 ! A5    A(6,1,22)             112.6918         -DE/DX =    0.0                 !
 ! A6    A(11,1,22)            109.7033         -DE/DX =    0.0                 !
 ! A7    A(4,2,6)              110.3559         -DE/DX =    0.0                 !
 ! A8    A(4,2,9)              107.0862         -DE/DX =    0.0                 !
 ! A9    A(4,2,18)             108.1199         -DE/DX =    0.0                 !
 ! A10   A(6,2,9)              108.3945         -DE/DX =    0.0                 !
 ! A11   A(6,2,18)             112.0057         -DE/DX =    0.0                 !
 ! A12   A(9,2,18)             110.7682         -DE/DX =    0.0                 !
 ! A13   A(4,3,5)              117.6281         -DE/DX =    0.0                 !
 ! A14   A(4,3,26)              95.299          -DE/DX =    0.0                 !
 ! A15   A(5,3,26)             115.0098         -DE/DX =    0.0                 !
 ! A16   A(2,4,3)              112.9072         -DE/DX =    0.0                 !
 ! A17   A(2,4,7)              108.4064         -DE/DX =    0.0                 !
 ! A18   A(2,4,15)             108.27           -DE/DX =    0.0                 !
 ! A19   A(3,4,7)              102.9899         -DE/DX =    0.0                 !
 ! A20   A(3,4,15)             111.7905         -DE/DX =    0.0                 !
 ! A21   A(7,4,15)             112.4319         -DE/DX =    0.0                 !
 ! A22   A(1,5,3)              111.1456         -DE/DX =    0.0                 !
 ! A23   A(1,5,10)             107.4433         -DE/DX =    0.0                 !
 ! A24   A(1,5,12)             112.2769         -DE/DX =    0.0                 !
 ! A25   A(3,5,10)             105.276          -DE/DX =    0.0                 !
 ! A26   A(3,5,12)             112.6187         -DE/DX =    0.0                 !
 ! A27   A(10,5,12)            107.6312         -DE/DX =    0.0                 !
 ! A28   A(1,6,2)              108.9692         -DE/DX =    0.0                 !
 ! A29   A(1,6,8)              109.4088         -DE/DX =    0.0                 !
 ! A30   A(1,6,20)             113.0191         -DE/DX =    0.0                 !
 ! A31   A(2,6,8)              108.604          -DE/DX =    0.0                 !
 ! A32   A(2,6,20)             107.8848         -DE/DX =    0.0                 !
 ! A33   A(8,6,20)             108.8578         -DE/DX =    0.0                 !
 ! A34   A(5,12,13)            109.6173         -DE/DX =    0.0                 !
 ! A35   A(5,12,14)            109.5111         -DE/DX =    0.0                 !
 ! A36   A(5,12,16)            110.6773         -DE/DX =    0.0                 !
 ! A37   A(13,12,14)           107.4419         -DE/DX =    0.0                 !
 ! A38   A(13,12,16)           107.2633         -DE/DX =    0.0                 !
 ! A39   A(14,12,16)           112.2301         -DE/DX =    0.0                 !
 ! A40   A(4,15,25)            105.7819         -DE/DX =    0.0                 !
 ! A41   A(12,16,17)           106.7533         -DE/DX =    0.0                 !
 ! A42   A(2,18,19)            106.5343         -DE/DX =    0.0                 !
 ! A43   A(6,20,21)            106.3805         -DE/DX =    0.0                 !
[...]
 492239,0.00394873,-0.00077587,-0.00143054,0.00006240,0.00044319,0.0002
 5639,-0.00046416,-0.00012656,0.00030647,0.00002434,-0.00025332,-0.0000
 0839,-0.00003554,0.00006714,0.00026081,0.00038215,-0.00007224,0.000056
 54,-0.00003902,-0.00000074,0.00008106,0.00061829,-0.00000844,0.0000566
 3,-0.00007352,-0.00000645,0.25913470,0.23989766,-0.00026354,0.00051232
 ,-0.00067705,0.00016772,0.00000256,0.00081995,0.00668383,-0.00084034,0
 .00241110,0.00001217,0.00171784,-0.00878049,0.00043326,-0.00213029,0.0
 0016837,-0.00023745,0.00023093,-0.00002562,0.00025170,0.00036419,0.000
 45996,-0.00007282,-0.00000211,0.00010187,0.00045410,-0.00015074,0.0001
 6630,0.00002802,0.00011857,0.00003454,0.00015815,0.00005314,0.00018799
 ,-0.00062967,-0.00019589,-0.00072414,0.00009596,-0.00011322,0.00007163
 ,0.00019784,0.00000727,0.00031890,-0.00856747,0.00158217,0.00448558,0.
 00018990,0.00034125,0.00025628,-0.00010800,-0.00003900,-0.00005463,-0.
 00021630,-0.00003818,0.00034463,0.00001092,0.00010441,-0.00004978,0.00
 020554,-0.00016226,0.00011597,-0.00005688,0.00001992,-0.00000230,0.000
 51034,-0.00003951,0.00038121,-0.00005425,0.00004889,-0.00021109,-0.124
 15623,0.07712400,0.40670920,-0.00049485,-0.00046485,0.00050348,0.00101
 380,0.00158302,-0.00059178,-0.00199241,0.00355534,-0.00666093,-0.00846
 871,0.00184872,0.01378464,-0.00150725,-0.00128654,0.00056539,-0.000546
 76,-0.00031133,0.00018962,0.00101438,-0.00135241,-0.00301126,0.0000500
 1,-0.00002054,-0.00005948,-0.00011126,0.00004833,0.00001710,0.00022694
 ,0.00028560,-0.00010707,-0.00032428,-0.00021497,-0.00012278,0.00113968
 ,-0.00042360,0.00106298,-0.00024264,0.00028115,-0.00052502,0.00006175,
 -0.00033167,-0.00038606,-0.40444654,0.10805260,0.01981796,-0.00024126,
 0.00082042,-0.00019622,-0.00002279,-0.00030348,-0.00003785,0.00027107,
 -0.00086626,-0.00045187,0.00008913,-0.00001049,0.00015764,0.00076586,0
 .00013844,-0.00008235,-0.00001707,0.00003696,0.00005931,0.00053008,0.0
 0056166,-0.00018515,-0.00022450,-0.00005719,-0.00012644,-0.00030913,-0
 .00139356,0.00469278,0.40961526,-0.00034705,-0.00020573,-0.00077160,0.
 00118689,0.00159612,-0.00263833,0.00014684,-0.00151311,0.00069693,0.01
 575231,-0.00327090,-0.00577785,-0.00096048,0.00047834,0.00035314,0.000
 68925,-0.00011654,-0.00046025,0.00102218,0.00041392,0.00173762,-0.0000
 2187,0.00004478,0.00001972,0.00007299,-0.00010618,-0.00022072,0.000128
 85,-0.00020426,-0.00013377,0.00012780,0.00026924,0.00041367,-0.0007372
 4,-0.00083034,0.00180916,0.00014958,-0.00019875,0.00009360,-0.00041060
 ,-0.00010122,-0.00063401,0.09422080,-0.04674407,-0.01481142,0.00092397
 ,0.00057781,-0.00076726,-0.00031188,0.00026149,0.00006581,-0.00025596,
 -0.00024044,0.00026466,0.00008271,-0.00003012,-0.00010033,0.00007686,-
 0.00018063,-0.00001208,-0.00000071,0.00002093,0.00003881,-0.00001147,-
 0.00051560,0.00035556,-0.00000766,0.00007124,-0.00003319,-0.00054010,-
 0.00918366,0.00257724,-0.11006442,0.05656416,0.00037441,-0.00033634,0.
 00020342,-0.00133523,-0.00174753,-0.00590498,-0.00305576,0.00075350,0.
 00226706,0.04905110,-0.01684025,-0.00872216,0.00132623,0.00175094,-0.0
 0049227,0.00030058,-0.00057760,0.00042651,-0.00093293,-0.00028395,0.00
 024942,-0.00004408,-0.00003200,-0.00002032,-0.00006247,-0.00021934,0.0
 0033642,-0.00014063,-0.00020036,0.00005118,0.00007886,0.00016736,-0.00
 007697,0.00030185,0.00024642,0.00027088,-0.00013930,0.00019625,-0.0001
 9795,0.00006947,0.00011986,-0.00000469,-0.02273831,-0.00217542,-0.0484
 8218,-0.00030912,-0.00040160,-0.00010882,0.00011370,0.00000628,0.00007
 131,0.00162857,-0.00046441,-0.00012996,0.00001469,-0.00046678,-0.00019
 185,-0.00001443,0.00031419,-0.00014194,0.00011026,-0.00002831,0.000024
 78,-0.00046269,0.00008397,-0.00016543,0.00009966,-0.00004091,0.0001637
 6,0.00571279,-0.00072377,-0.00316548,-0.02647870,0.01875760,0.06906698
 ,-0.00074570,0.00073910,-0.00062703,0.00004013,0.00009577,0.00136022,0
 .00539897,-0.00251351,-0.00009626,-0.00260988,0.00923077,-0.00774001,-
 0.00353744,-0.00675714,0.00130977,-0.00108272,0.00023288,0.00011712,0.
 00000367,-0.00056180,0.00009693,-0.00004660,0.00002010,0.00010802,0.00
 053846,-0.00027972,0.00010753,0.00038364,0.00051993,-0.00021963,0.0001
 1427,-0.00003166,0.00010801,0.00063320,-0.00104128,-0.00033185,-0.0000
 1243,-0.00023935,-0.00024043,-0.00006254,0.00003668,0.00008272,-0.0029
 7177,-0.00080917,0.00391611,0.00007126,0.00145429,0.00030714,-0.000142
 78,-0.00035592,-0.00016717,0.00020330,-0.00077893,-0.00018017,-0.00001
 013,0.00014336,-0.00002307,0.00093977,-0.00020286,0.00009189,-0.000141
 46,0.00007518,0.00007038,0.00145310,0.00052325,0.00044836,-0.00023983,
 0.00004277,-0.00042877,-0.17722990,-0.04276343,0.17726179,0.00559714,0
 .00097549,-0.00350040,0.19206763,-0.00001659,-0.00062902,-0.00006083,0
 .00006840,-0.00061739,0.00030135,-0.00061490,-0.00722790,0.00076441,0.
 00464512,0.00054415,-0.00047746,-0.00161786,0.00306007,0.00045363,0.00
 018368,0.00037933,-0.00003534,0.00004347,-0.00124768,-0.00014264,-0.00
 000223,-0.00001579,0.00000343,0.00001018,-0.00003426,0.00000966,-0.000
 13616,-0.00034911,0.00000996,0.00000444,0.00007470,-0.00000021,-0.0036
 5269,0.00013775,-0.00076372,0.00077831,-0.00165465,0.00092605,0.000185
 87,0.00000257,-0.00002987,-0.00144890,-0.00056354,-0.00040378,0.001795
 06,0.00009330,-0.00032053,-0.00025756,0.00055297,0.00015868,-0.0001841
 9,-0.00003717,0.00006885,-0.00000811,0.00001341,-0.00004197,-0.0001576
 4,-0.00031988,0.00003109,-0.00005229,0.00003522,0.00000586,-0.00018886
 ,-0.00052558,-0.00014066,-0.00010051,0.00002962,0.00003100,-0.02303949
 ,-0.02819478,-0.01047941,0.00185087,0.00076876,0.00357585,0.04238284,0
 .03954523,0.00012721,-0.00064352,0.00043826,-0.00002221,0.00067275,-0.
 00076400,0.00010672,0.00060833,-0.00589057,-0.00359469,-0.00117776,0.0
 0626748,-0.00047650,0.00227348,-0.00021763,0.00032386,-0.00018722,0.00
 005557,0.00004848,0.00036457,0.00001713,0.00005040,-0.00000768,-0.0000
 6153,-0.00035291,0.00014083,-0.00009182,0.00014750,-0.00005850,-0.0000
 9129,-0.00014873,-0.00001376,-0.00014741,-0.00024330,0.00001704,0.0008
 7004,0.00000555,0.00009408,0.00049419,-0.00042803,-0.00009461,-0.00062
 343,0.00279710,-0.00148512,-0.00170994,0.00035321,-0.00019091,-0.00046
 368,-0.00000336,0.00017013,0.00004210,0.00001154,0.00007223,-0.0001653
 5,0.00000759,-0.00003231,0.00004143,-0.00008815,0.00009408,-0.00009693
 ,0.00004527,-0.00000585,0.00000859,-0.00041320,-0.00008259,-0.00030346
 ,-0.00000269,-0.00002921,0.00015471,0.22202784,0.02546819,-0.32425296,
 -0.00308253,0.00244835,-0.00619128,-0.20215606,-0.02143613,0.32214244,
 -0.00008724,-0.00004351,-0.00000965,-0.00001796,0.00043092,0.00007550,
 -0.00040851,0.00099850,0.00081547,-0.00084409,-0.00126707,-0.00041724,
 -0.00004775,-0.00036242,0.00000275,-0.00011170,-0.00011827,0.00009335,
 -0.00004495,0.00068630,0.00031487,0.00000544,0.00000394,-0.00000581,0.
 00007390,-0.00002303,-0.00000621,0.00002714,0.00005064,-0.00001059,-0.
 00000928,-0.00001157,-0.00000418,-0.00001327,-0.00005156,-0.00010175,-
 0.00011446,-0.00024249,0.00011780,-0.00003169,-0.00004327,0.00001353,-
 0.00000490,0.00113169,-0.00034591,0.00001615,0.00017243,0.00003905,-0.
 00000732,-0.00005449,-0.00000254,0.00006341,-0.00006902,-0.00004875,0.
 00000212,0.00003809,0.00002479,0.00023948,0.00004598,-0.00001678,-0.00
 000975,0.00000884,0.00001279,0.00017566,0.00014405,0.00002057,-0.00005
 678,-0.00001336,-0.00005739,-0.26556493,-0.21821841,-0.05706150,-0.001
 41539,-0.00193797,0.00009012,-0.01870287,-0.02051329,-0.01500211,0.286
 88622,0.00000560,0.00006568,0.00002894,-0.00001046,-0.00008016,-0.0000
 2612,0.00052145,-0.00036122,-0.00032453,0.00016454,0.00131984,0.000645
 28,-0.00000021,-0.00008395,-0.00002039,0.00001297,0.00005751,-0.000042
 72,0.00006508,-0.00032845,-0.00026776,-0.00000266,0.00000091,0.0000025
 8,-0.00002910,0.00000018,-0.00001935,-0.00003790,-0.00001312,0.0000184
 3,0.00000694,-0.00000236,0.00000011,0.00002711,-0.00005745,0.00009767,
 -0.00008376,0.00007301,-0.00022191,0.00010903,-0.00001513,0.00005745,0
 .00239976,-0.00176853,0.00039549,-0.00006943,-0.00004661,0.00002316,-0
 .00001281,-0.00000154,0.00001736,-0.00003326,-0.00009025,-0.00000236,0
 .00000514,0.00000186,-0.00002051,-0.00005716,-0.00005351,0.00001078,-0
 .00000519,0.00000664,-0.00000071,-0.00000976,-0.00006838,0.00000051,0.
 00000148,0.00001430,0.00000403,-0.24026684,-0.20918169,-0.07058942,-0.
 00192045,0.00235652,-0.00145548,-0.00006159,-0.00383860,-0.00699516,0.
 23927600,0.21208830,0.00005475,0.00002060,-0.00001308,-0.00000416,-0.0
 0005850,0.00017890,0.00147428,-0.00082665,-0.00075107,-0.00011583,0.00
 019225,-0.00052377,-0.00015526,-0.00010505,0.00001432,0.00004592,0.000
 00276,0.00001300,-0.00001224,-0.00006359,0.00020846,-0.00000124,0.0000
 0254,-0.00000482,0.00001388,-0.00001609,0.00000443,0.00001308,0.000022
 72,-0.00000296,0.00001020,-0.00000014,0.00000292,-0.00010693,0.0002097
 7,-0.00026804,0.00009691,-0.00005044,0.00007617,0.00003256,0.00001648,
 0.00009778,-0.00125202,0.00138429,-0.00023959,-0.00000462,-0.00010801,
 0.00003993,0.00003280,0.00002486,0.00001025,-0.00005118,0.00008535,-0.
 00003385,-0.00000391,-0.00001336,0.00002347,-0.00008964,0.00000659,-0.
 00002164,0.00001135,-0.00000347,0.00000182,-0.00006865,-0.00002116,-0.
 00001017,0.00003983,-0.00000012,0.00003547,-0.10303079,-0.10403670,-0.
 07912159,0.00129689,-0.00330157,0.00090248,0.03030145,0.02795462,0.010
 56226,0.07148073,0.07867559,0.06881606,0.00078964,0.00361192,0.0013476
 1,0.00055995,0.00072732,0.00012554,-0.00105748,-0.00084844,0.00024213,
 0.00038994,0.00072734,-0.00044557,0.00118876,0.00029931,-0.00073119,-0
 .00028740,0.00103476,0.00090534,-0.00009851,-0.00011685,0.00001188,0.0
 0020065,-0.00025017,-0.00021990,-0.00004198,0.00003182,-0.00005950,-0.
 00042588,-0.00005256,-0.00008733,0.00088749,0.00017800,-0.00164513,0.0
 0034282,-0.00026848,-0.00011711,-0.00020803,0.00009918,-0.00005488,0.0
 0008344,-0.00000248,0.00000365,-0.00055496,-0.00037349,0.00040479,-0.0
 0061283,0.00064030,0.00004818,0.00060231,-0.00110559,-0.00003270,-0.00
 018782,-0.00111324,-0.00019881,-0.00007097,0.00034839,-0.00004653,0.00
 317769,-0.00365015,-0.00334139,-0.00163765,-0.00020786,-0.00102536,-0.
 00621104,0.00084404,-0.01029272,-0.00772116,-0.00194199,0.00551649,-0.
 00052663,0.00001406,0.00011001,0.00033566,0.00001479,-0.00013131,0.000
 46790,0.00002101,-0.00006082,0.00009554,-0.00000960,-0.00004864,0.1065
 8130,-0.00259581,-0.00351349,0.00165919,-0.00029309,0.00036266,0.00016
 899,0.00021270,0.00100458,-0.00007032,0.00058987,-0.00100376,0.0001131
 4,-0.00001015,0.00019462,-0.00015657,0.00571666,-0.00140767,-0.0005939
 9,-0.00013166,0.00011115,-0.00000793,-0.00119737,0.00030707,-0.0002444
 1,0.00014021,0.00007101,-0.00016922,-0.00008409,0.00005813,-0.00009865
 ,-0.00019503,-0.00003182,-0.00053617,-0.00054412,-0.00057279,-0.000104
 62,0.00005268,0.00010771,0.00006706,-0.00001706,0.00002093,0.00000339,
 -0.00030265,0.00043241,0.00008626,0.00059776,0.00044204,0.00016349,-0.
 00053741,0.00008825,-0.00026799,-0.00021586,0.00001622,-0.00006636,0.0
 0020768,0.00037289,0.00009226,-0.00727807,-0.00450395,-0.00860970,-0.0
 0033313,-0.00054828,0.00039701,0.00565972,0.00484433,0.00599752,0.0008
 7238,-0.00686631,-0.00620785,-0.00010983,0.00015510,-0.00003076,0.0001
 0440,-0.00011780,0.00003224,0.00004836,-0.00010864,0.00000557,0.000034
 12,-0.00002596,-0.00000228,0.11193120,0.45929797,0.00295800,0.00386625
 ,-0.00294952,0.00002663,0.00060419,-0.00082037,-0.00107622,-0.00061231
 ,0.00035913,0.00035964,0.00019089,-0.00086244,0.00048430,-0.00024782,0
 .00056857,0.00274007,-0.00105144,0.00042710,-0.00010572,-0.00003724,0.
 00007737,-0.00057746,0.00026084,-0.00008859,0.00004728,-0.00010023,0.0
 0016860,0.00010390,-0.00010286,0.00020891,-0.00058053,-0.00042721,0.00
 071689,0.00029833,0.00001338,-0.00050511,-0.00016453,0.00006347,0.0000
 5345,-0.00005574,-0.00003257,0.00014779,-0.00040173,-0.00002438,0.0007
 5481,-0.00074469,0.00059496,0.00044017,0.00068734,-0.00113681,-0.00053
 176,-0.00028468,-0.00075349,0.00028829,0.00011646,0.00049612,-0.000158
 69,-0.00622953,-0.00834662,-0.00550229,-0.00026591,0.00110664,0.001996
 56,-0.01411048,0.00323053,-0.00882796,0.00297761,-0.00509341,-0.001009
 94,-0.00035004,0.00002123,0.00015646,0.00017976,0.00002279,-0.00012559
 ,0.00036356,-0.00000958,-0.00009051,0.00006771,-0.00000917,-0.00004390
 ,-0.11330620,0.13936482,0.54863441,0.00005702,0.00074201,-0.00175609,-
 0.00027091,-0.00059241,-0.00041755,0.00044105,-0.00000683,-0.00007533,
 -0.00051235,0.00008044,0.00018491,-0.00067297,-0.00034313,0.00026070,-
 0.00371103,-0.00123518,-0.00273910,0.00012465,0.00001109,0.00000481,0.
 00020863,0.00001052,0.00027288,-0.00008301,-0.00016443,0.00026562,0.00
 022874,-0.00003374,0.00012945,-0.00064260,0.00023455,0.00073792,0.0001
 3870,0.00033727,0.00015210,0.00008764,-0.00010371,-0.00001246,-0.00003
 378,-0.00000520,-0.00000275,0.00044684,0.00002150,-0.00025882,0.000026
 02,-0.00041203,-0.00006192,-0.00008131,0.00038888,0.00008049,0.0002304
 3,0.00075645,0.00024350,-0.00001554,-0.00041370,0.00000759,-0.00379637
 ,0.00285077,0.00402903,0.00278094,0.00050816,0.00163375,-0.00085172,-0
 .00143294,-0.00026484,0.00161911,0.00426108,0.00046501,0.00032334,-0.0
 0006472,-0.00004532,-0.00021877,0.00003893,0.00006234,-0.00026628,0.00
 003019,0.00002878,-0.00006311,0.00001236,0.00002781,-0.04577635,-0.121
 34572,-0.02468618,0.04788402,0.00235545,0.00269470,0.00115585,0.000219
 49,-0.00042518,-0.00014106,-0.00010364,-0.00088962,-0.00001639,-0.0005
 9088,0.00097110,0.00013056,0.00037568,-0.00008871,-0.00040528,-0.00586
 716,0.00212103,0.00199590,0.00013857,-0.00010691,-0.00001224,0.0018268
 9,-0.00049257,0.00028359,-0.00023042,-0.00006753,0.00021476,-0.0001201
 5,-0.00000960,-0.00004470,0.00044344,-0.00006604,-0.00053898,0.0004053
 2,0.00030550,0.00012296,-0.00002636,-0.00007089,-0.00005901,0.00003424
 ,-0.00002026,-0.00001246,0.00025122,-0.00042965,-0.00021987,-0.0004182
 9,-0.00015751,-0.00006657,0.00034777,-0.00022589,0.00007148,0.00021598
 ,0.00004550,0.00003896,-0.00021292,-0.00040837,-0.00010534,0.00557492,
 -0.00435544,0.00083529,0.00067355,0.00152146,0.00063206,-0.00353345,-0
 .00041126,-0.00226021,0.00328101,-0.00546345,0.00477805,0.00010638,-0.
 00011668,0.00000227,-0.00008283,0.00006816,-0.00002289,-0.00006579,0.0
 0008430,0.00000383,-0.00003309,0.00002101,0.00000711,-0.10115248,-0.39
 995337,-0.12296273,0.09958070,0.40689681,-0.00007860,0.00146277,0.0013
 1263,0.00047143,-0.00086953,0.00117272,0.00027753,-0.00025328,-0.00029
 293,-0.00056374,0.00070506,0.00050934,-0.00019460,-0.00044630,-0.00043
 077,-0.00837795,0.00193422,-0.00033767,0.00018956,-0.00007365,-0.00004
 763,0.00160313,-0.00042931,0.00044533,-0.00013745,0.00006535,-0.000169
 10,-0.00003335,0.00001555,-0.00004588,0.00018324,-0.00009721,-0.000484
 09,0.00029353,0.00029060,0.00033463,0.00007352,-0.00012361,-0.00007032
 ,0.00002414,-0.00001034,-0.00006624,0.00039310,-0.00025015,-0.00061773
 ,-0.00001987,-0.00038146,-0.00019145,-0.00003178,0.00034102,0.00020706
 ,0.00035680,0.00055229,-0.00044317,-0.00027886,-0.00075740,0.00017330,
 0.00947046,0.00447018,0.00085058,-0.00019364,-0.00248574,-0.00613982,-
 0.00100302,-0.00228810,-0.00241352,0.00200053,0.00436771,0.00471944,0.
 00024672,-0.00007423,-0.00008846,-0.00014975,0.00000477,0.00004125,-0.
 00023416,0.00005215,0.00005004,-0.00005712,0.00001594,0.00003148,-0.00
 651909,-0.06924218,-0.07763186,0.01446893,0.10941532,0.09268816,0.0007
 3522,0.00033577,-0.00164746,-0.00010464,-0.00024279,-0.00024663,0.0001
 1217,0.00009535,0.00004173,-0.00007481,-0.00017031,-0.00016312,-0.0002
 7839,-0.00015830,0.00030556,0.00059271,-0.00034919,0.00010275,0.000029
 42,0.00003374,0.00003495,-0.00013828,0.00017461,0.00009002,0.00002186,
 -0.00007037,0.00006521,0.00014234,-0.00001781,0.00011301,-0.00067989,-
 0.00023028,0.00048282,-0.00000121,0.00014933,-0.00018620,0.00004010,-0
 .00002518,0.00005973,-0.00007131,-0.00002190,0.00007517,0.00017078,0.0
 0017776,0.00010931,-0.00001627,-0.00009062,0.00017282,0.00001606,0.000
 05460,-0.00020668,0.00000846,0.00028959,0.00015845,0.00004103,-0.00005
 326,-0.00000853,-0.00104250,-0.00089498,-0.00053404,-0.00002187,0.0000
 6458,0.00014846,-0.00261774,0.00091364,-0.00080700,0.00298314,-0.00186
 753,-0.00053047,0.00015932,-0.00000778,0.00000539,-0.00012715,-0.00000
 281,0.00001073,-0.00011011,-0.00000814,-0.00000574,-0.00002912,0.00000
 272,0.00001268,-0.05028439,0.00902330,0.15152904,0.00239898,-0.0033931
 6,-0.01217963,0.04814609,0.00010584,-0.00026476,0.00009210,-0.00011139
 ,-0.00001637,-0.00037546,0.00019550,-0.00018568,0.00006590,-0.00017711
 ,0.00010690,-0.00002583,-0.00007337,0.00022857,0.00001704,0.00006769,-
 0.00018947,-0.00037104,0.00001883,-0.00000527,0.00000451,-0.00007897,-
 0.00000202,0.00003681,-0.00001477,-0.00005580,0.00011260,0.00001041,-0
 .00001257,-0.00000290,0.00004628,0.00025197,0.00010636,0.00005477,0.00
 018494,0.00012429,0.00000141,-0.00002832,-0.00003403,0.00002448,0.0000
 1573,-0.00003497,0.00013936,-0.00010374,0.00000640,-0.00004101,-0.0003
 0836,-0.00020205,-0.00002534,0.00026123,0.00026899,0.00004171,0.000073
 46,0.00019425,0.00000816,0.00000232,-0.00008613,-0.00153902,-0.0015449
 4,-0.00089915,0.00011395,0.00003249,0.00041005,0.00215539,-0.00076795,
 0.00076366,-0.00401717,0.00192643,-0.00019789,0.00008637,-0.00006606,0
 .00000415,-0.00006291,0.00006786,0.00001248,-0.00005863,0.00004260,0.0
 0000685,-0.00001864,0.00001116,0.00000160,-0.00943004,-0.04923320,-0.0
 0888827,0.01628884,-0.00097064,-0.04591042,-0.00371059,0.05054951,0.00
 016566,-0.00013644,-0.00086370,-0.00011080,-0.00018232,-0.00008118,0.0
 0019059,0.00012879,-0.00006102,-0.00015448,-0.00009316,0.00014762,-0.0
 0037509,-0.00009422,0.00022527,-0.00007729,-0.00015867,-0.00016570,0.0
 0003012,0.00001619,-0.00000793,-0.00002641,0.00006164,0.00008283,-0.00
 001594,-0.00003234,0.00005326,0.00012562,-0.00001897,0.00005755,-0.000
 52597,-0.00009673,0.00042051,-0.00005233,0.00004168,0.00002672,0.00004
 177,-0.00002185,0.00001566,-0.00002571,0.00000240,0.00000184,0.0001559
 3,0.00004810,-0.00015835,0.00009934,-0.00004447,0.00002399,-0.00011880
 ,0.00010890,-0.00008973,0.00005606,0.00023130,0.00005489,0.00000262,-0
 .00007591,-0.00000019,-0.00016454,-0.00010565,0.00049634,0.00010382,0.
 00008750,0.00006191,-0.00010129,0.00042467,0.00081814,0.00094876,-0.00
 032445,-0.00274757,0.00011719,-0.00000459,-0.00003635,-0.00007231,0.00
 000294,0.00004642,-0.00010595,-0.00000446,0.00001755,-0.00002153,0.000
 00228,0.00001527,0.12964855,-0.06174196,-0.45584999,0.00726473,0.00717
 970,-0.01306532,-0.13700233,0.05480010,0.47056126\\0.,-0.00002023,-0.0
 0000043,-0.00001299,0.00001649,0.00001661,-0.00000159,-0.00000311,0.00
 002001,-0.00001385,0.00000689,-0.00002678,-0.00001444,-0.00001508,-0.0
 0000623,0.00000304,0.00000765,-0.00000475,0.00000532,-0.00000374,0.000
 01463,-0.00000454,-0.00000028,-0.00000117,0.00000491,0.00000605,0.0000
 0418,0.00000478,-0.00000287,-0.00000358,0.00000140,0.00000346,0.000000
 73,0.00002076,0.00002884,-0.00000899,0.00000584,0.00000569,-0.00000197
 ,-0.00000047,-0.00000126,0.00000266,0.00000277,0.00000421,0.00001433,-
 0.00000629,-0.00002615,-0.00000468,-0.00001283,-0.00000158,-0.00000782
 ,-0.00000211,-0.00000423,0.00000053,-0.00000434,-0.00000512,0.00001047
 ,-0.00001381,0.00000291,-0.00000004,0.00000302,-0.00000853,-0.00001602
 ,0.00001014,-0.00000184,0.00000094,-0.00000193,-0.00000206,-0.00001690
 ,0.00002416,-0.00000850,0.00001435,-0.00001882,0.00001055,-0.00000819,
 0.00001405,0.00001122,-0.00000062,0.00000092,0.00000375,0.00000972,-0.
 00000055,-0.00000567,-0.00001434,0.00000271,0.00000171,0.00002267,0.00
 000475,0.00000082,-0.00000932\\\@


 DO NOT LET SELFISH MEN OR GREEDY INTERESTS SKIN YOUR COUNTRY OF ITS
 BEAUTY, ITS RICHES, OR ITS ROMANCE. -- THEODORE ROOSEVELT
 Job cpu time:       0 days  0 hours 34 minutes 45.8 seconds.
 File lengths (MBytes):  RWF=    221 Int=      0 D2E=      0 Chk=      6 Scr=      1
 Normal termination of Gaussian 09 at Sun Jan 15 21:02:38 2017.
