 Entering Gaussian System, Link 0=g09
 Initial command:
 /global/software/gaussian/g09.e01/l1.exe "/scratch/10454687.yak.local/Gau-25666.inp" -scrdir="/scratch/10454687.yak.local/"
 Entering Link 1 = /global/software/gaussian/g09.e01/l1.exe PID=     25667.
  
 Copyright (c) 1988,1990,1992,1993,1995,1998,2003,2009,2015,
            Gaussian, Inc.  All Rights Reserved.
  
 This is part of the Gaussian(R) 09 program.  It is based on
 the Gaussian(R) 03 system (copyright 2003, Gaussian, Inc.),
 the Gaussian(R) 98 system (copyright 1998, Gaussian, Inc.),
 the Gaussian(R) 94 system (copyright 1995, Gaussian, Inc.),
 the Gaussian 92(TM) system (copyright 1992, Gaussian, Inc.),
 the Gaussian 90(TM) system (copyright 1990, Gaussian, Inc.),
 the Gaussian 88(TM) system (copyright 1988, Gaussian, Inc.),
 the Gaussian 86(TM) system (copyright 1986, Carnegie Mellon
 University), and the Gaussian 82(TM) system (copyright 1983,
 Carnegie Mellon University). Gaussian is a federally registered
 trademark of Gaussian, Inc.
  
 This software contains proprietary and confidential information,
 including trade secrets, belonging to Gaussian, Inc.
  
 This software is provided under written license and may be
 used, copied, transmitted, or stored only in accord with that
 written license.
  
 The following legend is applicable only to US Government
 contracts under FAR:
  
                    RESTRICTED RIGHTS LEGEND
  
 Use, reproduction and disclosure by the US Government is
 subject to restrictions as set forth in subparagraphs (a)
 and (c) of the Commercial Computer Software - Restricted
 Rights clause in FAR 52.227-19.
  
 Gaussian, Inc.
 340 Quinnipiac St., Bldg. 40, Wallingford CT 06492
  
  
 ---------------------------------------------------------------
 Warning -- This program may not be used in any manner that
 competes with the business of Gaussian, Inc. or will provide
 assistance to any competitor of Gaussian, Inc.  The licensee
 of this program is prohibited from giving any competitor of
 Gaussian, Inc. access to this program.  By using this program,
 the user acknowledges that Gaussian, Inc. is engaged in the
 business of creating and licensing software in the field of
 computational chemistry and represents and warrants to the
 licensee that it is not a competitor of Gaussian, Inc. and that
 it will not use this program in any manner prohibited above.
 ---------------------------------------------------------------
  

 Cite this work as:
 Gaussian 09, Revision E.01,
 M. J. Frisch, G. W. Trucks, H. B. Schlegel, G. E. Scuseria, 
 M. A. Robb, J. R. Cheeseman, G. Scalmani, V. Barone, B. Mennucci, 
 G. A. Petersson, H. Nakatsuji, M. Caricato, X. Li, H. P. Hratchian, 
 A. F. Izmaylov, J. Bloino, G. Zheng, J. L. Sonnenberg, M. Hada, 
 M. Ehara, K. Toyota, R. Fukuda, J. Hasegawa, M. Ishida, T. Nakajima, 
 Y. Honda, O. Kitao, H. Nakai, T. Vreven, J. A. Montgomery, Jr., 
 J. E. Peralta, F. Ogliaro, M. Bearpark, J. J. Heyd, E. Brothers, 
 K. N. Kudin, V. N. Staroverov, T. Keith, R. Kobayashi, J. Normand, 
 K. Raghavachari, A. Rendell, J. C. Burant, S. S. Iyengar, J. Tomasi, 
 M. Cossi, N. Rega, J. M. Millam, M. Klene, J. E. Knox, J. B. Cross, 
 V. Bakken, C. Adamo, J. Jaramillo, R. Gomperts, R. E. Stratmann, 
 O. Yazyev, A. J. Austin, R. Cammi, C. Pomelli, J. W. Ochterski, 
 R. L. Martin, K. Morokuma, V. G. Zakrzewski, G. A. Voth, 
 P. Salvador, J. J. Dannenberg, S. Dapprich, A. D. Daniels, 
 O. Farkas, J. B. Foresman, J. V. Ortiz, J. Cioslowski, 
 and D. J. Fox, Gaussian, Inc., Wallingford CT, 2013.
 
 ******************************************
 Gaussian 09:  ES64L-G09RevE.01 30-Nov-2015
                12-Jan-2017 
 ******************************************
 %NPROCS=4
 Will use up to    4 processors via shared memory.
 -----------------------------------------
 # opt=(MaxCycle=1000) freq B3LYP/6-31G(d)
 -----------------------------------------
 1/6=1000,14=-1,18=20,19=15,26=3,38=1/1,3;
 2/9=110,12=2,17=6,18=5,40=1/2;
 3/5=1,6=6,7=1,11=2,16=1,25=1,30=1,71=1,74=-5/1,2,3;
 4//1;
 5/5=2,38=5/2;
 6/7=2,8=2,9=2,10=2,28=1/1;
 7//1,2,3,16;
 1/6=1000,14=-1,18=20,19=15,26=3/3(2);
 2/9=110/2;
 99//99;
 2/9=110/2;
 3/5=1,6=6,7=1,11=2,16=1,25=1,30=1,71=1,74=-5/1,2,3;
 4/5=5,16=3,69=1/1;
 5/5=2,38=5/2;
 7//1,2,3,16;
 1/6=1000,14=-1,18=20,19=15,26=3/3(-5);
 2/9=110/2;
 6/7=2,8=2,9=2,10=2,19=2,28=1/1;
 99/9=1/99;
 -------------------------
 boat3_Alpha_B3LYP_6-31G_d
 -------------------------
 Symbolic Z-matrix:
 Charge =  0 Multiplicity = 1
 C                    -0.78594   0.45165   0.98442 
 C                     1.08811   0.30124  -0.80395 
 O                    -0.16254  -1.80227   0.06833 
 C                     1.12417  -1.20551  -0.52405 
 C                    -1.15629  -0.74405   0.20891 
 C                     0.50083   1.04827   0.39201 
 H                     1.27161   1.1097    1.17197 
 H                     0.53235   0.52716  -1.71544 
 H                    -1.90179  -1.24444   0.84594 
 H                    -1.58862   1.19388   1.0299 
 C                    -1.93876  -0.53068  -1.10336 
 H                    -2.33462  -1.48906  -1.46079 
 H                    -1.32211  -0.15336  -1.9176 
 O                    -3.02375   0.37117  -0.93218 
 H                    -3.71202  -0.0877   -0.41729 
 O                     2.42773   0.77833  -1.04631 
 H                     2.34158   1.75269  -1.09935 
 O                     0.29583   2.41451  -0.0136 
 H                    -0.03124   2.89442   0.7711 
 O                    -0.5083    0.07564   2.34626 
 H                     0.05108  -0.72848   2.31675 
 H                     1.34799  -1.78361  -1.42576 
 O                     2.15433  -1.46783   0.42864 
 H                     2.8867   -0.87308   0.16746 
 

 GradGradGradGradGradGradGradGradGradGradGradGradGradGradGradGradGradGrad
 Berny optimization.
 Initialization pass.
                           ----------------------------
                           !    Initial Parameters    !
                           ! (Angstroms and Degrees)  !
 --------------------------                            --------------------------
 ! Name  Definition              Value          Derivative Info.                !
 --------------------------------------------------------------------------------
 ! R1    R(1,5)                  1.4725         estimate D2E/DX2                !
 ! R2    R(1,6)                  1.5371         estimate D2E/DX2                !
 ! R3    R(1,10)                 1.0942         estimate D2E/DX2                !
 ! R4    R(1,20)                 1.4398         estimate D2E/DX2                !
 ! R5    R(2,4)                  1.533          estimate D2E/DX2                !
 ! R6    R(2,6)                  1.5275         estimate D2E/DX2                !
 ! R7    R(2,8)                  1.0912         estimate D2E/DX2                !
 ! R8    R(2,16)                 1.4425         estimate D2E/DX2                !
 ! R9    R(3,4)                  1.5371         estimate D2E/DX2                !
 ! R10   R(3,5)                  1.4585         estimate D2E/DX2                !
 ! R11   R(4,22)                 1.0942         estimate D2E/DX2                !
 ! R12   R(4,23)                 1.4275         estimate D2E/DX2                !
 ! R13   R(5,9)                  1.1009         estimate D2E/DX2                !
 ! R14   R(5,11)                 1.5427         estimate D2E/DX2                !
 ! R15   R(6,7)                  1.0983         estimate D2E/DX2                !
 ! R16   R(6,18)                 1.4398         estimate D2E/DX2                !
 ! R17   R(11,12)                1.0968         estimate D2E/DX2                !
 ! R18   R(11,13)                1.0889         estimate D2E/DX2                !
 ! R19   R(11,14)                1.4212         estimate D2E/DX2                !
 ! R20   R(14,15)                0.9744         estimate D2E/DX2                !
 ! R21   R(16,17)                0.9796         estimate D2E/DX2                !
 ! R22   R(18,19)                0.9762         estimate D2E/DX2                !
 ! R23   R(20,21)                0.98           estimate D2E/DX2                !
 ! R24   R(23,24)                0.9789         estimate D2E/DX2                !
 ! A1    A(5,1,6)              108.8295         estimate D2E/DX2                !
 ! A2    A(5,1,10)             112.8426         estimate D2E/DX2                !
 ! A3    A(5,1,20)             109.5473         estimate D2E/DX2                !
 ! A4    A(6,1,10)             111.5201         estimate D2E/DX2                !
 ! A5    A(6,1,20)             107.7268         estimate D2E/DX2                !
 ! A6    A(10,1,20)            106.2177         estimate D2E/DX2                !
 ! A7    A(4,2,6)              110.2902         estimate D2E/DX2                !
 ! A8    A(4,2,8)              111.5925         estimate D2E/DX2                !
 ! A9    A(4,2,16)             109.5059         estimate D2E/DX2                !
 ! A10   A(6,2,8)              110.912          estimate D2E/DX2                !
 ! A11   A(6,2,16)             109.0769         estimate D2E/DX2                !
 ! A12   A(8,2,16)             105.3174         estimate D2E/DX2                !
 ! A13   A(4,3,5)              109.0161         estimate D2E/DX2                !
 ! A14   A(2,4,3)              115.6121         estimate D2E/DX2                !
 ! A15   A(2,4,22)             111.939          estimate D2E/DX2                !
 ! A16   A(2,4,23)             108.6302         estimate D2E/DX2                !
 ! A17   A(3,4,22)             106.481          estimate D2E/DX2                !
 ! A18   A(3,4,23)             105.9958         estimate D2E/DX2                !
 ! A19   A(22,4,23)            107.7748         estimate D2E/DX2                !
 ! A20   A(1,5,3)              117.9409         estimate D2E/DX2                !
 ! A21   A(1,5,9)              103.5708         estimate D2E/DX2                !
 ! A22   A(1,5,11)             117.598          estimate D2E/DX2                !
 ! A23   A(3,5,9)              100.8004         estimate D2E/DX2                !
 ! A24   A(3,5,11)             111.3441         estimate D2E/DX2                !
 ! A25   A(9,5,11)             102.2173         estimate D2E/DX2                !
 ! A26   A(1,6,2)              115.7079         estimate D2E/DX2                !
 ! A27   A(1,6,7)              109.604          estimate D2E/DX2                !
 ! A28   A(1,6,18)             110.9582         estimate D2E/DX2                !
 ! A29   A(2,6,7)              108.2736         estimate D2E/DX2                !
 ! A30   A(2,6,18)             107.3515         estimate D2E/DX2                !
 ! A31   A(7,6,18)             104.2945         estimate D2E/DX2                !
 ! A32   A(5,11,12)            109.8416         estimate D2E/DX2                !
 ! A33   A(5,11,13)            113.3772         estimate D2E/DX2                !
 ! A34   A(5,11,14)            111.8717         estimate D2E/DX2                !
 ! A35   A(12,11,13)           105.2785         estimate D2E/DX2                !
 ! A36   A(12,11,14)           108.5541         estimate D2E/DX2                !
 ! A37   A(13,11,14)           107.6093         estimate D2E/DX2                !
 ! A38   A(11,14,15)           107.7023         estimate D2E/DX2                !
 ! A39   A(2,16,17)            104.8561         estimate D2E/DX2                !
 ! A40   A(6,18,19)            106.7219         estimate D2E/DX2                !
 ! A41   A(1,20,21)            107.2095         estimate D2E/DX2                !
 ! A42   A(4,23,24)            104.4891         estimate D2E/DX2                !
 ! D1    D(6,1,5,3)             55.2048         estimate D2E/DX2                !
 ! D2    D(6,1,5,9)            165.4619         estimate D2E/DX2                !
 ! D3    D(6,1,5,11)           -82.7096         estimate D2E/DX2                !
 ! D4    D(10,1,5,3)           179.5512         estimate D2E/DX2                !
 ! D5    D(10,1,5,9)           -70.1918         estimate D2E/DX2                !
 ! D6    D(10,1,5,11)           41.6367         estimate D2E/DX2                !
 ! D7    D(20,1,5,3)           -62.34           estimate D2E/DX2                !
 ! D8    D(20,1,5,9)            47.917          estimate D2E/DX2                !
 ! D9    D(20,1,5,11)          159.7455         estimate D2E/DX2                !
 ! D10   D(5,1,6,2)             -0.4133         estimate D2E/DX2                !
 ! D11   D(5,1,6,7)           -123.1572         estimate D2E/DX2                !
 ! D12   D(5,1,6,18)           122.1919         estimate D2E/DX2                !
 ! D13   D(10,1,6,2)          -125.5374         estimate D2E/DX2                !
 ! D14   D(10,1,6,7)           111.7187         estimate D2E/DX2                !
 ! D15   D(10,1,6,18)           -2.9322         estimate D2E/DX2                !
 ! D16   D(20,1,6,2)           118.2805         estimate D2E/DX2                !
 ! D17   D(20,1,6,7)            -4.4635         estimate D2E/DX2                !
 ! D18   D(20,1,6,18)         -119.1143         estimate D2E/DX2                !
 ! D19   D(5,1,20,21)           44.9054         estimate D2E/DX2                !
 ! D20   D(6,1,20,21)          -73.3276         estimate D2E/DX2                !
 ! D21   D(10,1,20,21)         167.0653         estimate D2E/DX2                !
 ! D22   D(6,2,4,3)             46.3676         estimate D2E/DX2                !
 ! D23   D(6,2,4,22)           168.5259         estimate D2E/DX2                !
 ! D24   D(6,2,4,23)           -72.5861         estimate D2E/DX2                !
 ! D25   D(8,2,4,3)            -77.3839         estimate D2E/DX2                !
 ! D26   D(8,2,4,22)            44.7744         estimate D2E/DX2                !
 ! D27   D(8,2,4,23)           163.6623         estimate D2E/DX2                !
 ! D28   D(16,2,4,3)           166.4101         estimate D2E/DX2                !
 ! D29   D(16,2,4,22)          -71.4316         estimate D2E/DX2                !
 ! D30   D(16,2,4,23)           47.4564         estimate D2E/DX2                !
 ! D31   D(4,2,6,1)            -46.417          estimate D2E/DX2                !
 ! D32   D(4,2,6,7)             77.0274         estimate D2E/DX2                !
 ! D33   D(4,2,6,18)          -170.9118         estimate D2E/DX2                !
 ! D34   D(8,2,6,1)             77.7277         estimate D2E/DX2                !
 ! D35   D(8,2,6,7)           -158.8279         estimate D2E/DX2                !
 ! D36   D(8,2,6,18)           -46.7672         estimate D2E/DX2                !
 ! D37   D(16,2,6,1)          -166.7178         estimate D2E/DX2                !
 ! D38   D(16,2,6,7)           -43.2735         estimate D2E/DX2                !
 ! D39   D(16,2,6,18)           68.7873         estimate D2E/DX2                !
 ! D40   D(4,2,16,17)         -172.8413         estimate D2E/DX2                !
 ! D41   D(6,2,16,17)          -52.0593         estimate D2E/DX2                !
 ! D42   D(8,2,16,17)           67.0388         estimate D2E/DX2                !
 ! D43   D(5,3,4,2)              0.8156         estimate D2E/DX2                !
 ! D44   D(5,3,4,22)          -124.2076         estimate D2E/DX2                !
 ! D45   D(5,3,4,23)           121.2107         estimate D2E/DX2                !
 ! D46   D(4,3,5,1)            -55.298          estimate D2E/DX2                !
 ! D47   D(4,3,5,9)           -167.111          estimate D2E/DX2                !
 ! D48   D(4,3,5,11)            85.08           estimate D2E/DX2                !
 ! D49   D(2,4,23,24)          -39.4731         estimate D2E/DX2                !
 ! D50   D(3,4,23,24)         -164.3068         estimate D2E/DX2                !
 ! D51   D(22,4,23,24)          82.0014         estimate D2E/DX2                !
 ! D52   D(1,5,11,12)         -167.7753         estimate D2E/DX2                !
 ! D53   D(1,5,11,13)           74.7618         estimate D2E/DX2                !
 ! D54   D(1,5,11,14)          -47.1534         estimate D2E/DX2                !
 ! D55   D(3,5,11,12)           51.6976         estimate D2E/DX2                !
 ! D56   D(3,5,11,13)          -65.7652         estimate D2E/DX2                !
 ! D57   D(3,5,11,14)          172.3196         estimate D2E/DX2                !
 ! D58   D(9,5,11,12)          -55.1878         estimate D2E/DX2                !
 ! D59   D(9,5,11,13)         -172.6507         estimate D2E/DX2                !
 ! D60   D(9,5,11,14)           65.4341         estimate D2E/DX2                !
 ! D61   D(1,6,18,19)           55.8263         estimate D2E/DX2                !
 ! D62   D(2,6,18,19)         -176.8486         estimate D2E/DX2                !
 ! D63   D(7,6,18,19)          -62.1016         estimate D2E/DX2                !
 ! D64   D(5,11,14,15)         -72.2425         estimate D2E/DX2                !
 ! D65   D(12,11,14,15)         49.1258         estimate D2E/DX2                !
 ! D66   D(13,11,14,15)        162.5886         estimate D2E/DX2                !
 --------------------------------------------------------------------------------
 Trust Radius=3.00D-01 FncErr=1.00D-07 GrdErr=1.00D-06
 Number of steps in this run=    144 maximum allowed number of steps=    144.
 GradGradGradGradGradGradGradGradGradGradGradGradGradGradGradGradGradGrad

                          Input orientation:                          
 ---------------------------------------------------------------------
 Center     Atomic      Atomic             Coordinates (Angstroms)
 Number     Number       Type             X           Y           Z
 ---------------------------------------------------------------------
      1          6           0       -0.785935    0.451645    0.984424
      2          6           0        1.088111    0.301241   -0.803953
      3          8           0       -0.162541   -1.802266    0.068333
      4          6           0        1.124171   -1.205514   -0.524045
      5          6           0       -1.156290   -0.744054    0.208906
      6          6           0        0.500833    1.048272    0.392011
      7          1           0        1.271610    1.109701    1.171965
      8          1           0        0.532346    0.527163   -1.715437
      9          1           0       -1.901792   -1.244444    0.845944
     10          1           0       -1.588616    1.193878    1.029900
     11          6           0       -1.938762   -0.530684   -1.103363
     12          1           0       -2.334622   -1.489061   -1.460786
     13          1           0       -1.322109   -0.153361   -1.917604
     14          8           0       -3.023749    0.371170   -0.932177
     15          1           0       -3.712017   -0.087700   -0.417292
     16          8           0        2.427726    0.778325   -1.046310
     17          1           0        2.341584    1.752691   -1.099346
     18          8           0        0.295828    2.414508   -0.013597
     19          1           0       -0.031238    2.894416    0.771104
     20          8           0       -0.508303    0.075642    2.346262
     21          1           0        0.051083   -0.728477    2.316754
     22          1           0        1.347989   -1.783608   -1.425757
     23          8           0        2.154329   -1.467825    0.428641
     24          1           0        2.886697   -0.873077    0.167458
 ---------------------------------------------------------------------
                    Distance matrix (angstroms):
                    1          2          3          4          5
     1  C    0.000000
     2  C    2.594795   0.000000
     3  O    2.511565   2.598029   0.000000
     4  C    2.944513   1.532958   1.537092   0.000000
     5  C    1.472510   2.675044   1.458462   2.439398   0.000000
     6  C    1.537104   1.527508   2.944554   2.511426   2.447860
     7  H    2.168341   2.142786   3.428461   2.873745   3.202903
     8  H    3.005465   1.091201   3.015119   2.184454   2.858423
     9  H    2.034952   3.748443   1.985154   3.321873   1.100900
    10  H    1.094200   3.365217   3.454733   3.940944   2.148608
    11  C    2.579309   3.153364   2.478861   3.189446   1.542673
    12  H    3.484799   3.918126   2.674741   3.594598   2.175172
    13  H    3.012521   2.693704   2.829741   3.005548   2.213246
    14  O    2.947481   4.114453   3.729793   4.456203   2.456257
    15  H    3.289021   4.831357   3.971693   4.964838   2.711949
    16  O    3.815523   1.442537   3.822481   2.430562   4.091256
    17  H    3.976958   1.940402   4.502426   3.250237   4.492258
    18  O    2.453383   2.391291   4.242405   3.748502   3.483485
    19  H    2.565580   3.233930   4.750784   4.452169   3.849711
    20  O    1.439813   3.538826   2.972381   3.541891   2.379092
    21  H    1.966822   3.445948   2.500811   3.073959   2.429201
    22  H    3.919051   2.191066   2.124701   1.094245   3.166103
    23  O    3.555054   2.405349   2.368451   1.427460   3.395928
    24  H    3.988803   2.357451   3.189212   1.922287   4.045258
                    6          7          8          9         10
     6  C    0.000000
     7  H    1.098271   0.000000
     8  H    2.171148   3.036931   0.000000
     9  H    3.351896   3.964690   3.952757   0.000000
    10  H    2.189498   2.864989   3.532685   2.465225   0.000000
    11  C    3.268160   4.263152   2.756819   2.076203   2.765416
    12  H    4.232106   5.166222   3.514187   2.359700   3.736068
    13  H    3.178264   4.227072   1.985696   3.027159   3.251747
    14  O    3.825522   4.839726   3.644673   2.651549   2.566360
    15  H    4.437737   5.366195   4.480832   2.492135   2.871522
    16  O    2.419619   2.523323   2.025655   5.139742   4.540301
    17  H    2.471582   2.591743   2.270425   5.547361   4.504712
    18  O    1.439842   2.015001   2.552307   4.353880   2.475874
    19  H    1.958331   2.245732   3.479138   4.542547   2.320395
    20  O    2.404883   2.369882   4.217134   2.436266   2.037238
    21  H    2.657771   2.485785   4.250507   2.498645   2.835499
    22  H    3.470086   3.889117   2.467560   4.001550   4.849672
    23  O    3.011002   2.824069   3.347817   4.083645   4.632042
    24  H    3.071539   2.747535   3.323994   4.850555   5.004452
                   11         12         13         14         15
    11  C    0.000000
    12  H    1.096787   0.000000
    13  H    1.088863   1.737228   0.000000
    14  O    1.421211   2.052994   2.035136   0.000000
    15  H    1.952271   2.224839   2.822571   0.974362   0.000000
    16  O    4.558835   5.290821   3.960865   5.467850   6.232344
    17  H    4.851307   5.701447   4.210134   5.542864   6.363829
    18  O    3.854236   4.924579   3.582864   4.004823   4.742029
    19  H    4.345525   5.431554   4.264322   4.268847   4.883998
    20  O    3.783353   4.503038   4.346870   4.142821   4.234111
    21  H    3.961793   4.532095   4.488452   4.606449   4.695373
    22  H    3.532207   3.694538   3.166866   4.898855   5.431093
    23  O    4.469750   4.870428   4.395259   5.660938   6.085586
    24  H    5.001727   5.503888   4.751792   6.139277   6.670965
                   16         17         18         19         20
    16  O    0.000000
    17  H    0.979603   0.000000
    18  O    2.878989   2.408728   0.000000
    19  H    3.718513   3.229923   0.976237   0.000000
    20  O    4.541319   4.775622   3.418458   3.264077   0.000000
    21  H    4.385098   4.803366   3.920305   3.939691   0.979995
    22  H    2.805942   3.687707   4.552518   5.349054   4.596820
    23  O    2.701003   3.569528   4.326905   4.891128   3.626178
    24  H    2.100242   2.965906   4.189701   4.803409   4.144066
                   21         22         23         24
    21  H    0.000000
    22  H    4.098982   0.000000
    23  O    2.921515   2.046630   0.000000
    24  H    3.561052   2.394791   0.978930   0.000000
 Stoichiometry    C6H12O6
 Framework group  C1[X(C6H12O6)]
 Deg. of freedom    66
 Full point group                 C1      NOp   1
 Largest Abelian subgroup         C1      NOp   1
 Largest concise Abelian subgroup C1      NOp   1
                         Standard orientation:                         
 ---------------------------------------------------------------------
 Center     Atomic      Atomic             Coordinates (Angstroms)
 Number     Number       Type             X           Y           Z
 ---------------------------------------------------------------------
      1          6           0       -0.785935    0.451645    0.984424
      2          6           0        1.088111    0.301241   -0.803953
      3          8           0       -0.162541   -1.802266    0.068333
      4          6           0        1.124171   -1.205514   -0.524045
      5          6           0       -1.156290   -0.744054    0.208906
      6          6           0        0.500833    1.048272    0.392011
      7          1           0        1.271610    1.109701    1.171965
      8          1           0        0.532346    0.527163   -1.715437
      9          1           0       -1.901792   -1.244444    0.845944
     10          1           0       -1.588616    1.193878    1.029900
     11          6           0       -1.938762   -0.530684   -1.103363
     12          1           0       -2.334622   -1.489061   -1.460786
     13          1           0       -1.322109   -0.153361   -1.917604
     14          8           0       -3.023749    0.371170   -0.932177
     15          1           0       -3.712017   -0.087700   -0.417292
     16          8           0        2.427726    0.778325   -1.046310
     17          1           0        2.341584    1.752691   -1.099346
     18          8           0        0.295828    2.414508   -0.013597
     19          1           0       -0.031238    2.894416    0.771104
     20          8           0       -0.508303    0.075642    2.346262
     21          1           0        0.051083   -0.728477    2.316754
     22          1           0        1.347989   -1.783608   -1.425757
     23          8           0        2.154329   -1.467825    0.428641
     24          1           0        2.886697   -0.873077    0.167458
 ---------------------------------------------------------------------
 Rotational constants (GHZ):      1.1430732      0.7773600      0.6965927
 Standard basis: 6-31G(d) (6D, 7F)
 There are   204 symmetry adapted cartesian basis functions of A   symmetry.
 There are   204 symmetry adapted basis functions of A   symmetry.
   204 basis functions,   384 primitive gaussians,   204 cartesian basis functions
    48 alpha electrons       48 beta electrons
       nuclear repulsion energy       839.8611827433 Hartrees.
 NAtoms=   24 NActive=   24 NUniq=   24 SFac= 1.00D+00 NAtFMM=   60 NAOKFM=F Big=F
 Integral buffers will be    131072 words long.
 Raffenetti 2 integral format.
 Two-electron integral symmetry is turned on.
 One-electron integrals computed using PRISM.
 NBasis=   204 RedAO= T EigKep=  1.30D-03  NBF=   204
 NBsUse=   204 1.00D-06 EigRej= -1.00D+00 NBFU=   204
 ExpMin= 1.61D-01 ExpMax= 5.48D+03 ExpMxC= 8.25D+02 IAcc=1 IRadAn=         1 AccDes= 0.00D+00
 Harris functional with IExCor=  402 and IRadAn=       1 diagonalized for initial guess.
 HarFok:  IExCor=  402 AccDes= 0.00D+00 IRadAn=         1 IDoV= 1 UseB2=F ITyADJ=14
 ICtDFT=  3500011 ScaDFX=  1.000000  1.000000  1.000000  1.000000
 FoFCou: FMM=F IPFlag=           0 FMFlag=      100000 FMFlg1=           0
         NFxFlg=           0 DoJE=T BraDBF=F KetDBF=T FulRan=T
         wScrn=  0.000000 ICntrl=     500 IOpCl=  0 I1Cent=   200000004 NGrid=           0
         NMat0=    1 NMatS0=      1 NMatT0=    0 NMatD0=    1 NMtDS0=    0 NMtDT0=    0
 Petite list used in FoFCou.
 Requested convergence on RMS density matrix=1.00D-08 within 128 cycles.
 Requested convergence on MAX density matrix=1.00D-06.
 Requested convergence on             energy=1.00D-06.
 No special actions if energy rises.
 Integral accuracy reduced to 1.0D-05 until final iterations.
 Initial convergence to 1.0D-05 achieved.  Increase integral accuracy.
 SCF Done:  E(RB3LYP) =  -687.104327639     A.U. after   14 cycles
            NFock= 14  Conv=0.35D-08     -V/T= 2.0087

 **********************************************************************

            Population analysis using the SCF density.

 **********************************************************************

 Orbital symmetries:
       Occupied  (A) (A) (A) (A) (A) (A) (A) (A) (A) (A) (A) (A)
                 (A) (A) (A) (A) (A) (A) (A) (A) (A) (A) (A) (A)
                 (A) (A) (A) (A) (A) (A) (A) (A) (A) (A) (A) (A)
                 (A) (A) (A) (A) (A) (A) (A) (A) (A) (A) (A) (A)
       Virtual   (A) (A) (A) (A) (A) (A) (A) (A) (A) (A) (A) (A)
                 (A) (A) (A) (A) (A) (A) (A) (A) (A) (A) (A) (A)
                 (A) (A) (A) (A) (A) (A) (A) (A) (A) (A) (A) (A)
                 (A) (A) (A) (A) (A) (A) (A) (A) (A) (A) (A) (A)
                 (A) (A) (A) (A) (A) (A) (A) (A) (A) (A) (A) (A)
                 (A) (A) (A) (A) (A) (A) (A) (A) (A) (A) (A) (A)
                 (A) (A) (A) (A) (A) (A) (A) (A) (A) (A) (A) (A)
                 (A) (A) (A) (A) (A) (A) (A) (A) (A) (A) (A) (A)
                 (A) (A) (A) (A) (A) (A) (A) (A) (A) (A) (A) (A)
                 (A) (A) (A) (A) (A) (A) (A) (A) (A) (A) (A) (A)
                 (A) (A) (A) (A) (A) (A) (A) (A) (A) (A) (A) (A)
                 (A) (A) (A) (A) (A) (A) (A) (A) (A) (A) (A) (A)
                 (A) (A) (A) (A) (A) (A) (A) (A) (A) (A) (A) (A)
 The electronic state is 1-A.
 Alpha  occ. eigenvalues --  -19.17693 -19.17009 -19.15896 -19.15845 -19.15486
 Alpha  occ. eigenvalues --  -19.14409 -10.30163 -10.25749 -10.24282 -10.24273
 Alpha  occ. eigenvalues --  -10.24239 -10.24109  -1.06237  -1.03700  -1.03202
 Alpha  occ. eigenvalues --   -1.02616  -1.01151  -0.99522  -0.79243  -0.76514
 Alpha  occ. eigenvalues --   -0.70058  -0.65732  -0.63505  -0.57230  -0.55160
 Alpha  occ. eigenvalues --   -0.54068  -0.52259  -0.50846  -0.49063  -0.47696
 Alpha  occ. eigenvalues --   -0.47306  -0.46098  -0.45086  -0.42822  -0.41962
 Alpha  occ. eigenvalues --   -0.39388  -0.38110  -0.36905  -0.36495  -0.34763
 Alpha  occ. eigenvalues --   -0.33975  -0.32668  -0.30580  -0.30161  -0.28739
 Alpha  occ. eigenvalues --   -0.27654  -0.26891  -0.25904
 Alpha virt. eigenvalues --    0.04581   0.05230   0.06292   0.07310   0.09406
 Alpha virt. eigenvalues --    0.09731   0.11839   0.12463   0.13846   0.14761
 Alpha virt. eigenvalues --    0.15273   0.17446   0.17992   0.19002   0.19838
 Alpha virt. eigenvalues --    0.20310   0.22429   0.23931   0.24301   0.25805
 Alpha virt. eigenvalues --    0.27236   0.29800   0.34041   0.36541   0.49912
 Alpha virt. eigenvalues --    0.51096   0.53084   0.55805   0.56904   0.58061
 Alpha virt. eigenvalues --    0.60131   0.61036   0.63687   0.64768   0.67003
 Alpha virt. eigenvalues --    0.68142   0.69299   0.70911   0.72827   0.75623
 Alpha virt. eigenvalues --    0.77139   0.77794   0.80255   0.80439   0.81068
 Alpha virt. eigenvalues --    0.82337   0.84338   0.85241   0.87188   0.87565
 Alpha virt. eigenvalues --    0.88112   0.89244   0.90386   0.91736   0.92862
 Alpha virt. eigenvalues --    0.94779   0.95806   0.98030   1.00553   1.01682
 Alpha virt. eigenvalues --    1.03952   1.05583   1.05971   1.07568   1.07986
 Alpha virt. eigenvalues --    1.09330   1.11354   1.13285   1.17869   1.19533
 Alpha virt. eigenvalues --    1.20436   1.23258   1.25711   1.30271   1.30961
 Alpha virt. eigenvalues --    1.32896   1.37963   1.38900   1.42583   1.43519
 Alpha virt. eigenvalues --    1.50754   1.53707   1.55669   1.57774   1.59856
 Alpha virt. eigenvalues --    1.62377   1.64448   1.66476   1.71434   1.72044
 Alpha virt. eigenvalues --    1.72853   1.74096   1.74883   1.79175   1.79691
 Alpha virt. eigenvalues --    1.81939   1.82694   1.84608   1.86544   1.87972
 Alpha virt. eigenvalues --    1.90461   1.91701   1.95226   1.96907   1.97767
 Alpha virt. eigenvalues --    1.98180   2.00477   2.03643   2.06707   2.08738
 Alpha virt. eigenvalues --    2.09481   2.13449   2.15042   2.15854   2.22120
 Alpha virt. eigenvalues --    2.24888   2.28090   2.30323   2.32575   2.33725
 Alpha virt. eigenvalues --    2.37040   2.39495   2.42452   2.43622   2.45255
 Alpha virt. eigenvalues --    2.47289   2.48285   2.50577   2.51603   2.53780
 Alpha virt. eigenvalues --    2.55707   2.57852   2.63133   2.66103   2.72817
 Alpha virt. eigenvalues --    2.75942   2.81505   2.84092   2.90725   2.91413
 Alpha virt. eigenvalues --    2.94070   2.98439   3.02527   3.05021   3.72701
 Alpha virt. eigenvalues --    3.76739   3.79697   3.82832   3.92055   4.06089
 Alpha virt. eigenvalues --    4.31188   4.34347   4.48475   4.54808   4.57107
 Alpha virt. eigenvalues --    4.78340
          Condensed to atoms (all electrons):
               1          2          3          4          5          6
     1  C    5.046698  -0.028419  -0.030009  -0.009886   0.289537   0.235127
     2  C   -0.028419   5.058492  -0.019428   0.291417  -0.007130   0.284266
     3  O   -0.030009  -0.019428   8.280408   0.225230   0.196106  -0.011440
     4  C   -0.009886   0.291417   0.225230   4.714165  -0.033959  -0.024710
     5  C    0.289537  -0.007130   0.196106  -0.033959   5.096751  -0.028627
     6  C    0.235127   0.284266  -0.011440  -0.024710  -0.028627   5.110840
     7  H   -0.047872  -0.036682   0.000262  -0.007659   0.002759   0.348332
     8  H    0.001272   0.346384   0.002221  -0.042234  -0.004793  -0.045699
     9  H   -0.054793   0.000368  -0.040022   0.005997   0.355045   0.008485
    10  H    0.362021   0.002090   0.002515   0.000386  -0.029448  -0.049275
    11  C   -0.050170  -0.005873  -0.033888  -0.007911   0.274679  -0.002901
    12  H    0.006343   0.000081   0.005419  -0.000022  -0.037963  -0.000191
    13  H   -0.006442  -0.000424   0.001228   0.002152  -0.044066   0.001317
    14  O   -0.001912   0.000024   0.001384   0.000107  -0.045055   0.000263
    15  H   -0.001223  -0.000002   0.000013   0.000008  -0.001712   0.000016
    16  O    0.003955   0.208384   0.000533  -0.034675   0.000005  -0.035531
    17  H    0.000593  -0.027874  -0.000041   0.005285  -0.000039  -0.006429
    18  O   -0.032320  -0.035668   0.000035   0.002175   0.002173   0.184338
    19  H   -0.002219   0.006537   0.000002  -0.000194   0.000395  -0.027879
    20  O    0.228866   0.002640  -0.003504   0.000940  -0.033979  -0.049137
    21  H   -0.031414  -0.001393   0.012273   0.000597  -0.006092  -0.002683
    22  H   -0.000296  -0.058739  -0.041446   0.376659   0.003099   0.006614
    23  O    0.001542  -0.025650  -0.041605   0.226403  -0.001315  -0.006759
    24  H    0.000019  -0.014072   0.003696  -0.027850  -0.000130   0.000108
               7          8          9         10         11         12
     1  C   -0.047872   0.001272  -0.054793   0.362021  -0.050170   0.006343
     2  C   -0.036682   0.346384   0.000368   0.002090  -0.005873   0.000081
     3  O    0.000262   0.002221  -0.040022   0.002515  -0.033888   0.005419
     4  C   -0.007659  -0.042234   0.005997   0.000386  -0.007911  -0.000022
     5  C    0.002759  -0.004793   0.355045  -0.029448   0.274679  -0.037963
     6  C    0.348332  -0.045699   0.008485  -0.049275  -0.002901  -0.000191
     7  H    0.611653   0.007171  -0.000435   0.002970  -0.000062   0.000008
     8  H    0.007171   0.611459  -0.000013   0.000044  -0.000368   0.000225
     9  H   -0.000435  -0.000013   0.637671  -0.003907  -0.047688  -0.010764
    10  H    0.002970   0.000044  -0.003907   0.558596  -0.005094   0.000467
    11  C   -0.000062  -0.000368  -0.047688  -0.005094   5.015511   0.357756
    12  H    0.000008   0.000225  -0.010764   0.000467   0.357756   0.615439
    13  H   -0.000046   0.008370   0.006497   0.000001   0.366683  -0.041364
    14  O   -0.000006   0.000058   0.001958   0.017259   0.231606  -0.030428
    15  H   -0.000000  -0.000002   0.005322  -0.000224  -0.030998  -0.009622
    16  O    0.000090  -0.039979   0.000002  -0.000048   0.000081  -0.000003
    17  H   -0.000717  -0.001728   0.000001  -0.000013  -0.000007  -0.000000
    18  O   -0.040906   0.001307  -0.000158   0.001848   0.001295   0.000007
    19  H   -0.003170  -0.000178  -0.000009   0.003877  -0.000054  -0.000000
    20  O    0.004894  -0.000090   0.002197  -0.036313   0.004198  -0.000063
    21  H    0.001192   0.000010  -0.002581   0.005876   0.000733  -0.000015
    22  H    0.000035  -0.003753  -0.000307   0.000013   0.000926   0.000026
    23  O    0.007708   0.003832  -0.000161  -0.000009  -0.000000   0.000007
    24  H    0.001260   0.001164   0.000009   0.000002   0.000007  -0.000000
              13         14         15         16         17         18
     1  C   -0.006442  -0.001912  -0.001223   0.003955   0.000593  -0.032320
     2  C   -0.000424   0.000024  -0.000002   0.208384  -0.027874  -0.035668
     3  O    0.001228   0.001384   0.000013   0.000533  -0.000041   0.000035
     4  C    0.002152   0.000107   0.000008  -0.034675   0.005285   0.002175
     5  C   -0.044066  -0.045055  -0.001712   0.000005  -0.000039   0.002173
     6  C    0.001317   0.000263   0.000016  -0.035531  -0.006429   0.184338
     7  H   -0.000046  -0.000006  -0.000000   0.000090  -0.000717  -0.040906
     8  H    0.008370   0.000058  -0.000002  -0.039979  -0.001728   0.001307
     9  H    0.006497   0.001958   0.005322   0.000002   0.000001  -0.000158
    10  H    0.000001   0.017259  -0.000224  -0.000048  -0.000013   0.001848
    11  C    0.366683   0.231606  -0.030998   0.000081  -0.000007   0.001295
    12  H   -0.041364  -0.030428  -0.009622  -0.000003  -0.000000   0.000007
    13  H    0.574070  -0.032930   0.007257   0.000009   0.000004  -0.000246
    14  O   -0.032930   8.228529   0.235838  -0.000000  -0.000000  -0.000082
    15  H    0.007257   0.235838   0.399770   0.000000   0.000000   0.000000
    16  O    0.000009  -0.000000   0.000000   8.302938   0.237736  -0.002906
    17  H    0.000004  -0.000000   0.000000   0.237736   0.357202   0.016864
    18  O   -0.000246  -0.000082   0.000000  -0.002906   0.016864   8.325151
    19  H    0.000001  -0.000020  -0.000000  -0.000064  -0.000741   0.236676
    20  O   -0.000050   0.000018  -0.000054  -0.000022  -0.000010   0.001939
    21  H   -0.000008  -0.000021   0.000001  -0.000013  -0.000000  -0.000019
    22  H   -0.000546  -0.000003  -0.000001   0.001173  -0.000335  -0.000041
    23  O    0.000011   0.000000  -0.000000  -0.009834   0.000249   0.000041
    24  H    0.000003  -0.000000  -0.000000   0.030260  -0.000844  -0.000047
              19         20         21         22         23         24
     1  C   -0.002219   0.228866  -0.031414  -0.000296   0.001542   0.000019
     2  C    0.006537   0.002640  -0.001393  -0.058739  -0.025650  -0.014072
     3  O    0.000002  -0.003504   0.012273  -0.041446  -0.041605   0.003696
     4  C   -0.000194   0.000940   0.000597   0.376659   0.226403  -0.027850
     5  C    0.000395  -0.033979  -0.006092   0.003099  -0.001315  -0.000130
     6  C   -0.027879  -0.049137  -0.002683   0.006614  -0.006759   0.000108
     7  H   -0.003170   0.004894   0.001192   0.000035   0.007708   0.001260
     8  H   -0.000178  -0.000090   0.000010  -0.003753   0.003832   0.001164
     9  H   -0.000009   0.002197  -0.002581  -0.000307  -0.000161   0.000009
    10  H    0.003877  -0.036313   0.005876   0.000013  -0.000009   0.000002
    11  C   -0.000054   0.004198   0.000733   0.000926  -0.000000   0.000007
    12  H   -0.000000  -0.000063  -0.000015   0.000026   0.000007  -0.000000
    13  H    0.000001  -0.000050  -0.000008  -0.000546   0.000011   0.000003
    14  O   -0.000020   0.000018  -0.000021  -0.000003   0.000000  -0.000000
    15  H   -0.000000  -0.000054   0.000001  -0.000001  -0.000000  -0.000000
    16  O   -0.000064  -0.000022  -0.000013   0.001173  -0.009834   0.030260
    17  H   -0.000741  -0.000010  -0.000000  -0.000335   0.000249  -0.000844
    18  O    0.236676   0.001939  -0.000019  -0.000041   0.000041  -0.000047
    19  H    0.384350   0.000613   0.000027   0.000005   0.000005   0.000002
    20  O    0.000613   8.289377   0.232700  -0.000008  -0.000676   0.000002
    21  H    0.000027   0.232700   0.379492   0.000222   0.005243   0.000007
    22  H    0.000005  -0.000008   0.000222   0.617901  -0.051606   0.002771
    23  O    0.000005  -0.000676   0.005243  -0.051606   8.297440   0.228080
    24  H    0.000002   0.000002   0.000007   0.002771   0.228080   0.357508
 Mulliken charges:
               1
     1  C    0.121002
     2  C    0.060671
     3  O   -0.509944
     4  C    0.337574
     5  C    0.053759
     6  C    0.111553
     7  H    0.149221
     8  H    0.155318
     9  H    0.137286
    10  H    0.166365
    11  C   -0.068463
    12  H    0.144657
    13  H    0.158515
    14  O   -0.606584
    15  H    0.395613
    16  O   -0.662091
    17  H    0.420844
    18  O   -0.661456
    19  H    0.402039
    20  O   -0.644480
    21  H    0.405868
    22  H    0.147636
    23  O   -0.632946
    24  H    0.418044
 Sum of Mulliken charges =  -0.00000
 Mulliken charges with hydrogens summed into heavy atoms:
               1
     1  C    0.287367
     2  C    0.215989
     3  O   -0.509944
     4  C    0.485210
     5  C    0.191045
     6  C    0.260775
    11  C    0.234708
    14  O   -0.210972
    16  O   -0.241247
    18  O   -0.259418
    20  O   -0.238612
    23  O   -0.214903
 Electronic spatial extent (au):  <R**2>=           1937.1826
 Charge=              0.0000 electrons
 Dipole moment (field-independent basis, Debye):
    X=             -0.7617    Y=              1.1087    Z=             -0.6833  Tot=              1.5087
 Quadrupole moment (field-independent basis, Debye-Ang):
   XX=            -65.3693   YY=            -71.7129   ZZ=            -73.9587
   XY=              6.8585   XZ=             -2.0256   YZ=              4.7230
 Traceless Quadrupole moment (field-independent basis, Debye-Ang):
   XX=              4.9776   YY=             -1.3659   ZZ=             -3.6117
   XY=              6.8585   XZ=             -2.0256   YZ=              4.7230
 Octapole moment (field-independent basis, Debye-Ang**2):
  XXX=            -18.3283  YYY=             30.0816  ZZZ=            -11.5096  XYY=              0.9949
  XXY=             -6.8350  XXZ=             11.7806  XZZ=             10.5716  YZZ=             -2.5316
  YYZ=              8.2678  XYZ=             -4.0076
 Hexadecapole moment (field-independent basis, Debye-Ang**3):
 XXXX=           -969.9358 YYYY=           -624.2632 ZZZZ=           -533.8021 XXXY=             54.4882
 XXXZ=            -20.1704 YYYX=             15.0511 YYYZ=             31.3346 ZZZX=             17.2764
 ZZZY=            -21.3621 XXYY=           -287.0750 XXZZ=           -296.9524 YYZZ=           -167.7636
 XXYZ=             14.3300 YYXZ=            -22.4597 ZZXY=              6.2894
 N-N= 8.398611827433D+02 E-N=-3.290960388560D+03  KE= 6.811678578508D+02
 Calling FoFJK, ICntrl=      2127 FMM=F ISym2X=0 I1Cent= 0 IOpClX= 0 NMat=1 NMatS=1 NMatT=0.
 ***** Axes restored to original set *****
 -------------------------------------------------------------------
 Center     Atomic                   Forces (Hartrees/Bohr)
 Number     Number              X              Y              Z
 -------------------------------------------------------------------
      1        6           0.040292620    0.002203293    0.018517873
      2        6          -0.002483017    0.014030645   -0.000202927
      3        8           0.041996161    0.057929919   -0.021245363
      4        6          -0.000725779   -0.028303898    0.021808637
      5        6          -0.050120058   -0.053426971   -0.005924979
      6        6           0.003719381    0.030678130    0.005192782
      7        1          -0.001372227   -0.012716085    0.001000917
      8        1          -0.007378483   -0.002464180    0.000966515
      9        1          -0.000039439   -0.001856676    0.001518815
     10        1           0.000244066   -0.003754202   -0.004814593
     11        6          -0.003977739   -0.001993929   -0.005511025
     12        1           0.005529205   -0.005087861    0.003106921
     13        1          -0.000091047    0.006061192   -0.000551962
     14        8          -0.001758665    0.003789628    0.002498782
     15        1           0.003531946    0.001932247   -0.002155450
     16        8          -0.002988692   -0.005775511    0.003022655
     17        1           0.000425056   -0.006872897    0.001909089
     18        8          -0.001147019    0.002947070   -0.007839616
     19        1           0.003588183   -0.002359454   -0.005299548
     20        8          -0.005134527   -0.003254395    0.001698881
     21        1          -0.002835700    0.005574553   -0.002372504
     22        1          -0.006326428   -0.000313439   -0.002514735
     23        8          -0.010953793    0.004170324   -0.005208718
     24        1          -0.001994004   -0.001137504    0.002399551
 -------------------------------------------------------------------
 Cartesian Forces:  Max     0.057929919 RMS     0.015092337

 GradGradGradGradGradGradGradGradGradGradGradGradGradGradGradGradGradGrad
 Berny optimization.
 FormGI is forming the generalized inverse of G from B-inverse, IUseBI=4.
 Internal  Forces:  Max     0.041028871 RMS     0.006980643
 Search for a local minimum.
 Step number   1 out of a maximum of  144
 All quantities printed in internal units (Hartrees-Bohrs-Radians)
 Mixed Optimization -- RFO/linear search
 Second derivative matrix not updated -- first step.
 ITU=  0
     Eigenvalues ---    0.00230   0.00395   0.00525   0.01129   0.01165
     Eigenvalues ---    0.01165   0.01320   0.01329   0.01411   0.02772
     Eigenvalues ---    0.03098   0.04071   0.04390   0.04647   0.04712
     Eigenvalues ---    0.04760   0.05039   0.05222   0.05507   0.06195
     Eigenvalues ---    0.06500   0.07022   0.07218   0.07611   0.07808
     Eigenvalues ---    0.09593   0.10812   0.11791   0.13357   0.13978
     Eigenvalues ---    0.15859   0.16000   0.16000   0.16000   0.16000
     Eigenvalues ---    0.16000   0.17168   0.19153   0.19511   0.19921
     Eigenvalues ---    0.21045   0.21912   0.26396   0.28067   0.28283
     Eigenvalues ---    0.28778   0.28827   0.33583   0.33874   0.33993
     Eigenvalues ---    0.34040   0.34327   0.34332   0.34674   0.34944
     Eigenvalues ---    0.35832   0.39239   0.39607   0.39611   0.41356
     Eigenvalues ---    0.42278   0.51386   0.51462   0.51593   0.52123
     Eigenvalues ---    0.52496
 RFO step:  Lambda=-3.28713219D-02 EMin= 2.30000000D-03
 Linear search not attempted -- first point.
 Maximum step size (   0.300) exceeded in Quadratic search.
    -- Step size scaled by   0.950
 Iteration  1 RMS(Cart)=  0.05644968 RMS(Int)=  0.00209325
 Iteration  2 RMS(Cart)=  0.00279455 RMS(Int)=  0.00100413
 Iteration  3 RMS(Cart)=  0.00000544 RMS(Int)=  0.00100413
 Iteration  4 RMS(Cart)=  0.00000001 RMS(Int)=  0.00100413
 Variable       Old X    -DE/DX   Delta X   Delta X   Delta X     New X
                                 (Linear)    (Quad)   (Total)
    R1        2.78264   0.02686   0.00000   0.07598   0.07693   2.85957
    R2        2.90471   0.00887   0.00000   0.03451   0.03402   2.93872
    R3        2.06774  -0.00293   0.00000  -0.00740  -0.00740   2.06034
    R4        2.72085  -0.00278   0.00000  -0.00615  -0.00615   2.71470
    R5        2.89687   0.00155   0.00000  -0.00833  -0.00926   2.88761
    R6        2.88657  -0.00234   0.00000  -0.01215  -0.01350   2.87307
    R7        2.06207   0.00244   0.00000   0.00611   0.00611   2.06818
    R8        2.72600  -0.00739   0.00000  -0.01652  -0.01652   2.70948
    R9        2.90468  -0.04103   0.00000  -0.12980  -0.12925   2.77543
   R10        2.75609  -0.01589   0.00000  -0.03163  -0.03026   2.72584
   R11        2.06782   0.00095   0.00000   0.00239   0.00239   2.07022
   R12        2.69751  -0.01179   0.00000  -0.02509  -0.02509   2.67242
   R13        2.08040   0.00175   0.00000   0.00451   0.00451   2.08491
   R14        2.91523   0.00123   0.00000   0.00371   0.00371   2.91893
   R15        2.07543  -0.00096   0.00000  -0.00246  -0.00246   2.07297
   R16        2.72091   0.00390   0.00000   0.00865   0.00865   2.72955
   R17        2.07263   0.00143   0.00000   0.00365   0.00365   2.07628
   R18        2.05765   0.00246   0.00000   0.00612   0.00612   2.06377
   R19        2.68570   0.00233   0.00000   0.00485   0.00485   2.69055
   R20        1.84128  -0.00454   0.00000  -0.00774  -0.00774   1.83354
   R21        1.85118  -0.00698   0.00000  -0.01211  -0.01211   1.83907
   R22        1.84482  -0.00662   0.00000  -0.01135  -0.01135   1.83347
   R23        1.85192  -0.00611   0.00000  -0.01062  -0.01062   1.84130
   R24        1.84991  -0.00282   0.00000  -0.00489  -0.00489   1.84502
    A1        1.89943   0.00257   0.00000   0.05022   0.05069   1.95012
    A2        1.96947  -0.00677   0.00000  -0.05408  -0.05347   1.91600
    A3        1.91196   0.00235   0.00000   0.00116  -0.00148   1.91048
    A4        1.94639   0.00298   0.00000  -0.01155  -0.01133   1.93507
    A5        1.88019  -0.00086   0.00000   0.02115   0.02055   1.90074
    A6        1.85385  -0.00010   0.00000  -0.00519  -0.00536   1.84849
    A7        1.92493   0.00245   0.00000   0.01364   0.01366   1.93859
    A8        1.94766  -0.00017   0.00000  -0.00590  -0.00601   1.94165
    A9        1.91124  -0.00907   0.00000  -0.06057  -0.05998   1.85126
   A10        1.93578  -0.00033   0.00000  -0.00800  -0.00862   1.92716
   A11        1.90375   0.00189   0.00000   0.01343   0.01354   1.91729
   A12        1.83814   0.00516   0.00000   0.04776   0.04750   1.88564
   A13        1.90269   0.02287   0.00000   0.11601   0.11923   2.02192
   A14        2.01781  -0.00323   0.00000  -0.02091  -0.02129   1.99652
   A15        1.95370   0.00209   0.00000   0.00155  -0.00009   1.95362
   A16        1.89595  -0.00001   0.00000   0.01160   0.01226   1.90822
   A17        1.85844  -0.00266   0.00000  -0.01707  -0.01672   1.84172
   A18        1.84998   0.00020   0.00000  -0.01830  -0.01853   1.83145
   A19        1.88103   0.00403   0.00000   0.04710   0.04678   1.92781
   A20        2.05846  -0.01854   0.00000  -0.09915  -0.09946   1.95900
   A21        1.80765   0.00569   0.00000   0.04766   0.04807   1.85572
   A22        2.05247   0.00453   0.00000   0.00240   0.00056   2.05304
   A23        1.75930   0.00659   0.00000   0.04011   0.04109   1.80038
   A24        1.94332   0.00731   0.00000   0.02057   0.01704   1.96036
   A25        1.78403  -0.00253   0.00000   0.02292   0.02179   1.80582
   A26        2.01948  -0.00680   0.00000  -0.03174  -0.03329   1.98619
   A27        1.91295  -0.00424   0.00000  -0.02958  -0.03243   1.88052
   A28        1.93659   0.01399   0.00000   0.06404   0.06420   2.00078
   A29        1.88973   0.00021   0.00000  -0.01885  -0.01872   1.87101
   A30        1.87364  -0.00668   0.00000  -0.04257  -0.04171   1.83193
   A31        1.82028   0.00447   0.00000   0.06784   0.06729   1.88758
   A32        1.91710  -0.00685   0.00000  -0.03378  -0.03374   1.88336
   A33        1.97881   0.00197   0.00000   0.00282   0.00264   1.98145
   A34        1.95253  -0.00091   0.00000  -0.00527  -0.00532   1.94721
   A35        1.83746   0.00257   0.00000   0.01814   0.01820   1.85566
   A36        1.89463   0.00704   0.00000   0.04825   0.04836   1.94299
   A37        1.87814  -0.00324   0.00000  -0.02609  -0.02615   1.85198
   A38        1.87976  -0.00067   0.00000  -0.00328  -0.00328   1.87648
   A39        1.83008  -0.00079   0.00000  -0.00387  -0.00387   1.82621
   A40        1.86265   0.00124   0.00000   0.00609   0.00609   1.86874
   A41        1.87116  -0.00473   0.00000  -0.02328  -0.02328   1.84787
   A42        1.82368   0.00205   0.00000   0.01010   0.01010   1.83378
    D1        0.96351  -0.00719   0.00000  -0.05538  -0.05262   0.91088
    D2        2.88785  -0.00382   0.00000  -0.02021  -0.02072   2.86713
    D3       -1.44356  -0.00103   0.00000   0.04038   0.03969  -1.40387
    D4        3.13376  -0.00618   0.00000  -0.07088  -0.06860   3.06516
    D5       -1.22508  -0.00281   0.00000  -0.03571  -0.03670  -1.26178
    D6        0.72670  -0.00002   0.00000   0.02488   0.02371   0.75040
    D7       -1.08804  -0.00898   0.00000  -0.11056  -0.10798  -1.19602
    D8        0.83631  -0.00561   0.00000  -0.07538  -0.07608   0.76023
    D9        2.78809  -0.00282   0.00000  -0.01479  -0.01567   2.77241
   D10       -0.00721  -0.00689   0.00000  -0.05278  -0.05087  -0.05808
   D11       -2.14950   0.00122   0.00000   0.01925   0.01938  -2.13012
   D12        2.13265  -0.00965   0.00000  -0.08202  -0.08160   2.05105
   D13       -2.19104  -0.00215   0.00000  -0.01181  -0.01049  -2.20153
   D14        1.94986   0.00596   0.00000   0.06022   0.05976   2.00962
   D15       -0.05118  -0.00491   0.00000  -0.04105  -0.04122  -0.09240
   D16        2.06438  -0.00315   0.00000  -0.01180  -0.00989   2.05449
   D17       -0.07790   0.00496   0.00000   0.06023   0.06036  -0.01755
   D18       -2.07894  -0.00591   0.00000  -0.04104  -0.04063  -2.11957
   D19        0.78375   0.00410   0.00000   0.05787   0.05794   0.84169
   D20       -1.27981   0.00022   0.00000  -0.01503  -0.01517  -1.29498
   D21        2.91584  -0.00277   0.00000  -0.00967  -0.00961   2.90623
   D22        0.80927   0.00468   0.00000   0.02797   0.02732   0.83659
   D23        2.94133   0.00028   0.00000  -0.01013  -0.01106   2.93027
   D24       -1.26687   0.00653   0.00000   0.05659   0.05583  -1.21104
   D25       -1.35060   0.00345   0.00000   0.03260   0.03287  -1.31774
   D26        0.78146  -0.00095   0.00000  -0.00551  -0.00551   0.77595
   D27        2.85645   0.00530   0.00000   0.06121   0.06137   2.91782
   D28        2.90440   0.00280   0.00000   0.01477   0.01476   2.91916
   D29       -1.24672  -0.00160   0.00000  -0.02333  -0.02362  -1.27034
   D30        0.82827   0.00465   0.00000   0.04339   0.04327   0.87154
   D31       -0.81013   0.00397   0.00000   0.02779   0.02890  -0.78123
   D32        1.34438  -0.00632   0.00000  -0.04888  -0.04814   1.29624
   D33       -2.98297  -0.00429   0.00000  -0.00005   0.00056  -2.98241
   D34        1.35660   0.00527   0.00000   0.02429   0.02477   1.38138
   D35       -2.77207  -0.00502   0.00000  -0.05237  -0.05228  -2.82435
   D36       -0.81624  -0.00300   0.00000  -0.00354  -0.00357  -0.81981
   D37       -2.90977   0.01245   0.00000   0.08551   0.08594  -2.82384
   D38       -0.75526   0.00216   0.00000   0.00885   0.00889  -0.74637
   D39        1.20056   0.00418   0.00000   0.05767   0.05759   1.25816
   D40       -3.01665   0.00069   0.00000   0.01930   0.01856  -2.99809
   D41       -0.90861  -0.00071   0.00000   0.00716   0.00702  -0.90159
   D42        1.17005   0.00268   0.00000   0.03076   0.03164   1.20169
   D43        0.01423   0.00531   0.00000  -0.00779  -0.01025   0.00398
   D44       -2.16783   0.00693   0.00000   0.01830   0.01671  -2.15113
   D45        2.11552   0.00346   0.00000  -0.01917  -0.02043   2.09509
   D46       -0.96513   0.00366   0.00000   0.07075   0.06754  -0.89759
   D47       -2.91664   0.00026   0.00000   0.02869   0.02860  -2.88803
   D48        1.48493  -0.00240   0.00000  -0.02265  -0.02290   1.46203
   D49       -0.68894  -0.00209   0.00000  -0.00554  -0.00577  -0.69471
   D50       -2.86769   0.00169   0.00000   0.02408   0.02397  -2.84373
   D51        1.43119   0.00281   0.00000   0.03095   0.03129   1.46248
   D52       -2.92823  -0.00958   0.00000  -0.09582  -0.09630  -3.02453
   D53        1.30484  -0.00945   0.00000  -0.09765  -0.09815   1.20669
   D54       -0.82298  -0.00596   0.00000  -0.06136  -0.06189  -0.88487
   D55        0.90229   0.00649   0.00000   0.04143   0.04222   0.94451
   D56       -1.14782   0.00662   0.00000   0.03960   0.04036  -1.10746
   D57        3.00754   0.01011   0.00000   0.07589   0.07663   3.08417
   D58       -0.96321  -0.00228   0.00000  -0.02176  -0.02200  -0.98521
   D59       -3.01332  -0.00214   0.00000  -0.02359  -0.02385  -3.03718
   D60        1.14204   0.00135   0.00000   0.01270   0.01241   1.15445
   D61        0.97435   0.00364   0.00000   0.03957   0.04214   1.01649
   D62       -3.08659  -0.00023   0.00000   0.01245   0.01200  -3.07459
   D63       -1.08388  -0.00077   0.00000   0.00437   0.00225  -1.08163
   D64       -1.26087   0.00149   0.00000   0.00144   0.00158  -1.25929
   D65        0.85741  -0.00292   0.00000  -0.01165  -0.01158   0.84582
   D66        2.83771   0.00191   0.00000   0.02004   0.01983   2.85754
         Item               Value     Threshold  Converged?
 Maximum Force            0.041029     0.000450     NO 
 RMS     Force            0.006981     0.000300     NO 
 Maximum Displacement     0.187112     0.001800     NO 
 RMS     Displacement     0.056924     0.001200     NO 
 Predicted change in Energy=-1.984561D-02
 GradGradGradGradGradGradGradGradGradGradGradGradGradGradGradGradGradGrad

                          Input orientation:                          
 ---------------------------------------------------------------------
 Center     Atomic      Atomic             Coordinates (Angstroms)
 Number     Number       Type             X           Y           Z
 ---------------------------------------------------------------------
      1          6           0       -0.759857    0.434502    0.987588
      2          6           0        1.095086    0.330900   -0.797510
      3          8           0       -0.120117   -1.723133    0.008677
      4          6           0        1.132038   -1.172386   -0.525973
      5          6           0       -1.194258   -0.778349    0.193790
      6          6           0        0.518719    1.086730    0.389093
      7          1           0        1.287065    1.096111    1.171973
      8          1           0        0.527550    0.556056   -1.705803
      9          1           0       -1.905463   -1.328808    0.832869
     10          1           0       -1.576671    1.154981    1.037071
     11          6           0       -1.992404   -0.535434   -1.106152
     12          1           0       -2.326908   -1.511192   -1.484553
     13          1           0       -1.399088   -0.083808   -1.904081
     14          8           0       -3.093461    0.340559   -0.888304
     15          1           0       -3.761555   -0.150029   -0.383931
     16          8           0        2.455495    0.728657   -1.013956
     17          1           0        2.424525    1.700650   -1.051137
     18          8           0        0.339959    2.440361   -0.082153
     19          1           0        0.029625    2.965874    0.672089
     20          8           0       -0.493158    0.047668    2.345134
     21          1           0        0.073375   -0.743193    2.290527
     22          1           0        1.340774   -1.747377   -1.434797
     23          8           0        2.102879   -1.445331    0.465436
     24          1           0        2.852182   -0.855429    0.256136
 ---------------------------------------------------------------------
                    Distance matrix (angstroms):
                    1          2          3          4          5
     1  C    0.000000
     2  C    2.576455   0.000000
     3  O    2.454165   2.519068   0.000000
     4  C    2.907271   1.528060   1.468695   0.000000
     5  C    1.513218   2.730239   1.442451   2.466775   0.000000
     6  C    1.555106   1.520363   2.906572   2.513387   2.539873
     7  H    2.159077   2.121619   3.358803   2.837804   3.259971
     8  H    2.987733   1.094435   2.924657   2.178283   2.890279
     9  H    2.108463   3.796848   2.005554   3.331266   1.103286
    10  H    1.090286   3.344111   3.385659   3.898313   2.143625
    11  C    2.616046   3.221551   2.481720   3.241058   1.544634
    12  H    3.514663   3.946565   2.672935   3.605271   2.153320
    13  H    3.006496   2.759961   2.825208   3.080712   2.219325
    14  O    2.995582   4.189542   3.728831   4.502792   2.455577
    15  H    3.351557   4.897887   3.986085   5.001264   2.705468
    16  O    3.798841   1.433797   3.700112   2.367199   4.129215
    17  H    3.987458   1.925604   4.395532   3.193846   4.559701
    18  O    2.525353   2.351973   4.189821   3.725091   3.576319
    19  H    2.670330   3.199690   4.738072   4.447006   3.968107
    20  O    1.436558   3.532556   2.955322   3.517534   2.408761
    21  H    1.943937   3.425426   2.490896   3.039350   2.450396
    22  H    3.878298   2.187632   2.053876   1.095512   3.165075
    23  O    3.464343   2.401182   2.286375   1.414186   3.374873
    24  H    3.904584   2.367474   3.106237   1.915999   4.047655
                    6          7          8          9         10
     6  C    0.000000
     7  H    1.096971   0.000000
     8  H    2.161084   3.024916   0.000000
     9  H    3.450858   4.023364   3.989627   0.000000
    10  H    2.194354   2.867516   3.508535   2.513764   0.000000
    11  C    3.342591   4.313550   2.810890   2.096855   2.761112
    12  H    4.284547   5.188059   3.531345   2.362483   3.745654
    13  H    3.210419   4.250851   2.039774   3.049153   3.196328
    14  O    3.903378   4.899450   3.718396   2.675924   2.582829
    15  H    4.521933   5.427915   4.543382   2.513006   2.914793
    16  O    2.418236   2.505701   2.055581   5.163514   4.543877
    17  H    2.466426   2.569339   2.310237   5.610338   4.546200
    18  O    1.444418   2.068054   2.494401   4.481720   2.564826
    19  H    1.962264   2.308040   3.421918   4.713248   2.448006
    20  O    2.435086   2.375865   4.208372   2.485203   2.027602
    21  H    2.676267   2.471284   4.226698   2.526561   2.810136
    22  H    3.469080   3.857921   2.457759   3.981905   4.800552
    23  O    2.987763   2.761100   3.346863   4.026833   4.541748
    24  H    3.038867   2.663993   3.353417   4.815797   4.926088
                   11         12         13         14         15
    11  C    0.000000
    12  H    1.098719   0.000000
    13  H    1.092100   1.753362   0.000000
    14  O    1.423779   2.090956   2.020591   0.000000
    15  H    1.949367   2.263260   2.810069   0.970267   0.000000
    16  O    4.624958   5.301864   4.038593   5.563930   6.310366
    17  H    4.950996   5.751512   4.304860   5.685467   6.491361
    18  O    3.917122   4.969273   3.565829   4.104561   4.860412
    19  H    4.417001   5.499861   4.240098   4.368155   5.019669
    20  O    3.807771   4.523183   4.346703   4.159626   4.262546
    21  H    3.980959   4.538988   4.494183   4.616096   4.712882
    22  H    3.561867   3.675616   3.239527   4.931590   5.448817
    23  O    4.479860   4.840435   4.442086   5.658972   6.065543
    24  H    5.042643   5.502999   4.830656   6.171775   6.681975
                   16         17         18         19         20
    16  O    0.000000
    17  H    0.973196   0.000000
    18  O    2.876400   2.414854   0.000000
    19  H    3.705769   3.210272   0.970232   0.000000
    20  O    4.521259   4.772828   3.508673   3.404161   0.000000
    21  H    4.331333   4.760987   3.979409   4.047028   0.974373
    22  H    2.747809   3.634639   4.513139   5.326613   4.568738
    23  O    2.653142   3.507228   4.301900   4.878505   3.535777
    24  H    2.068773   2.902653   4.157876   4.768878   4.046084
                   21         22         23         24
    21  H    0.000000
    22  H    4.061124   0.000000
    23  O    2.818305   2.069522   0.000000
    24  H    3.445739   2.437043   0.976344   0.000000
 Stoichiometry    C6H12O6
 Framework group  C1[X(C6H12O6)]
 Deg. of freedom    66
 Full point group                 C1      NOp   1
 Largest Abelian subgroup         C1      NOp   1
 Largest concise Abelian subgroup C1      NOp   1
                         Standard orientation:                         
 ---------------------------------------------------------------------
 Center     Atomic      Atomic             Coordinates (Angstroms)
 Number     Number       Type             X           Y           Z
 ---------------------------------------------------------------------
      1          6           0       -0.737681    0.423397    1.008392
      2          6           0        1.096916    0.319821   -0.797611
      3          8           0       -0.164672   -1.722807   -0.034870
      4          6           0        1.096544   -1.190760   -0.567151
      5          6           0       -1.211579   -0.755540    0.186591
      6          6           0        0.552035    1.057899    0.414763
      7          1           0        1.327720    1.025756    1.189762
      8          1           0        0.526998    0.584477   -1.693679
      9          1           0       -1.931066   -1.304350    0.817770
     10          1           0       -1.534593    1.163459    1.085608
     11          6           0       -2.015245   -0.456406   -1.098139
     12          1           0       -2.379072   -1.412366   -1.499329
     13          1           0       -1.417722    0.001068   -1.889572
     14          8           0       -3.090572    0.441934   -0.845542
     15          1           0       -3.766649   -0.044508   -0.347834
     16          8           0        2.465291    0.687470   -1.017052
     17          1           0        2.459765    1.660593   -1.027660
     18          8           0        0.404799    2.428099   -0.017922
     19          1           0        0.115653    2.940824    0.753348
     20          8           0       -0.468525   -0.007168    2.352218
     21          1           0        0.076290   -0.810851    2.270523
     22          1           0        1.281361   -1.746047   -1.493243
     23          8           0        2.069125   -1.516028    0.406609
     24          1           0        2.831802   -0.940519    0.205709
 ---------------------------------------------------------------------
 Rotational constants (GHZ):      1.1592832      0.7686400      0.6907246
 Standard basis: 6-31G(d) (6D, 7F)
 There are   204 symmetry adapted cartesian basis functions of A   symmetry.
 There are   204 symmetry adapted basis functions of A   symmetry.
   204 basis functions,   384 primitive gaussians,   204 cartesian basis functions
    48 alpha electrons       48 beta electrons
       nuclear repulsion energy       840.6321247172 Hartrees.
 NAtoms=   24 NActive=   24 NUniq=   24 SFac= 1.00D+00 NAtFMM=   60 NAOKFM=F Big=F
 Integral buffers will be    131072 words long.
 Raffenetti 2 integral format.
 Two-electron integral symmetry is turned on.
 One-electron integrals computed using PRISM.
 NBasis=   204 RedAO= T EigKep=  1.27D-03  NBF=   204
 NBsUse=   204 1.00D-06 EigRej= -1.00D+00 NBFU=   204
 Initial guess from the checkpoint file:  "/scratch/10454687.yak.local/Gau-25667.chk"
 B after Tr=     0.000000   -0.000000   -0.000000
         Rot=    0.999813   -0.012748   -0.005620    0.013385 Ang=  -2.21 deg.
 ExpMin= 1.61D-01 ExpMax= 5.48D+03 ExpMxC= 8.25D+02 IAcc=1 IRadAn=         1 AccDes= 0.00D+00
 Harris functional with IExCor=  402 and IRadAn=       1 diagonalized for initial guess.
 HarFok:  IExCor=  402 AccDes= 0.00D+00 IRadAn=         1 IDoV= 1 UseB2=F ITyADJ=14
 ICtDFT=  3500011 ScaDFX=  1.000000  1.000000  1.000000  1.000000
 FoFCou: FMM=F IPFlag=           0 FMFlag=      100000 FMFlg1=           0
         NFxFlg=           0 DoJE=T BraDBF=F KetDBF=T FulRan=T
         wScrn=  0.000000 ICntrl=     500 IOpCl=  0 I1Cent=   200000004 NGrid=           0
         NMat0=    1 NMatS0=      1 NMatT0=    0 NMatD0=    1 NMtDS0=    0 NMtDT0=    0
 Petite list used in FoFCou.
 Requested convergence on RMS density matrix=1.00D-08 within 128 cycles.
 Requested convergence on MAX density matrix=1.00D-06.
 Requested convergence on             energy=1.00D-06.
 No special actions if energy rises.
 Integral accuracy reduced to 1.0D-05 until final iterations.
 Initial convergence to 1.0D-05 achieved.  Increase integral accuracy.
 SCF Done:  E(RB3LYP) =  -687.124311890     A.U. after   12 cycles
            NFock= 12  Conv=0.45D-08     -V/T= 2.0086
 Calling FoFJK, ICntrl=      2127 FMM=F ISym2X=0 I1Cent= 0 IOpClX= 0 NMat=1 NMatS=1 NMatT=0.
 ***** Axes restored to original set *****
 -------------------------------------------------------------------
 Center     Atomic                   Forces (Hartrees/Bohr)
 Number     Number              X              Y              Z
 -------------------------------------------------------------------
      1        6           0.013974755    0.002123646    0.008289121
      2        6           0.004048988    0.001675508   -0.002190024
      3        8           0.015327513    0.021297324   -0.012699213
      4        6          -0.013576767   -0.017306919    0.016190785
      5        6          -0.014600753   -0.018757093   -0.001650421
      6        6          -0.001567059    0.013531038   -0.001440575
      7        1          -0.002058277   -0.003296664    0.001621311
      8        1          -0.003340604   -0.000975433    0.000824818
      9        1           0.004240079    0.001586401    0.001859824
     10        1          -0.000804207    0.001854902   -0.002308116
     11        6           0.001001068    0.001958857   -0.002515338
     12        1           0.001137970   -0.001146228    0.000565603
     13        1           0.000536582    0.002356509    0.001282900
     14        8           0.000376536   -0.001138771    0.000348539
     15        1          -0.000093223    0.000720623    0.000190267
     16        8          -0.002406208    0.000091505   -0.000927850
     17        1           0.001975994   -0.000574901    0.000415962
     18        8          -0.001841339   -0.007326271    0.000475475
     19        1           0.000967342    0.000956184   -0.000269224
     20        8          -0.003182305   -0.000704788   -0.003924004
     21        1           0.000929902    0.000774574   -0.000147819
     22        1           0.001142881    0.000720744   -0.001706774
     23        8          -0.002047788    0.002091791   -0.002982119
     24        1          -0.000141080   -0.000512538    0.000696869
 -------------------------------------------------------------------
 Cartesian Forces:  Max     0.021297324 RMS     0.006293737

 GradGradGradGradGradGradGradGradGradGradGradGradGradGradGradGradGradGrad
 Berny optimization.
 Using GEDIIS/GDIIS optimizer.
 FormGI is forming the generalized inverse of G from B-inverse, IUseBI=4.
 Internal  Forces:  Max     0.020939889 RMS     0.002599737
 Search for a local minimum.
 Step number   2 out of a maximum of  144
 All quantities printed in internal units (Hartrees-Bohrs-Radians)
 Mixed Optimization -- RFO/linear search
 Update second derivatives using D2CorX and points    1    2
 DE= -2.00D-02 DEPred=-1.98D-02 R= 1.01D+00
 TightC=F SS=  1.41D+00  RLast= 4.66D-01 DXNew= 5.0454D-01 1.3967D+00
 Trust test= 1.01D+00 RLast= 4.66D-01 DXMaxT set to 5.05D-01
 ITU=  1  0
 Use linear search instead of GDIIS.
     Eigenvalues ---    0.00230   0.00396   0.00522   0.01130   0.01163
     Eigenvalues ---    0.01165   0.01290   0.01331   0.01411   0.02947
     Eigenvalues ---    0.03213   0.04239   0.04487   0.04750   0.04820
     Eigenvalues ---    0.04889   0.04910   0.05341   0.05624   0.06166
     Eigenvalues ---    0.06681   0.06832   0.07284   0.07509   0.07683
     Eigenvalues ---    0.09522   0.11108   0.11596   0.13322   0.13997
     Eigenvalues ---    0.15805   0.15980   0.16000   0.16000   0.16000
     Eigenvalues ---    0.16567   0.17311   0.18321   0.19276   0.19888
     Eigenvalues ---    0.20566   0.21942   0.23344   0.27745   0.28296
     Eigenvalues ---    0.28342   0.29165   0.33567   0.33870   0.33888
     Eigenvalues ---    0.34040   0.34325   0.34458   0.34670   0.34948
     Eigenvalues ---    0.35581   0.39222   0.39591   0.40226   0.41300
     Eigenvalues ---    0.42303   0.51412   0.51494   0.51590   0.52180
     Eigenvalues ---    0.52517
 RFO step:  Lambda=-4.96524305D-03 EMin= 2.29694137D-03
 Quartic linear search produced a step of  0.35894.
 Iteration  1 RMS(Cart)=  0.06756883 RMS(Int)=  0.00291296
 Iteration  2 RMS(Cart)=  0.00398749 RMS(Int)=  0.00079908
 Iteration  3 RMS(Cart)=  0.00001304 RMS(Int)=  0.00079904
 Iteration  4 RMS(Cart)=  0.00000001 RMS(Int)=  0.00079904
 Variable       Old X    -DE/DX   Delta X   Delta X   Delta X     New X
                                 (Linear)    (Quad)   (Total)
    R1        2.85957   0.00659   0.02761   0.00981   0.03830   2.89787
    R2        2.93872  -0.00298   0.01221  -0.01750  -0.00503   2.93370
    R3        2.06034   0.00172  -0.00266   0.00871   0.00605   2.06639
    R4        2.71470  -0.00428  -0.00221  -0.01272  -0.01492   2.69978
    R5        2.88761   0.00384  -0.00332   0.01088   0.00652   2.89413
    R6        2.87307   0.00229  -0.00485   0.01098   0.00539   2.87846
    R7        2.06818   0.00085   0.00219   0.00155   0.00375   2.07193
    R8        2.70948  -0.00047  -0.00593   0.00291  -0.00301   2.70647
    R9        2.77543  -0.02094  -0.04639  -0.06540  -0.11197   2.66346
   R10        2.72584  -0.00600  -0.01086  -0.00925  -0.01925   2.70658
   R11        2.07022   0.00125   0.00086   0.00419   0.00505   2.07527
   R12        2.67242  -0.00341  -0.00900  -0.00418  -0.01319   2.65924
   R13        2.08491  -0.00245   0.00162  -0.01092  -0.00931   2.07560
   R14        2.91893  -0.00098   0.00133  -0.00565  -0.00432   2.91462
   R15        2.07297  -0.00031  -0.00088  -0.00055  -0.00143   2.07155
   R16        2.72955  -0.00593   0.00310  -0.02226  -0.01916   2.71040
   R17        2.07628   0.00048   0.00131   0.00086   0.00217   2.07845
   R18        2.06377   0.00033   0.00220  -0.00043   0.00177   2.06554
   R19        2.69055  -0.00040   0.00174  -0.00258  -0.00084   2.68972
   R20        1.83354  -0.00020  -0.00278   0.00153  -0.00124   1.83230
   R21        1.83907  -0.00065  -0.00435   0.00153  -0.00282   1.83626
   R22        1.83347   0.00000  -0.00407   0.00301  -0.00106   1.83241
   R23        1.84130  -0.00008  -0.00381   0.00261  -0.00120   1.84009
   R24        1.84502  -0.00056  -0.00175  -0.00016  -0.00192   1.84310
    A1        1.95012  -0.00079   0.01819  -0.00408   0.01328   1.96340
    A2        1.91600  -0.00081  -0.01919  -0.00237  -0.02052   1.89548
    A3        1.91048   0.00023  -0.00053  -0.00348  -0.00551   1.90497
    A4        1.93507   0.00042  -0.00407  -0.01481  -0.01907   1.91600
    A5        1.90074   0.00060   0.00738   0.00794   0.01599   1.91673
    A6        1.84849   0.00043  -0.00192   0.01813   0.01602   1.86451
    A7        1.93859   0.00043   0.00490  -0.00601  -0.00176   1.93683
    A8        1.94165  -0.00087  -0.00216  -0.01416  -0.01640   1.92525
    A9        1.85126  -0.00066  -0.02153   0.01867  -0.00251   1.84875
   A10        1.92716  -0.00032  -0.00309  -0.01371  -0.01785   1.90930
   A11        1.91729   0.00042   0.00486   0.01320   0.01904   1.93632
   A12        1.88564   0.00103   0.01705   0.00404   0.02101   1.90664
   A13        2.02192   0.00789   0.04280   0.02550   0.06809   2.09001
   A14        1.99652  -0.00202  -0.00764  -0.00974  -0.01901   1.97751
   A15        1.95362  -0.00100  -0.00003  -0.02069  -0.02149   1.93213
   A16        1.90822   0.00037   0.00440   0.00320   0.00883   1.91704
   A17        1.84172   0.00045  -0.00600   0.01537   0.01020   1.85192
   A18        1.83145   0.00203  -0.00665   0.02402   0.01702   1.84846
   A19        1.92781   0.00039   0.01679  -0.00965   0.00676   1.93457
   A20        1.95900  -0.00262  -0.03570   0.00520  -0.03269   1.92631
   A21        1.85572   0.00028   0.01725  -0.01137   0.00678   1.86250
   A22        2.05304  -0.00185   0.00020  -0.02426  -0.02491   2.02813
   A23        1.80038   0.00084   0.01475  -0.00748   0.00711   1.80749
   A24        1.96036   0.00167   0.00612  -0.00115   0.00357   1.96394
   A25        1.80582   0.00251   0.00782   0.04427   0.05148   1.85729
   A26        1.98619  -0.00216  -0.01195  -0.00396  -0.01811   1.96809
   A27        1.88052  -0.00190  -0.01164  -0.01968  -0.03218   1.84835
   A28        2.00078   0.00173   0.02304  -0.01225   0.01137   2.01215
   A29        1.87101   0.00061  -0.00672   0.01299   0.00666   1.87767
   A30        1.83193   0.00034  -0.01497   0.01316  -0.00145   1.83048
   A31        1.88758   0.00157   0.02415   0.01300   0.03674   1.92431
   A32        1.88336  -0.00111  -0.01211   0.00174  -0.01035   1.87301
   A33        1.98145  -0.00084   0.00095  -0.01147  -0.01064   1.97080
   A34        1.94721  -0.00022  -0.00191  -0.00203  -0.00400   1.94321
   A35        1.85566   0.00123   0.00653   0.01133   0.01785   1.87351
   A36        1.94299   0.00110   0.01736  -0.00381   0.01358   1.95657
   A37        1.85198  -0.00003  -0.00939   0.00464  -0.00488   1.84710
   A38        1.87648   0.00115  -0.00118   0.01045   0.00927   1.88575
   A39        1.82621   0.00345  -0.00139   0.02939   0.02800   1.85421
   A40        1.86874   0.00165   0.00219   0.01156   0.01375   1.88249
   A41        1.84787  -0.00030  -0.00836   0.00495  -0.00341   1.84447
   A42        1.83378   0.00122   0.00363   0.00676   0.01039   1.84417
    D1        0.91088  -0.00165  -0.01889   0.00919  -0.00721   0.90368
    D2        2.86713  -0.00177  -0.00744  -0.00352  -0.01080   2.85634
    D3       -1.40387   0.00055   0.01425   0.03047   0.04463  -1.35924
    D4        3.06516  -0.00224  -0.02462  -0.01430  -0.03700   3.02816
    D5       -1.26178  -0.00235  -0.01317  -0.02701  -0.04059  -1.30237
    D6        0.75040  -0.00004   0.00851   0.00698   0.01484   0.76524
    D7       -1.19602  -0.00204  -0.03876   0.00420  -0.03237  -1.22839
    D8        0.76023  -0.00216  -0.02731  -0.00850  -0.03596   0.72427
    D9        2.77241   0.00016  -0.00562   0.02549   0.01947   2.79188
   D10       -0.05808  -0.00191  -0.01826  -0.05365  -0.06990  -0.12798
   D11       -2.13012  -0.00008   0.00696  -0.05413  -0.04685  -2.17697
   D12        2.05105  -0.00182  -0.02929  -0.04866  -0.07745   1.97360
   D13       -2.20153  -0.00061  -0.00376  -0.03703  -0.03923  -2.24075
   D14        2.00962   0.00122   0.02145  -0.03751  -0.01618   1.99344
   D15       -0.09240  -0.00052  -0.01480  -0.03204  -0.04678  -0.13917
   D16        2.05449  -0.00173  -0.00355  -0.05529  -0.05707   1.99742
   D17       -0.01755   0.00010   0.02166  -0.05577  -0.03403  -0.05157
   D18       -2.11957  -0.00163  -0.01458  -0.05030  -0.06462  -2.18419
   D19        0.84169   0.00076   0.02080   0.04403   0.06437   0.90606
   D20       -1.29498   0.00121  -0.00545   0.04620   0.04111  -1.25387
   D21        2.90623   0.00016  -0.00345   0.04950   0.04615   2.95238
   D22        0.83659   0.00191   0.00981   0.06369   0.07162   0.90821
   D23        2.93027   0.00027  -0.00397   0.06122   0.05591   2.98618
   D24       -1.21104   0.00035   0.02004   0.03721   0.05611  -1.15493
   D25       -1.31774   0.00264   0.01180   0.09590   0.10705  -1.21069
   D26        0.77595   0.00100  -0.00198   0.09343   0.09133   0.86728
   D27        2.91782   0.00108   0.02203   0.06942   0.09154   3.00935
   D28        2.91916   0.00225   0.00530   0.08756   0.09206   3.01123
   D29       -1.27034   0.00062  -0.00848   0.08509   0.07635  -1.19398
   D30        0.87154   0.00070   0.01553   0.06108   0.07655   0.94809
   D31       -0.78123   0.00209   0.01037   0.02505   0.03601  -0.74521
   D32        1.29624  -0.00116  -0.01728   0.00693  -0.00985   1.28639
   D33       -2.98241   0.00105   0.00020   0.03348   0.03436  -2.94805
   D34        1.38138   0.00104   0.00889  -0.00719   0.00165   1.38302
   D35       -2.82435  -0.00220  -0.01876  -0.02530  -0.04421  -2.86856
   D36       -0.81981   0.00001  -0.00128   0.00125  -0.00001  -0.81982
[...]
 173,0.00815477,-0.00101993,-0.21071255,0.00436808,-0.02109591,0.000844
 36,-0.00310294,0.00098356,-0.02191646,-0.00912780,-0.00109110,0.001552
 53,0.00095396,-0.00037292,-0.03933522,-0.00993493,0.00363123,0.0024484
 9,-0.00069871,-0.00143934,-0.03104882,-0.00753944,-0.00561866,-0.00023
 471,-0.00025723,0.00011055,-0.00160398,-0.00112757,0.00116908,0.000843
 87,0.00031113,-0.00011598,-0.00017552,-0.00014800,-0.00008458,0.000160
 79,-0.00021467,0.00030796,-0.00110358,0.00002521,-0.00019344,0.0002557
 3,-0.00000032,0.00014332,0.34899394,0.00129651,-0.00281285,0.00031989,
 -0.04131578,-0.09887528,0.00217389,-0.00803578,-0.01008176,0.00282893,
 -0.04361868,-0.00874259,-0.00080716,0.00360179,-0.00242576,-0.00244637
 ,0.01638747,0.00806721,0.00041879,0.00057462,0.00208769,0.00238857,0.0
 0390712,0.00502962,-0.00234946,-0.00047330,0.00055000,0.00047142,0.000
 60449,0.00068682,-0.00040840,0.00028536,-0.00021454,0.00031907,0.00014
 220,0.00003904,0.00009716,-0.00008319,-0.00004984,-0.00016063,-0.00061
 383,0.00049175,0.00005543,0.00011983,-0.00003790,-0.00001684,0.0982706
 7,0.58520973,0.00180816,-0.00288711,-0.00030987,-0.01534030,0.00510780
 ,-0.06760183,0.00126337,0.00095320,0.00204377,0.00329254,0.00313790,-0
 .00193385,0.00016259,-0.00036713,-0.00095137,0.02150492,0.00408132,0.0
 0089315,0.00041754,0.00264152,0.00390403,-0.03322990,-0.00842384,0.005
 79895,-0.00004538,0.00020610,0.00019835,0.00074050,0.00038681,-0.00048
 869,0.00014514,0.00053295,-0.00068157,0.00008726,-0.00000248,0.0001542
 0,0.00005935,-0.00035929,0.00010785,-0.00002698,-0.00003877,0.00050272
 ,-0.00015035,0.00000364,-0.00004635,0.01415553,-0.07229012,0.06967713,
 0.00017635,-0.00060460,0.00037582,-0.01284864,-0.04754696,0.00670214,-
 0.00149128,-0.00274891,0.00059826,-0.00852099,0.00188305,-0.00173474,0
 .00081626,-0.00049816,-0.00069171,0.00048404,-0.00098656,0.00087481,0.
 00002177,0.00046658,0.00081658,0.00106384,0.00025850,-0.00067078,-0.00
 002614,0.00018535,0.00010193,0.00012634,0.00016988,-0.00008993,-0.0001
 2518,-0.00008245,0.00008832,0.00008215,0.00004808,0.00003860,-0.000051
 58,-0.00002206,-0.00012438,0.00009867,0.00008546,0.00004974,-0.0000450
 1,0.00000430,-0.00002959,-0.04805025,-0.02747126,-0.00104307,0.0658572
 6,0.00015948,-0.00066412,-0.00009630,0.00326417,-0.00713198,0.00124660
 ,0.00008814,-0.00023566,-0.00005038,-0.00204687,0.00087949,-0.00019458
 ,-0.00005455,-0.00013279,0.00011679,0.00176045,0.00251117,0.00000488,-
 0.00034792,0.00025522,0.00015709,0.00142930,0.00064519,-0.00004431,-0.
 00005182,0.00004702,0.00000270,0.00018227,0.00009868,-0.00012306,-0.00
 007079,-0.00003706,0.00007366,0.00001021,-0.00000051,0.00000769,-0.000
 03592,0.00005898,-0.00002174,0.00007831,0.00000513,-0.00002226,-0.0000
 0270,-0.00000392,-0.00000865,-0.07998444,-0.47913756,0.06716946,0.0759
 4174,0.48264481,-0.00018015,0.00015986,-0.00087551,-0.00192037,-0.0043
 8933,0.00019851,0.00013271,-0.00054027,0.00036213,-0.00160562,0.000885
 18,-0.00132331,-0.00034202,0.00011521,0.00059236,0.00100204,0.00045563
 ,0.00211213,0.00023478,-0.00037889,-0.00151685,-0.00028777,-0.00107918
 ,0.00028593,-0.00009707,-0.00012508,-0.00009956,-0.00010725,-0.0000501
 6,0.00009056,0.00005182,-0.00008570,0.00013348,-0.00005077,-0.00002410
 ,-0.00005354,-0.00000291,0.00007003,0.00003872,-0.00004038,-0.00001078
 ,-0.00015135,0.00005888,-0.00000080,0.00003497,0.00733922,0.07209855,-
 0.01434213,-0.00532431,-0.06766093,0.01400009,0.00991320,-0.00769517,0
 .00972523,-0.01211706,0.02719911,-0.01207055,0.00315978,-0.00040187,-0
 .00071368,-0.00537694,-0.00141089,0.00248919,-0.00104968,0.00247236,-0
 .00095867,-0.09088284,0.05389193,-0.03667758,-0.00690906,0.02397367,-0
 .01512098,0.00035441,-0.00068121,-0.00143485,0.00041594,0.00028786,0.0
 0040504,0.00359844,-0.00143637,-0.00103711,-0.00018235,0.00053004,-0.0
 0272291,-0.00066415,-0.00096109,0.00059733,-0.00105744,-0.00097082,0.0
 0152014,0.00023141,-0.00077491,0.00042829,-0.00003012,-0.00018145,-0.0
 0013608,-0.00109008,0.00094549,0.00240717,0.00109874,-0.00046158,-0.00
 060711,0.26150332,0.01558036,-0.01996314,0.01565064,0.01672318,-0.0322
 2070,0.01107256,-0.00000322,-0.00018469,-0.00009385,0.00312373,0.00029
 823,-0.00254536,-0.00070527,0.00165540,0.00040295,0.03963510,-0.148337
 10,0.07729752,0.00741816,0.00334352,0.00708089,-0.00024570,0.00082678,
 0.00193596,-0.00037163,-0.00059448,-0.00007227,0.00106183,0.00313764,-
 0.00101900,0.00018976,-0.00134310,-0.00160148,-0.00070036,-0.00027955,
 -0.00002559,-0.00074557,-0.00176425,0.00031951,-0.00124609,0.00039837,
 -0.00023161,0.00032824,0.00003548,0.00015172,0.00250303,-0.00031902,-0
 .00162591,0.00023237,-0.00038380,0.00048160,-0.23889628,0.36563170,-0.
 01038124,0.01927449,-0.01119226,0.00797456,-0.01669568,0.01159369,-0.0
 0056231,0.00069539,0.00111492,0.00262158,-0.00102025,-0.00364064,0.001
 03014,0.00005947,-0.00237142,-0.00898457,0.03385301,-0.13476860,-0.014
 30894,0.03034043,-0.01525312,0.00035451,-0.00069359,0.00263836,0.00045
 828,0.00057984,0.00048997,-0.00272016,-0.00075576,0.00075228,-0.000185
 85,0.00092973,-0.00197983,-0.00008715,-0.00059029,0.00067885,-0.000341
 91,-0.00053716,0.00115098,0.00016036,-0.00032509,0.00084140,-0.0002704
 7,-0.00002639,-0.00008760,0.00090924,-0.00032227,0.00106778,-0.0004720
 6,0.00021970,-0.00098887,-0.12962472,0.05367844,0.36789335,0.00370298,
 -0.00227216,-0.00031973,0.00046034,0.00300319,-0.00294022,-0.00008463,
 0.00008087,0.00007962,-0.00040250,-0.00014780,0.00074881,-0.00019633,-
 0.00031580,0.00023828,-0.01083562,0.00936330,0.01134697,0.00011458,-0.
 00041495,0.00057370,0.00013196,-0.00013418,-0.00025687,-0.00004844,-0.
 00007180,-0.00004338,-0.00011077,0.00022904,0.00069003,0.00042460,-0.0
 0060135,-0.00033688,-0.00005916,0.00013823,0.00000027,0.00035506,0.000
 07250,0.00003944,-0.00019974,0.00049699,0.00019937,-0.00005080,0.00012
 041,0.00006412,-0.00014677,-0.00033038,0.00020942,0.00010842,-0.000046
 92,0.00025889,-0.16222337,0.16030737,0.14944138,0.17050815,0.00097659,
 -0.00048627,-0.00058570,0.00245045,-0.00525400,0.00385921,-0.00113956,
 0.00049692,0.00069647,0.00204609,0.00040433,-0.00131016,0.00023125,-0.
 00077586,-0.00075814,0.01999517,-0.02015136,-0.02210780,-0.00027867,0.
 00181091,0.00005138,0.00003004,0.00015846,0.00057039,0.00003869,0.0002
 1173,0.00006765,-0.00207924,-0.00040998,0.00151784,-0.00017477,-0.0003
 7553,-0.00013044,0.00016964,0.00017122,0.00006959,0.00003514,-0.000135
 15,-0.00032931,0.00035536,0.00027496,0.00027736,-0.00016484,0.00010296
 ,0.00000981,0.00036457,-0.00043760,-0.00014726,0.00028704,-0.00002494,
 0.00010572,0.14743473,-0.16426486,-0.12333510,-0.16965235,0.18724824,-
 0.00209571,0.00137049,0.00064544,-0.00066505,0.00197171,-0.00245983,-0
 .00033815,-0.00031401,-0.00024705,-0.00011169,0.00073233,0.00096524,0.
 00067395,-0.00010296,0.00008822,-0.01700594,0.02018173,0.01006385,-0.0
 0072844,0.00052464,-0.00009117,0.00011792,0.00019557,0.00095154,-0.000
 07082,0.00002537,-0.00002370,0.00108052,-0.00025053,-0.00008317,0.0001
 6011,-0.00038300,0.00012726,-0.00000007,0.00009614,-0.00007355,0.00024
 255,-0.00006519,-0.00018376,-0.00019165,0.00025481,-0.00017520,0.00003
 191,0.00012843,0.00010912,-0.00005184,-0.00025081,0.00052839,-0.000139
 54,0.00001371,-0.00009914,0.17831242,-0.16669310,-0.21394707,-0.159457
 18,0.14299583,0.20381340,-0.09826086,0.03186416,-0.05162656,0.00030640
 ,0.00072691,-0.00055695,0.00707775,-0.00225417,-0.00181531,-0.00938136
 ,0.00069898,-0.00708043,-0.01016401,0.00787660,-0.02072436,0.00878284,
 -0.00695991,0.01075304,0.00366151,0.00151886,0.00158520,-0.00000778,-0
 .00041424,0.00027985,0.00157444,0.00265858,0.00064252,-0.00920326,0.01
 334507,-0.03173010,0.00082664,-0.00391353,-0.00151813,-0.00112099,0.00
 029846,-0.00135005,-0.00015339,0.00017235,-0.00027201,-0.00036189,-0.0
 0031316,-0.00071039,0.00047022,-0.00002330,0.00018781,0.00094113,-0.00
 029986,0.00050850,0.00013584,0.00002365,-0.00006631,0.00113962,-0.0031
 3547,0.00435779,-0.00124869,-0.00084946,0.00010812,0.34116527,0.032315
 29,-0.09622462,0.05392567,0.00074415,-0.00229530,-0.00029722,-0.002072
 97,0.00363085,0.00107251,0.00284740,-0.00319310,0.00537848,-0.00940634
 ,0.00907910,-0.01821043,0.00714696,-0.00759206,0.02401774,0.00336338,0
 .00140810,-0.00000340,-0.00011181,0.00057388,0.00041605,0.00206213,0.0
 0341414,-0.00012829,0.01081778,-0.00943843,0.02794579,0.00113523,-0.00
 402123,-0.00344521,-0.00073763,0.00044171,-0.00080046,-0.00042588,-0.0
 0001597,-0.00074961,-0.00016309,0.00124599,0.00164850,0.00014423,-0.00
 005730,-0.00000453,-0.00188450,0.00128626,0.00063490,0.00042590,0.0000
 8555,-0.00046121,-0.00394872,-0.00511232,0.00690907,-0.00016141,0.0019
 2102,-0.00040245,-0.25487179,0.30886575,-0.02365923,0.02650709,-0.1956
 3658,-0.00090413,0.00051893,0.00155065,0.00224468,-0.00021613,0.001653
 09,-0.00159085,0.00029021,-0.00080391,-0.02160502,0.01352244,-0.039014
 05,-0.01088447,0.01496946,-0.03016916,-0.00072424,-0.00062677,0.001977
 45,-0.00022283,-0.00004376,0.00018602,0.00081334,0.00083401,0.00205444
 ,-0.00512214,0.00508212,-0.00074082,0.00172292,-0.00864131,-0.00196957
 ,-0.00182858,0.00078012,-0.00207677,0.00022332,0.00020810,0.00038102,-
 0.00191107,0.00099033,0.00100116,0.00037493,-0.00006227,-0.00020396,0.
 00216401,-0.00020818,-0.00022871,-0.00041010,-0.00006513,0.00002917,0.
 00449921,0.00605701,-0.00488229,-0.00013599,-0.00144874,-0.00008348,-0
 .00337832,-0.00596836,0.33981989,-0.01472677,0.01326284,-0.00282611,0.
 00045576,-0.00027785,-0.00021668,-0.00492105,0.00004606,0.00096928,0.0
 1155281,-0.00237949,0.00674140,0.00247226,-0.00178314,0.00018770,0.003
 48185,-0.00032143,0.00091870,0.00012680,-0.00041356,-0.00034458,-0.000
 02737,0.00051960,-0.00020004,-0.00119280,-0.00048422,-0.00024198,0.000
 80508,0.00013811,-0.00209406,-0.00072157,0.00114851,0.00056329,0.00040
 659,-0.00007920,0.00050821,0.00017205,-0.00015851,0.00020710,0.0002544
 3,-0.00008820,0.00004083,-0.00022474,0.00001753,-0.00013594,-0.0007678
 7,0.00043624,-0.00038570,-0.00008383,-0.00005769,-0.00013901,-0.001339
 48,-0.00106691,0.00099666,0.00000084,0.00043778,-0.00002178,-0.2326944
 2,0.20541334,0.05184410,0.24879720,0.01365929,-0.01372223,0.00199565,-
 0.00067563,0.00109185,0.00162916,0.00235939,-0.00104831,0.00069083,-0.
 00404765,0.00264043,-0.00395915,-0.00269319,0.00434952,-0.00119334,0.0
 0052747,-0.00037019,-0.00010874,-0.00077950,-0.00100486,0.00005276,0.0
 0008670,-0.00044688,-0.00016913,-0.00021005,-0.00012847,0.00005773,-0.
 00037135,0.00112808,0.00170404,-0.00023285,-0.00067318,-0.00028329,-0.
 00027660,-0.00001355,-0.00024726,0.00012029,0.00000024,0.00018787,0.00
 003800,-0.00020308,-0.00018778,0.00002247,0.00004574,0.00005497,0.0007
 3533,-0.00098982,-0.00049185,-0.00015254,-0.00007772,0.00040083,-0.000
 35349,0.00113737,-0.00157899,0.00008248,-0.00025692,0.00009428,0.20674
 435,-0.20333445,-0.04738337,-0.21658739,0.21869440,-0.03280282,0.03110
 502,0.00346261,0.00042622,0.00107402,-0.00035082,0.00367632,-0.0014854
 5,0.00025878,-0.00300058,0.00055314,-0.01092858,-0.00373378,0.00222985
 ,0.00093920,-0.00128612,0.00109008,0.00020781,0.00010644,-0.00008992,0
 .00012276,-0.00009164,-0.00046462,0.00017473,0.00019810,-0.00023170,-0
 .00013775,-0.00232274,0.00266952,-0.00623217,-0.00044986,0.00031366,0.
 00001847,-0.00006502,-0.00008546,-0.00004793,0.00002663,0.00001550,0.0
 0006096,0.00046724,-0.00053957,-0.00046140,-0.00003709,0.00001273,0.00
 004690,-0.00001527,-0.00090670,0.00005135,0.00009505,0.00002919,0.0002
 3414,0.00105856,0.00000164,-0.00060229,-0.00007387,-0.00046336,0.00010
 076,0.08739096,-0.08056998,-0.07223556,-0.04791191,0.04439941,0.081688
 03,-0.00086321,-0.00033214,-0.00067121,0.00373027,-0.00111273,-0.00113
 234,-0.03925811,0.01704492,0.02249820,-0.09641306,0.05856458,0.0822102
 2,-0.00077049,-0.00531165,0.00078497,-0.00026895,-0.00096922,-0.000047
 08,0.00026995,-0.00007185,-0.00013457,-0.00001906,0.00024673,0.0000677
 3,-0.00144729,0.00094484,0.00065905,0.00017227,0.00022562,0.00017759,0
 .00025928,-0.00011333,0.00109279,-0.00004505,-0.00005535,-0.00006908,-
 0.00006072,0.00009641,-0.00014048,-0.00065451,0.00043404,-0.00038542,0
 .00024221,-0.00001056,0.00004919,0.00124358,0.00032363,-0.00016382,0.0
 0022654,0.00022563,0.00007067,0.00032613,-0.00015067,-0.00010882,-0.00
 004455,-0.00014994,0.00003346,0.00107516,-0.00029948,0.00027614,-0.001
 20138,0.00050963,0.00045118,0.12378842,-0.00057619,-0.00028141,0.00103
 952,0.01740818,-0.01944532,-0.02391162,-0.00956777,0.00999400,0.008789
 15,0.06549578,-0.13447012,-0.10191470,-0.00186399,-0.00026306,-0.00040
 049,-0.00336372,-0.00318967,0.00293429,0.00043552,-0.00052819,-0.00071
 295,0.00012565,0.00115230,0.00038213,-0.00032734,0.00027543,0.00021120
 ,0.00013684,0.00010196,-0.00000035,-0.00006710,-0.00001476,0.00039509,
 0.00003635,0.00004223,-0.00000147,-0.00004537,-0.00002874,-0.00012061,
 -0.00016326,0.00019267,-0.00004943,0.00003654,-0.00000145,-0.00001220,
 -0.00013537,0.00251619,0.00078256,0.00002790,0.00032299,0.00023919,0.0
 0126207,-0.00140285,-0.00076005,0.00019888,-0.00036791,0.00021019,-0.0
 0028978,0.00071637,-0.00019336,0.00053680,-0.00043114,-0.00008071,-0.0
 6591212,0.13450449,-0.00064525,0.00044397,-0.00098507,-0.00108055,0.00
 375548,0.00569041,0.00332957,0.00014876,0.00352759,0.08642278,-0.09871
 534,-0.17594258,-0.00122358,0.00047112,0.00230114,0.00100559,0.0014981
 0,0.00033583,-0.00014595,0.00022412,0.00031958,-0.00040051,-0.00087377
 ,0.00087075,-0.00012610,0.00004749,0.00005856,0.00005712,-0.00002819,0
 .00010554,0.00010788,-0.00002787,-0.00023768,0.00001701,0.00000298,0.0
 0003514,0.00001463,-0.00001909,0.00001915,0.00017296,-0.00006967,0.000
 10001,-0.00003435,-0.00000711,-0.00001517,-0.00048239,-0.00029698,0.00
 031183,-0.00015619,-0.00000312,0.00007047,-0.00013773,-0.00006212,0.00
 020568,-0.00007009,0.00010638,-0.00002845,0.00133810,-0.00107409,0.000
 09733,-0.00216703,0.00106374,0.00119442,-0.08675622,0.10168147,0.20420
 763,0.00110502,-0.00239583,0.00281640,-0.00382782,0.00378265,-0.009781
 55,-0.04132872,0.00112041,-0.03858548,-0.08593005,0.01468431,-0.038715
 43,0.00503249,-0.00195385,-0.00602710,-0.00021163,-0.00178325,-0.00011
 872,-0.00007404,0.00048940,0.00023547,0.00145529,0.00068638,-0.0004582
 5,-0.00010196,-0.00001721,0.00008477,0.00011014,0.00050638,-0.00003576
 ,-0.00005757,0.00000051,0.00122212,0.00015565,0.00000607,0.00016772,0.
 00003691,0.00002735,-0.00010109,-0.00171585,0.00101619,-0.00020734,0.0
 0035326,-0.00001276,0.00001364,0.00239792,-0.00401075,0.00268676,0.001
 13926,0.00010130,0.00136612,0.00072350,0.00067688,-0.00049565,-0.00016
 875,-0.00041838,0.00013763,-0.00612428,0.00755786,0.00808837,-0.007792
 47,0.00233546,-0.00312339,0.00940009,-0.00323436,-0.00034575,0.4783582
 5,-0.00254482,0.00004625,-0.00207189,0.01419512,-0.00907302,0.04203010
 ,-0.01099817,0.01039564,-0.01322550,-0.01045520,-0.09074357,0.02585251
 ,0.00164052,-0.00212564,-0.00128759,-0.00167420,0.00369952,-0.00020549
 ,0.00052480,0.00006319,0.00034474,-0.00201597,-0.00830642,0.00192628,0
 .00012527,0.00016636,0.00003127,0.00025078,0.00011895,0.00003069,-0.00
 042084,-0.00003371,0.00065340,0.00023839,0.00006662,0.00019275,-0.0001
 3822,0.00008414,-0.00022277,-0.00006932,0.00041810,-0.00000611,-0.0000
 1065,-0.00002798,-0.00008466,-0.00092229,-0.00147821,0.00202564,0.0011
 4400,0.00090631,0.00106647,0.00100323,-0.00041776,0.00027726,-0.000060
 19,0.00007618,-0.00035474,0.00705747,0.00058225,-0.00425060,0.00143498
 ,-0.00848343,0.00015447,-0.00462284,0.01042725,-0.00868508,0.19282440,
 0.22567949,-0.00431519,0.00337038,-0.00880980,-0.01326002,0.01030924,-
 0.02574444,-0.02869709,-0.00298217,0.00352829,0.01077436,0.04768245,-0
 .17445281,0.00376875,-0.00467695,-0.00172523,0.00153684,-0.00022735,-0
 .00075641,0.00004332,0.00140775,0.00090714,0.00115902,0.00410647,0.001
 20593,-0.00154873,0.00065913,0.00069235,0.00035179,-0.00035546,0.00150
 791,0.00045211,0.00045848,0.00085994,0.00040859,0.00000269,0.00040144,
 0.00014048,-0.00022646,0.00001529,-0.00132997,0.00080967,0.00033422,0.
 00014104,-0.00003533,-0.00012199,0.00077876,0.00090323,0.00332881,-0.0
 0043410,-0.00034492,-0.00027401,-0.00035217,-0.00015627,0.00171717,-0.
 00028984,0.00036521,0.00011913,0.01380077,-0.00841537,0.00074099,-0.00
 794733,0.00045419,0.00039645,-0.01958328,0.01150898,-0.04064342,0.0747
 6410,-0.06332346,0.27851116,-0.00090555,-0.00000019,-0.00056722,0.0015
 9463,0.00136794,0.00011198,-0.00201935,0.00057588,-0.00506341,-0.01987
 579,-0.01003100,-0.00097208,0.00075295,-0.00051875,-0.00043739,-0.0011
 9723,0.00068689,-0.00026258,0.00021879,0.00024264,0.00013462,-0.000827
 57,-0.00108431,0.00034702,0.00003578,-0.00000469,0.00002105,0.00012504
 ,0.00001631,0.00006163,-0.00019776,0.00008123,0.00012874,0.00009614,0.
 00002081,0.00009881,-0.00002204,-0.00000470,-0.00004998,0.00006722,0.0
 0008368,0.00004125,-0.00004514,0.00000334,-0.00003643,-0.00144479,-0.0
 0064261,0.00093675,-0.00019259,-0.00010346,0.00025593,0.00045807,-0.00
 051282,0.00023935,0.00001319,0.00005468,-0.00002075,0.00156408,0.00010
 997,0.00012597,-0.00283192,-0.00084062,0.00101741,0.00031247,-0.000154
 15,0.00130606,-0.35293464,-0.18650625,-0.03036222,0.37725599,0.0001720
 4,0.00089859,-0.00044549,0.00533594,0.00042873,0.00296107,0.00517443,-
 0.00023217,0.00339764,0.00615032,0.00617790,-0.00131010,-0.00069712,0.
 00091986,0.00039416,0.00075917,-0.00060888,0.00046240,0.00006041,-0.00
 059567,-0.00042553,-0.00093018,0.00013784,-0.00048356,0.00007867,-0.00
 022663,-0.00007123,-0.00015173,-0.00014952,0.00004454,0.00007140,0.000
 15669,-0.00014021,-0.00006745,-0.00005606,-0.00004913,0.00004733,-0.00
 002051,0.00010711,0.00006041,-0.00018248,-0.00001926,-0.00000975,0.000
 00869,0.00002413,-0.00060852,-0.00036157,-0.00103002,-0.00104665,-0.00
 063050,-0.00127187,-0.00082662,0.00012315,-0.00017621,0.00011601,0.000
 06344,0.00002153,0.00033923,-0.00196621,-0.00065184,0.00030579,0.00209
 658,0.00126925,0.00049585,0.00017873,0.00041883,-0.21198916,-0.1320405
 2,-0.00129414,0.19716019,0.12588054,0.00009174,-0.00034838,0.00047109,
 -0.00447614,0.00150777,0.00014156,-0.00531281,0.00135716,-0.00489375,-
 0.03469814,-0.01906340,-0.00138568,0.00040897,-0.00014897,-0.00132925,
 0.00053050,0.00047494,0.00074958,-0.00011083,-0.00025366,-0.00003484,0
 .00041518,-0.00044699,0.00009092,0.00002376,-0.00005939,-0.00000031,0.
 00006285,0.00011155,-0.00011320,-0.00025433,0.00002050,0.00031312,0.00
 005089,-0.00000892,0.00003416,-0.00000402,0.00003310,-0.00003805,-0.00
 010292,0.00012942,-0.00007644,0.00001161,0.00000933,-0.00000749,-0.000
 11111,-0.00161103,-0.00198392,0.00157927,-0.00040610,0.00154160,0.0001
 5158,-0.00000389,-0.00043044,0.00003375,-0.00007684,-0.00001676,-0.000
 12374,-0.00141809,-0.00144634,0.00165490,0.00281744,0.00203914,0.00082
 112,-0.00001584,-0.00159870,0.00641242,0.01913232,-0.04173810,0.032945
 49,-0.00173203,0.04971209\\-0.00001295,-0.00001339,0.00001421,-0.00000
 601,-0.00000039,0.00002076,0.00002027,0.00001334,-0.00001103,0.0000091
 8,0.00001458,-0.00003028,0.00001182,-0.00000576,-0.00000445,0.00000681
 ,-0.00001415,0.00000706,-0.00000656,-0.00000246,0.00001390,0.00000410,
 0.00000893,0.00000105,-0.00000272,-0.00000425,-0.00001242,-0.00000515,
 -0.00000876,0.00000151,-0.00000271,-0.00000833,-0.00001527,0.00000723,
 0.00000640,-0.00000922,0.00000101,0.00000951,0.,0.00000091,0.00001182,
 0.00000276,0.00000296,-0.00000546,-0.00002079,-0.00000030,-0.00000456,
 -0.00000300,-0.00000471,0.00000885,0.00002642,-0.00000290,0.00001501,0
 .00001343,-0.00000696,-0.00000256,0.00001513,-0.00000600,-0.00000821,-
 0.00000882,-0.00000384,-0.00000857,-0.00000653,0.00000132,0.00000800,-
 0.00000461,-0.00000315,-0.00000894,0.00001152,-0.00000165,-0.00000065,
 -0.00000134\\\@


 COLLEGE PROFESSOR: SOMEONE WHO TALKS IN OTHER PEOPLE'S SLEEP.
 Job cpu time:       0 days  0 hours 20 minutes 40.2 seconds.
 File lengths (MBytes):  RWF=    129 Int=      0 D2E=      0 Chk=      5 Scr=      1
 Normal termination of Gaussian 09 at Thu Jan 12 12:07:24 2017.
