 Entering Gaussian System, Link 0=g09
 Initial command:
 /global/software/gaussian/g09.e01/l1.exe "/scratch/10454689.yak.local/Gau-4736.inp" -scrdir="/scratch/10454689.yak.local/"
 Entering Link 1 = /global/software/gaussian/g09.e01/l1.exe PID=      4737.
  
 Copyright (c) 1988,1990,1992,1993,1995,1998,2003,2009,2015,
            Gaussian, Inc.  All Rights Reserved.
  
 This is part of the Gaussian(R) 09 program.  It is based on
 the Gaussian(R) 03 system (copyright 2003, Gaussian, Inc.),
 the Gaussian(R) 98 system (copyright 1998, Gaussian, Inc.),
 the Gaussian(R) 94 system (copyright 1995, Gaussian, Inc.),
 the Gaussian 92(TM) system (copyright 1992, Gaussian, Inc.),
 the Gaussian 90(TM) system (copyright 1990, Gaussian, Inc.),
 the Gaussian 88(TM) system (copyright 1988, Gaussian, Inc.),
 the Gaussian 86(TM) system (copyright 1986, Carnegie Mellon
 University), and the Gaussian 82(TM) system (copyright 1983,
 Carnegie Mellon University). Gaussian is a federally registered
 trademark of Gaussian, Inc.
  
 This software contains proprietary and confidential information,
 including trade secrets, belonging to Gaussian, Inc.
  
 This software is provided under written license and may be
 used, copied, transmitted, or stored only in accord with that
 written license.
  
 The following legend is applicable only to US Government
 contracts under FAR:
  
                    RESTRICTED RIGHTS LEGEND
  
 Use, reproduction and disclosure by the US Government is
 subject to restrictions as set forth in subparagraphs (a)
 and (c) of the Commercial Computer Software - Restricted
 Rights clause in FAR 52.227-19.
  
 Gaussian, Inc.
 340 Quinnipiac St., Bldg. 40, Wallingford CT 06492
  
  
 ---------------------------------------------------------------
 Warning -- This program may not be used in any manner that
 competes with the business of Gaussian, Inc. or will provide
 assistance to any competitor of Gaussian, Inc.  The licensee
 of this program is prohibited from giving any competitor of
 Gaussian, Inc. access to this program.  By using this program,
 the user acknowledges that Gaussian, Inc. is engaged in the
 business of creating and licensing software in the field of
 computational chemistry and represents and warrants to the
 licensee that it is not a competitor of Gaussian, Inc. and that
 it will not use this program in any manner prohibited above.
 ---------------------------------------------------------------
  

 Cite this work as:
 Gaussian 09, Revision E.01,
 M. J. Frisch, G. W. Trucks, H. B. Schlegel, G. E. Scuseria, 
 M. A. Robb, J. R. Cheeseman, G. Scalmani, V. Barone, B. Mennucci, 
 G. A. Petersson, H. Nakatsuji, M. Caricato, X. Li, H. P. Hratchian, 
 A. F. Izmaylov, J. Bloino, G. Zheng, J. L. Sonnenberg, M. Hada, 
 M. Ehara, K. Toyota, R. Fukuda, J. Hasegawa, M. Ishida, T. Nakajima, 
 Y. Honda, O. Kitao, H. Nakai, T. Vreven, J. A. Montgomery, Jr., 
 J. E. Peralta, F. Ogliaro, M. Bearpark, J. J. Heyd, E. Brothers, 
 K. N. Kudin, V. N. Staroverov, T. Keith, R. Kobayashi, J. Normand, 
 K. Raghavachari, A. Rendell, J. C. Burant, S. S. Iyengar, J. Tomasi, 
 M. Cossi, N. Rega, J. M. Millam, M. Klene, J. E. Knox, J. B. Cross, 
 V. Bakken, C. Adamo, J. Jaramillo, R. Gomperts, R. E. Stratmann, 
 O. Yazyev, A. J. Austin, R. Cammi, C. Pomelli, J. W. Ochterski, 
 R. L. Martin, K. Morokuma, V. G. Zakrzewski, G. A. Voth, 
 P. Salvador, J. J. Dannenberg, S. Dapprich, A. D. Daniels, 
 O. Farkas, J. B. Foresman, J. V. Ortiz, J. Cioslowski, 
 and D. J. Fox, Gaussian, Inc., Wallingford CT, 2013.
 
 ******************************************
 Gaussian 09:  ES64L-G09RevE.01 30-Nov-2015
                12-Jan-2017 
 ******************************************
 %NPROCS=4
 Will use up to    4 processors via shared memory.
 -----------------------------------------
 # opt=(MaxCycle=1000) freq B3LYP/6-31G(d)
 -----------------------------------------
 1/6=1000,14=-1,18=20,19=15,26=3,38=1/1,3;
 2/9=110,12=2,17=6,18=5,40=1/2;
 3/5=1,6=6,7=1,11=2,16=1,25=1,30=1,71=1,74=-5/1,2,3;
 4//1;
 5/5=2,38=5/2;
 6/7=2,8=2,9=2,10=2,28=1/1;
 7//1,2,3,16;
 1/6=1000,14=-1,18=20,19=15,26=3/3(2);
 2/9=110/2;
 99//99;
 2/9=110/2;
 3/5=1,6=6,7=1,11=2,16=1,25=1,30=1,71=1,74=-5/1,2,3;
 4/5=5,16=3,69=1/1;
 5/5=2,38=5/2;
 7//1,2,3,16;
 1/6=1000,14=-1,18=20,19=15,26=3/3(-5);
 2/9=110/2;
 6/7=2,8=2,9=2,10=2,19=2,28=1/1;
 99/9=1/99;
 -------------------------
 boat4_Alpha_B3LYP_6-31G_d
 -------------------------
 Symbolic Z-matrix:
 Charge =  0 Multiplicity = 1
 O                     0.26524  -1.57043   0.19852 
 C                    -0.77537   0.73846  -0.26412 
 C                     1.76886   0.4287   -0.02466 
 C                     0.56006   1.35912   0.16459 
 C                     1.30663  -0.84979  -0.55274 
 C                    -0.94363  -0.64012   0.38776 
 H                     0.49499   1.69319   1.20791 
 H                    -1.04751  -0.51947   1.47316 
 H                    -0.80564   0.65916  -1.35808 
 C                    -2.17384  -1.38568  -0.13556 
 H                    -2.07517  -1.57027  -1.21079 
 H                    -2.275    -2.36594   0.34327 
 H                     2.53197   0.88039  -0.66827 
 O                    -3.36101  -0.62766   0.07988 
 H                    -3.69209  -0.86433   0.96714 
 O                     2.40178   0.22807   1.25765 
 H                     2.94685  -0.57725   1.14055 
 O                     0.74795   2.55733  -0.61239 
 H                    -0.05971   3.08728  -0.45662 
 O                    -1.83156   1.63847   0.0975 
 H                    -2.67318   1.16025  -0.06916 
 H                     0.9637   -0.7684   -1.59101 
 O                     2.42437  -1.74308  -0.56261 
 H                     2.06033  -2.58022  -0.89818 
 

 GradGradGradGradGradGradGradGradGradGradGradGradGradGradGradGradGradGrad
 Berny optimization.
 Initialization pass.
                           ----------------------------
                           !    Initial Parameters    !
                           ! (Angstroms and Degrees)  !
 --------------------------                            --------------------------
 ! Name  Definition              Value          Derivative Info.                !
 --------------------------------------------------------------------------------
 ! R1    R(1,5)                  1.4725         estimate D2E/DX2                !
 ! R2    R(1,6)                  1.5371         estimate D2E/DX2                !
 ! R3    R(2,4)                  1.5338         estimate D2E/DX2                !
 ! R4    R(2,6)                  1.5342         estimate D2E/DX2                !
 ! R5    R(2,9)                  1.0972         estimate D2E/DX2                !
 ! R6    R(2,20)                 1.434          estimate D2E/DX2                !
 ! R7    R(3,4)                  1.5371         estimate D2E/DX2                !
 ! R8    R(3,5)                  1.4584         estimate D2E/DX2                !
 ! R9    R(3,13)                 1.0957         estimate D2E/DX2                !
 ! R10   R(3,16)                 1.444          estimate D2E/DX2                !
 ! R11   R(4,7)                  1.0974         estimate D2E/DX2                !
 ! R12   R(4,18)                 1.4404         estimate D2E/DX2                !
 ! R13   R(5,22)                 1.0965         estimate D2E/DX2                !
 ! R14   R(5,23)                 1.4309         estimate D2E/DX2                !
 ! R15   R(6,8)                  1.097          estimate D2E/DX2                !
 ! R16   R(6,10)                 1.5307         estimate D2E/DX2                !
 ! R17   R(10,11)                1.0954         estimate D2E/DX2                !
 ! R18   R(10,12)                1.0956         estimate D2E/DX2                !
 ! R19   R(10,14)                1.4249         estimate D2E/DX2                !
 ! R20   R(14,15)                0.9761         estimate D2E/DX2                !
 ! R21   R(16,17)                0.9795         estimate D2E/DX2                !
 ! R22   R(18,19)                0.9785         estimate D2E/DX2                !
 ! R23   R(20,21)                0.9822         estimate D2E/DX2                !
 ! R24   R(23,24)                0.9726         estimate D2E/DX2                !
 ! A1    A(5,1,6)              108.8335         estimate D2E/DX2                !
 ! A2    A(4,2,6)              109.8982         estimate D2E/DX2                !
 ! A3    A(4,2,9)              109.387          estimate D2E/DX2                !
 ! A4    A(4,2,20)             108.4712         estimate D2E/DX2                !
 ! A5    A(6,2,9)              110.8343         estimate D2E/DX2                !
 ! A6    A(6,2,20)             112.0885         estimate D2E/DX2                !
 ! A7    A(9,2,20)             106.0491         estimate D2E/DX2                !
 ! A8    A(4,3,5)              109.0242         estimate D2E/DX2                !
 ! A9    A(4,3,13)             111.7454         estimate D2E/DX2                !
 ! A10   A(4,3,16)             108.6302         estimate D2E/DX2                !
 ! A11   A(5,3,13)             111.6797         estimate D2E/DX2                !
 ! A12   A(5,3,16)             109.795          estimate D2E/DX2                !
 ! A13   A(13,3,16)            105.8798         estimate D2E/DX2                !
 ! A14   A(2,4,3)              113.9133         estimate D2E/DX2                !
 ! A15   A(2,4,7)              109.7118         estimate D2E/DX2                !
 ! A16   A(2,4,18)             107.4235         estimate D2E/DX2                !
 ! A17   A(3,4,7)              110.3614         estimate D2E/DX2                !
 ! A18   A(3,4,18)             109.5448         estimate D2E/DX2                !
 ! A19   A(7,4,18)             105.5061         estimate D2E/DX2                !
 ! A20   A(1,5,3)              117.9324         estimate D2E/DX2                !
 ! A21   A(1,5,22)             107.3529         estimate D2E/DX2                !
 ! A22   A(1,5,23)             104.5041         estimate D2E/DX2                !
 ! A23   A(3,5,22)             112.1426         estimate D2E/DX2                !
 ! A24   A(3,5,23)             107.589          estimate D2E/DX2                !
 ! A25   A(22,5,23)            106.5067         estimate D2E/DX2                !
 ! A26   A(1,6,2)              113.909          estimate D2E/DX2                !
 ! A27   A(1,6,8)              105.2392         estimate D2E/DX2                !
 ! A28   A(1,6,10)             107.1686         estimate D2E/DX2                !
 ! A29   A(2,6,8)              109.3879         estimate D2E/DX2                !
 ! A30   A(2,6,10)             112.3667         estimate D2E/DX2                !
 ! A31   A(8,6,10)             108.4047         estimate D2E/DX2                !
 ! A32   A(6,10,11)            110.1978         estimate D2E/DX2                !
 ! A33   A(6,10,12)            111.1344         estimate D2E/DX2                !
 ! A34   A(6,10,14)            111.0259         estimate D2E/DX2                !
 ! A35   A(11,10,12)           106.6503         estimate D2E/DX2                !
 ! A36   A(11,10,14)           108.2464         estimate D2E/DX2                !
 ! A37   A(12,10,14)           109.4481         estimate D2E/DX2                !
 ! A38   A(10,14,15)           106.9202         estimate D2E/DX2                !
 ! A39   A(3,16,17)            104.5952         estimate D2E/DX2                !
 ! A40   A(4,18,19)            104.8925         estimate D2E/DX2                !
 ! A41   A(2,20,21)            106.4237         estimate D2E/DX2                !
 ! A42   A(5,23,24)            104.3199         estimate D2E/DX2                !
 ! D1    D(6,1,5,3)             55.2106         estimate D2E/DX2                !
 ! D2    D(6,1,5,22)           -72.5695         estimate D2E/DX2                !
 ! D3    D(6,1,5,23)           174.581          estimate D2E/DX2                !
 ! D4    D(5,1,6,2)              1.4991         estimate D2E/DX2                !
 ! D5    D(5,1,6,8)           -118.3112         estimate D2E/DX2                !
 ! D6    D(5,1,6,10)           126.4329         estimate D2E/DX2                !
 ! D7    D(6,2,4,3)             50.7971         estimate D2E/DX2                !
 ! D8    D(6,2,4,7)            -73.4785         estimate D2E/DX2                !
 ! D9    D(6,2,4,18)           172.3117         estimate D2E/DX2                !
 ! D10   D(9,2,4,3)            -71.0976         estimate D2E/DX2                !
 ! D11   D(9,2,4,7)            164.6268         estimate D2E/DX2                !
 ! D12   D(9,2,4,18)            50.417          estimate D2E/DX2                !
 ! D13   D(20,2,4,3)           173.654          estimate D2E/DX2                !
 ! D14   D(20,2,4,7)            49.3784         estimate D2E/DX2                !
 ! D15   D(20,2,4,18)          -64.8314         estimate D2E/DX2                !
 ! D16   D(4,2,6,1)            -50.7937         estimate D2E/DX2                !
 ! D17   D(4,2,6,8)             66.6464         estimate D2E/DX2                !
 ! D18   D(4,2,6,10)          -172.9062         estimate D2E/DX2                !
 ! D19   D(9,2,6,1)             70.2348         estimate D2E/DX2                !
 ! D20   D(9,2,6,8)           -172.3251         estimate D2E/DX2                !
 ! D21   D(9,2,6,10)           -51.8777         estimate D2E/DX2                !
 ! D22   D(20,2,6,1)          -171.4925         estimate D2E/DX2                !
 ! D23   D(20,2,6,8)           -54.0524         estimate D2E/DX2                !
 ! D24   D(20,2,6,10)           66.395          estimate D2E/DX2                !
 ! D25   D(4,2,20,21)         -171.9935         estimate D2E/DX2                !
 ! D26   D(6,2,20,21)          -50.4719         estimate D2E/DX2                !
 ! D27   D(9,2,20,21)           70.6024         estimate D2E/DX2                !
 ! D28   D(5,3,4,2)             -1.2225         estimate D2E/DX2                !
 ! D29   D(5,3,4,7)            122.7033         estimate D2E/DX2                !
 ! D30   D(5,3,4,18)          -121.5531         estimate D2E/DX2                !
 ! D31   D(13,3,4,2)           122.7108         estimate D2E/DX2                !
 ! D32   D(13,3,4,7)          -113.3635         estimate D2E/DX2                !
 ! D33   D(13,3,4,18)            2.3801         estimate D2E/DX2                !
 ! D34   D(16,3,4,2)          -120.8441         estimate D2E/DX2                !
 ! D35   D(16,3,4,7)             3.0817         estimate D2E/DX2                !
 ! D36   D(16,3,4,18)          118.8253         estimate D2E/DX2                !
 ! D37   D(4,3,5,1)            -55.304          estimate D2E/DX2                !
 ! D38   D(4,3,5,22)            70.1618         estimate D2E/DX2                !
 ! D39   D(4,3,5,23)          -173.0435         estimate D2E/DX2                !
 ! D40   D(13,3,5,1)          -179.2761         estimate D2E/DX2                !
 ! D41   D(13,3,5,22)          -53.8103         estimate D2E/DX2                !
 ! D42   D(13,3,5,23)           62.9843         estimate D2E/DX2                !
 ! D43   D(16,3,5,1)            63.5931         estimate D2E/DX2                !
 ! D44   D(16,3,5,22)         -170.9411         estimate D2E/DX2                !
 ! D45   D(16,3,5,23)          -54.1465         estimate D2E/DX2                !
 ! D46   D(4,3,16,17)          161.4824         estimate D2E/DX2                !
 ! D47   D(5,3,16,17)           42.3431         estimate D2E/DX2                !
 ! D48   D(13,3,16,17)         -78.3596         estimate D2E/DX2                !
 ! D49   D(2,4,18,19)           54.7645         estimate D2E/DX2                !
 ! D50   D(3,4,18,19)          178.9749         estimate D2E/DX2                !
 ! D51   D(7,4,18,19)          -62.2317         estimate D2E/DX2                !
 ! D52   D(1,5,23,24)           52.436          estimate D2E/DX2                !
 ! D53   D(3,5,23,24)          178.5638         estimate D2E/DX2                !
 ! D54   D(22,5,23,24)         -61.0159         estimate D2E/DX2                !
 ! D55   D(1,6,10,11)          -63.8212         estimate D2E/DX2                !
 ! D56   D(1,6,10,12)           54.1826         estimate D2E/DX2                !
 ! D57   D(1,6,10,14)          176.2565         estimate D2E/DX2                !
 ! D58   D(2,6,10,11)           62.0401         estimate D2E/DX2                !
 ! D59   D(2,6,10,12)         -179.9561         estimate D2E/DX2                !
 ! D60   D(2,6,10,14)          -57.8823         estimate D2E/DX2                !
 ! D61   D(8,6,10,11)         -176.9463         estimate D2E/DX2                !
 ! D62   D(8,6,10,12)          -58.9426         estimate D2E/DX2                !
 ! D63   D(8,6,10,14)           63.1313         estimate D2E/DX2                !
 ! D64   D(6,10,14,15)         -88.4282         estimate D2E/DX2                !
 ! D65   D(11,10,14,15)        150.4943         estimate D2E/DX2                !
 ! D66   D(12,10,14,15)         34.622          estimate D2E/DX2                !
 --------------------------------------------------------------------------------
 Trust Radius=3.00D-01 FncErr=1.00D-07 GrdErr=1.00D-06
 Number of steps in this run=    144 maximum allowed number of steps=    144.
 GradGradGradGradGradGradGradGradGradGradGradGradGradGradGradGradGradGrad

                          Input orientation:                          
 ---------------------------------------------------------------------
 Center     Atomic      Atomic             Coordinates (Angstroms)
 Number     Number       Type             X           Y           Z
 ---------------------------------------------------------------------
      1          8           0        0.265238   -1.570433    0.198523
      2          6           0       -0.775370    0.738455   -0.264123
      3          6           0        1.768855    0.428696   -0.024662
      4          6           0        0.560064    1.359124    0.164588
      5          6           0        1.306629   -0.849791   -0.552737
      6          6           0       -0.943630   -0.640123    0.387762
      7          1           0        0.494990    1.693185    1.207912
      8          1           0       -1.047507   -0.519468    1.473162
      9          1           0       -0.805643    0.659158   -1.358082
     10          6           0       -2.173839   -1.385678   -0.135561
     11          1           0       -2.075167   -1.570269   -1.210793
     12          1           0       -2.274995   -2.365935    0.343267
     13          1           0        2.531967    0.880388   -0.668266
     14          8           0       -3.361008   -0.627663    0.079883
     15          1           0       -3.692094   -0.864330    0.967144
     16          8           0        2.401780    0.228067    1.257647
     17          1           0        2.946845   -0.577245    1.140549
     18          8           0        0.747951    2.557327   -0.612385
     19          1           0       -0.059712    3.087283   -0.456622
     20          8           0       -1.831557    1.638468    0.097499
     21          1           0       -2.673180    1.160251   -0.069158
     22          1           0        0.963699   -0.768395   -1.591005
     23          8           0        2.424373   -1.743079   -0.562608
     24          1           0        2.060325   -2.580221   -0.898179
 ---------------------------------------------------------------------
                    Distance matrix (angstroms):
                    1          2          3          4          5
     1  O    0.000000
     2  C    2.574465   0.000000
     3  C    2.511412   2.574174   0.000000
     4  C    2.944551   1.533756   1.537104   0.000000
     5  C    1.472485   2.634491   1.458439   2.439512   0.000000
     6  C    1.537091   1.534191   2.944494   2.511551   2.447890
     7  H    3.423865   2.166151   2.177362   1.097432   3.197713
     8  H    2.110102   2.162080   3.327820   2.797456   3.123353
     9  H    2.922479   1.097247   2.908464   2.161858   2.717941
    10  C    2.468774   2.546406   4.341554   3.885647   3.546106
    11  H    2.731971   2.813514   4.492135   4.173423   3.519754
    12  H    2.665813   3.500719   4.929306   4.684608   3.991184
    13  H    3.449044   3.334959   1.095715   2.193453   2.123280
    14  O    3.748673   2.944511   5.238542   4.396510   4.715547
    15  H    4.092656   3.548551   5.698909   4.865048   5.224699
    16  O    2.986831   3.559573   1.444009   2.421980   2.374579
    17  H    3.010789   4.190353   1.938374   3.224709   2.373143
    18  O    4.234263   2.397934   2.432845   1.440375   3.453134
    19  H    4.714777   2.462969   3.255508   1.938184   4.168534
    20  O    3.834554   1.433989   3.800189   2.408814   4.057395
    21  H    4.020272   1.953869   4.502091   3.247777   4.484752
    22  H    2.081712   2.656233   2.129491   2.787717   1.096461
    23  O    2.295864   4.060229   2.331458   3.691629   1.430878
    24  H    2.333402   4.410987   3.146676   4.347263   1.918795
                    6          7          8          9         10
     6  C    0.000000
     7  H    2.861223   0.000000
     8  H    1.097015   2.710256   0.000000
     9  H    2.180629   3.056989   3.076296   0.000000
    10  C    1.530730   4.290334   2.146377   2.747339   0.000000
    11  H    2.168162   4.806867   3.060046   2.569772   1.095415
    12  H    2.180124   4.989678   2.488540   3.768922   1.095633
    13  H    3.937883   2.886167   4.399766   3.415323   5.250090
    14  O    2.436937   4.639774   2.702817   3.202115   1.424912
    15  H    2.817802   4.912283   2.714558   4.007405   1.947527
    16  O    3.564018   2.405180   3.535935   4.161183   5.047919
    17  H    3.963135   3.342302   4.008593   4.674721   5.338860
    18  O    3.753056   2.030816   4.127934   2.563740   4.930670
    19  H    3.922735   2.240954   4.208142   2.695336   4.957821
    20  O    2.462650   2.578533   2.676541   2.032305   3.052365
    21  H    2.538004   3.457199   2.800539   2.323814   2.595285
    22  H    2.751341   3.756727   3.673695   2.285330   3.513332
    23  O    3.669218   4.320321   4.206606   4.103233   4.631809
    24  H    3.800180   5.014767   4.419115   4.349582   4.465049
                   11         12         13         14         15
    11  H    0.000000
    12  H    1.757304   0.000000
    13  H    5.246498   5.888013   0.000000
    14  O    2.051277   2.066491   6.128711   0.000000
    15  H    2.802894   2.156898   6.667649   0.976146   0.000000
    16  O    5.419434   5.425602   2.037551   5.943831   6.197824
    17  H    5.633428   5.576978   2.359794   6.396606   6.647405
    18  O    5.036381   5.855765   2.449073   5.244706   5.823800
    19  H    5.130655   5.940108   3.410569   4.998722   5.553067
    20  O    3.473754   4.036370   4.494599   2.734023   3.237573
    21  H    3.019386   3.572483   5.246981   1.921447   2.492195
    22  H    3.165797   4.096667   2.455483   4.638401   5.313167
    23  O    4.549271   4.826243   2.627797   5.926853   6.365808
    24  H    4.268492   4.514655   3.500160   5.844651   6.286019
                   16         17         18         19         20
    16  O    0.000000
    17  H    0.979457   0.000000
    18  O    3.414326   4.211111   0.000000
    19  H    4.144005   5.001910   0.978486   0.000000
    20  O    4.610457   5.369401   2.828798   2.354899   0.000000
    21  H    5.327720   6.005578   3.735111   3.270137   0.982240
    22  H    3.343027   3.380946   3.473424   4.147342   4.056783
    23  O    2.683143   2.129058   4.615881   5.432707   5.475723
    24  H    3.556776   2.992364   5.310217   6.067135   5.825415
                   21         22         23         24
    21  H    0.000000
    22  H    4.388916   0.000000
    23  O    5.887093   2.034988   0.000000
    24  H    6.089702   2.228298   0.972597   0.000000
 Stoichiometry    C6H12O6
 Framework group  C1[X(C6H12O6)]
 Deg. of freedom    66
 Full point group                 C1      NOp   1
 Largest Abelian subgroup         C1      NOp   1
 Largest concise Abelian subgroup C1      NOp   1
                         Standard orientation:                         
 ---------------------------------------------------------------------
 Center     Atomic      Atomic             Coordinates (Angstroms)
 Number     Number       Type             X           Y           Z
 ---------------------------------------------------------------------
      1          8           0        0.265238   -1.570433    0.198523
      2          6           0       -0.775370    0.738455   -0.264123
      3          6           0        1.768855    0.428696   -0.024662
      4          6           0        0.560064    1.359124    0.164588
      5          6           0        1.306629   -0.849791   -0.552737
      6          6           0       -0.943630   -0.640123    0.387762
      7          1           0        0.494990    1.693185    1.207912
      8          1           0       -1.047507   -0.519468    1.473162
      9          1           0       -0.805643    0.659158   -1.358082
     10          6           0       -2.173839   -1.385678   -0.135561
     11          1           0       -2.075167   -1.570269   -1.210793
     12          1           0       -2.274995   -2.365935    0.343267
     13          1           0        2.531967    0.880388   -0.668266
     14          8           0       -3.361008   -0.627663    0.079883
     15          1           0       -3.692094   -0.864330    0.967144
     16          8           0        2.401780    0.228067    1.257647
     17          1           0        2.946845   -0.577245    1.140549
     18          8           0        0.747951    2.557327   -0.612385
     19          1           0       -0.059712    3.087283   -0.456622
     20          8           0       -1.831557    1.638468    0.097499
     21          1           0       -2.673180    1.160251   -0.069158
     22          1           0        0.963699   -0.768395   -1.591005
     23          8           0        2.424373   -1.743079   -0.562608
     24          1           0        2.060325   -2.580221   -0.898179
 ---------------------------------------------------------------------
 Rotational constants (GHZ):      1.2649278      0.7459472      0.5252911
 Standard basis: 6-31G(d) (6D, 7F)
 There are   204 symmetry adapted cartesian basis functions of A   symmetry.
 There are   204 symmetry adapted basis functions of A   symmetry.
   204 basis functions,   384 primitive gaussians,   204 cartesian basis functions
    48 alpha electrons       48 beta electrons
       nuclear repulsion energy       826.3070409828 Hartrees.
 NAtoms=   24 NActive=   24 NUniq=   24 SFac= 1.00D+00 NAtFMM=   60 NAOKFM=F Big=F
 Integral buffers will be    131072 words long.
 Raffenetti 2 integral format.
 Two-electron integral symmetry is turned on.
 One-electron integrals computed using PRISM.
 NBasis=   204 RedAO= T EigKep=  1.20D-03  NBF=   204
 NBsUse=   204 1.00D-06 EigRej= -1.00D+00 NBFU=   204
 ExpMin= 1.61D-01 ExpMax= 5.48D+03 ExpMxC= 8.25D+02 IAcc=1 IRadAn=         1 AccDes= 0.00D+00
 Harris functional with IExCor=  402 and IRadAn=       1 diagonalized for initial guess.
 HarFok:  IExCor=  402 AccDes= 0.00D+00 IRadAn=         1 IDoV= 1 UseB2=F ITyADJ=14
 ICtDFT=  3500011 ScaDFX=  1.000000  1.000000  1.000000  1.000000
 FoFCou: FMM=F IPFlag=           0 FMFlag=      100000 FMFlg1=           0
         NFxFlg=           0 DoJE=T BraDBF=F KetDBF=T FulRan=T
         wScrn=  0.000000 ICntrl=     500 IOpCl=  0 I1Cent=   200000004 NGrid=           0
         NMat0=    1 NMatS0=      1 NMatT0=    0 NMatD0=    1 NMtDS0=    0 NMtDT0=    0
 Petite list used in FoFCou.
 Requested convergence on RMS density matrix=1.00D-08 within 128 cycles.
 Requested convergence on MAX density matrix=1.00D-06.
 Requested convergence on             energy=1.00D-06.
 No special actions if energy rises.
 Integral accuracy reduced to 1.0D-05 until final iterations.
 Initial convergence to 1.0D-05 achieved.  Increase integral accuracy.
 SCF Done:  E(RB3LYP) =  -687.119087546     A.U. after   14 cycles
            NFock= 14  Conv=0.31D-08     -V/T= 2.0088

 **********************************************************************

            Population analysis using the SCF density.

 **********************************************************************

 Orbital symmetries:
       Occupied  (A) (A) (A) (A) (A) (A) (A) (A) (A) (A) (A) (A)
                 (A) (A) (A) (A) (A) (A) (A) (A) (A) (A) (A) (A)
                 (A) (A) (A) (A) (A) (A) (A) (A) (A) (A) (A) (A)
                 (A) (A) (A) (A) (A) (A) (A) (A) (A) (A) (A) (A)
       Virtual   (A) (A) (A) (A) (A) (A) (A) (A) (A) (A) (A) (A)
                 (A) (A) (A) (A) (A) (A) (A) (A) (A) (A) (A) (A)
                 (A) (A) (A) (A) (A) (A) (A) (A) (A) (A) (A) (A)
                 (A) (A) (A) (A) (A) (A) (A) (A) (A) (A) (A) (A)
                 (A) (A) (A) (A) (A) (A) (A) (A) (A) (A) (A) (A)
                 (A) (A) (A) (A) (A) (A) (A) (A) (A) (A) (A) (A)
                 (A) (A) (A) (A) (A) (A) (A) (A) (A) (A) (A) (A)
                 (A) (A) (A) (A) (A) (A) (A) (A) (A) (A) (A) (A)
                 (A) (A) (A) (A) (A) (A) (A) (A) (A) (A) (A) (A)
                 (A) (A) (A) (A) (A) (A) (A) (A) (A) (A) (A) (A)
                 (A) (A) (A) (A) (A) (A) (A) (A) (A) (A) (A) (A)
                 (A) (A) (A) (A) (A) (A) (A) (A) (A) (A) (A) (A)
                 (A) (A) (A) (A) (A) (A) (A) (A) (A) (A) (A) (A)
 The electronic state is 1-A.
 Alpha  occ. eigenvalues --  -19.18518 -19.16693 -19.16585 -19.14727 -19.13556
 Alpha  occ. eigenvalues --  -19.13393 -10.29057 -10.25431 -10.25230 -10.24612
 Alpha  occ. eigenvalues --  -10.23709 -10.23670  -1.06577  -1.05596  -1.02559
 Alpha  occ. eigenvalues --   -1.00474  -0.99494  -0.98952  -0.78742  -0.77274
 Alpha  occ. eigenvalues --   -0.70117  -0.64809  -0.62665  -0.56089  -0.55132
 Alpha  occ. eigenvalues --   -0.54146  -0.52492  -0.50844  -0.50137  -0.48748
 Alpha  occ. eigenvalues --   -0.45755  -0.44535  -0.43851  -0.42164  -0.40781
 Alpha  occ. eigenvalues --   -0.40155  -0.38297  -0.37440  -0.36195  -0.34817
 Alpha  occ. eigenvalues --   -0.33429  -0.33013  -0.30711  -0.29850  -0.27392
 Alpha  occ. eigenvalues --   -0.27016  -0.26670  -0.25345
 Alpha virt. eigenvalues --    0.02903   0.05792   0.07629   0.08903   0.09722
 Alpha virt. eigenvalues --    0.11493   0.12993   0.13401   0.13972   0.15145
 Alpha virt. eigenvalues --    0.15762   0.16639   0.17002   0.18385   0.19686
 Alpha virt. eigenvalues --    0.20189   0.21866   0.24128   0.24985   0.25986
 Alpha virt. eigenvalues --    0.28185   0.31671   0.32443   0.35923   0.50361
 Alpha virt. eigenvalues --    0.51969   0.52365   0.56681   0.57017   0.59389
 Alpha virt. eigenvalues --    0.60263   0.61128   0.63528   0.65380   0.66341
 Alpha virt. eigenvalues --    0.69396   0.69950   0.73393   0.74808   0.75303
 Alpha virt. eigenvalues --    0.76167   0.77915   0.78449   0.80715   0.82225
 Alpha virt. eigenvalues --    0.83157   0.84165   0.85377   0.86444   0.86882
 Alpha virt. eigenvalues --    0.88038   0.89344   0.89702   0.91286   0.92209
 Alpha virt. eigenvalues --    0.93509   0.94978   0.97982   0.99262   1.01777
 Alpha virt. eigenvalues --    1.04021   1.05100   1.06154   1.07848   1.08343
 Alpha virt. eigenvalues --    1.11710   1.13607   1.16281   1.18371   1.20347
 Alpha virt. eigenvalues --    1.21752   1.25895   1.28158   1.31774   1.33722
 Alpha virt. eigenvalues --    1.34799   1.36294   1.39080   1.44601   1.50739
 Alpha virt. eigenvalues --    1.51966   1.55909   1.59880   1.60566   1.61809
 Alpha virt. eigenvalues --    1.62451   1.64769   1.66824   1.68124   1.70748
 Alpha virt. eigenvalues --    1.73019   1.73686   1.76813   1.78818   1.80081
 Alpha virt. eigenvalues --    1.82274   1.84343   1.86316   1.87107   1.87640
 Alpha virt. eigenvalues --    1.89202   1.92778   1.93994   1.94542   1.96555
 Alpha virt. eigenvalues --    1.98656   2.00967   2.04254   2.04774   2.09030
 Alpha virt. eigenvalues --    2.09278   2.12279   2.17138   2.18405   2.20882
 Alpha virt. eigenvalues --    2.23133   2.26522   2.28695   2.32274   2.33912
 Alpha virt. eigenvalues --    2.35138   2.39951   2.41669   2.44762   2.45681
 Alpha virt. eigenvalues --    2.48402   2.50316   2.52720   2.52970   2.54864
 Alpha virt. eigenvalues --    2.56975   2.60219   2.62368   2.65595   2.71847
 Alpha virt. eigenvalues --    2.76247   2.80812   2.84042   2.88750   2.92127
 Alpha virt. eigenvalues --    2.95287   2.97211   3.02269   3.04711   3.74348
 Alpha virt. eigenvalues --    3.76896   3.79315   3.85955   3.99396   4.06386
 Alpha virt. eigenvalues --    4.25817   4.35353   4.44728   4.50506   4.57584
 Alpha virt. eigenvalues --    4.81542
          Condensed to atoms (all electrons):
               1          2          3          4          5          6
     1  O    8.387295  -0.017735  -0.023271  -0.005961   0.189169   0.161024
     2  C   -0.017735   4.963925  -0.032176   0.338226  -0.009268   0.269282
     3  C   -0.023271  -0.032176   5.026381   0.296286   0.254833  -0.015221
     4  C   -0.005961   0.338226   0.296286   4.944785  -0.030945  -0.034667
     5  C    0.189169  -0.009268   0.254833  -0.030945   4.776646  -0.017154
     6  C    0.161024   0.269282  -0.015221  -0.034667  -0.017154   5.075020
     7  H    0.000377  -0.041419  -0.044729   0.354687   0.002990  -0.003363
     8  H   -0.030233  -0.046760   0.001414  -0.008458   0.001485   0.353181
     9  H    0.001674   0.351846  -0.001197  -0.049795  -0.000598  -0.053269
    10  C   -0.028349  -0.023644  -0.000010   0.004066  -0.001708   0.313358
    11  H    0.004581  -0.009071   0.000089  -0.000095   0.000751  -0.045077
    12  H    0.002693   0.004447  -0.000005  -0.000115  -0.000159  -0.039584
    13  H    0.002707   0.003182   0.356336  -0.046219  -0.034237   0.000540
    14  O    0.001216  -0.002409   0.000004  -0.000034   0.000029  -0.039939
    15  H   -0.000025  -0.000760   0.000001   0.000002  -0.000001  -0.000323
    16  O   -0.002802   0.000524   0.209757  -0.032067  -0.020903   0.002594
    17  H    0.001002  -0.000317  -0.037073   0.006256  -0.011478  -0.000047
    18  O    0.000022  -0.037077  -0.026667   0.203187   0.000398   0.004459
    19  H   -0.000007  -0.009594   0.006414  -0.026163  -0.000286   0.000623
    20  O    0.000834   0.224980   0.002544  -0.038821   0.000196  -0.030394
    21  H   -0.000007  -0.020692  -0.000194   0.004491   0.000034  -0.007206
    22  H   -0.057683   0.000031  -0.072974  -0.001191   0.362762   0.000189
    23  O   -0.052994   0.000233  -0.039069   0.002571   0.241745   0.002590
    24  H    0.005824   0.000052   0.008390  -0.000290  -0.021020  -0.000436
               7          8          9         10         11         12
     1  O    0.000377  -0.030233   0.001674  -0.028349   0.004581   0.002693
     2  C   -0.041419  -0.046760   0.351846  -0.023644  -0.009071   0.004447
     3  C   -0.044729   0.001414  -0.001197  -0.000010   0.000089  -0.000005
     4  C    0.354687  -0.008458  -0.049795   0.004066  -0.000095  -0.000115
     5  C    0.002990   0.001485  -0.000598  -0.001708   0.000751  -0.000159
     6  C   -0.003363   0.353181  -0.053269   0.313358  -0.045077  -0.039584
     7  H    0.594421   0.004463   0.007073  -0.000173   0.000002   0.000006
     8  H    0.004463   0.617047   0.007049  -0.058336   0.006308  -0.005559
     9  H    0.007073   0.007049   0.654793  -0.010128   0.005407  -0.000030
    10  C   -0.000173  -0.058336  -0.010128   4.965110   0.367513   0.369272
    11  H    0.000002   0.006308   0.005407   0.367513   0.576417  -0.037415
    12  H    0.000006  -0.005559  -0.000030   0.369272  -0.037415   0.592040
    13  H    0.002875  -0.000008   0.000002   0.000017  -0.000002  -0.000000
    14  O   -0.000007   0.004009   0.000108   0.208170  -0.033830  -0.027802
    15  H    0.000000   0.002943   0.000061  -0.025564   0.006476  -0.011042
    16  O    0.003305   0.000434  -0.000046   0.000021   0.000000  -0.000000
    17  H    0.000018  -0.000015   0.000013  -0.000002  -0.000000   0.000000
    18  O   -0.037883  -0.000013   0.002755  -0.000070  -0.000002   0.000000
    19  H   -0.004000  -0.000002  -0.000416  -0.000008   0.000000   0.000000
    20  O    0.000073   0.003516  -0.045805   0.000548   0.000020  -0.000217
    21  H   -0.000129  -0.000077  -0.001986  -0.005044  -0.000073   0.000640
    22  H   -0.000031  -0.000444   0.001356   0.000988  -0.000261   0.000037
    23  O   -0.000069  -0.000060   0.000014  -0.000034  -0.000009  -0.000000
    24  H    0.000008   0.000014   0.000010   0.000008   0.000009   0.000013
              13         14         15         16         17         18
     1  O    0.002707   0.001216  -0.000025  -0.002802   0.001002   0.000022
     2  C    0.003182  -0.002409  -0.000760   0.000524  -0.000317  -0.037077
     3  C    0.356336   0.000004   0.000001   0.209757  -0.037073  -0.026667
     4  C   -0.046219  -0.000034   0.000002  -0.032067   0.006256   0.203187
     5  C   -0.034237   0.000029  -0.000001  -0.020903  -0.011478   0.000398
     6  C    0.000540  -0.039939  -0.000323   0.002594  -0.000047   0.004459
     7  H    0.002875  -0.000007   0.000000   0.003305   0.000018  -0.037883
     8  H   -0.000008   0.004009   0.002943   0.000434  -0.000015  -0.000013
     9  H    0.000002   0.000108   0.000061  -0.000046   0.000013   0.002755
    10  C    0.000017   0.208170  -0.025564   0.000021  -0.000002  -0.000070
    11  H   -0.000002  -0.033830   0.006476   0.000000  -0.000000  -0.000002
    12  H   -0.000000  -0.027802  -0.011042  -0.000000   0.000000   0.000000
    13  H    0.581535  -0.000000  -0.000000  -0.038553  -0.000423   0.003676
    14  O   -0.000000   8.238973   0.238778  -0.000000  -0.000000   0.000000
    15  H   -0.000000   0.238778   0.379595  -0.000000  -0.000000   0.000000
    16  O   -0.038553  -0.000000  -0.000000   8.304252   0.234664   0.000733
    17  H   -0.000423  -0.000000  -0.000000   0.234664   0.370286  -0.000110
    18  O    0.003676   0.000000   0.000000   0.000733  -0.000110   8.310859
    19  H   -0.000073   0.000005  -0.000000  -0.000127   0.000010   0.233047
    20  O   -0.000045  -0.017610   0.001483  -0.000007   0.000001  -0.003413
    21  H    0.000004   0.049070  -0.002420   0.000001  -0.000000   0.000021
    22  H    0.001959  -0.000018  -0.000000   0.004418   0.001278   0.000623
    23  O   -0.001647   0.000000  -0.000000  -0.011122   0.026514  -0.000009
    24  H   -0.000331   0.000000   0.000000   0.000263  -0.001002   0.000001
              19         20         21         22         23         24
     1  O   -0.000007   0.000834  -0.000007  -0.057683  -0.052994   0.005824
     2  C   -0.009594   0.224980  -0.020692   0.000031   0.000233   0.000052
     3  C    0.006414   0.002544  -0.000194  -0.072974  -0.039069   0.008390
     4  C   -0.026163  -0.038821   0.004491  -0.001191   0.002571  -0.000290
     5  C   -0.000286   0.000196   0.000034   0.362762   0.241745  -0.021020
     6  C    0.000623  -0.030394  -0.007206   0.000189   0.002590  -0.000436
     7  H   -0.004000   0.000073  -0.000129  -0.000031  -0.000069   0.000008
     8  H   -0.000002   0.003516  -0.000077  -0.000444  -0.000060   0.000014
     9  H   -0.000416  -0.045805  -0.001986   0.001356   0.000014   0.000010
    10  C   -0.000008   0.000548  -0.005044   0.000988  -0.000034   0.000008
    11  H    0.000000   0.000020  -0.000073  -0.000261  -0.000009   0.000009
    12  H    0.000000  -0.000217   0.000640   0.000037  -0.000000   0.000013
    13  H   -0.000073  -0.000045   0.000004   0.001959  -0.001647  -0.000331
    14  O    0.000005  -0.017610   0.049070  -0.000018   0.000000   0.000000
    15  H   -0.000000   0.001483  -0.002420  -0.000000  -0.000000   0.000000
    16  O   -0.000127  -0.000007   0.000001   0.004418  -0.011122   0.000263
    17  H    0.000010   0.000001  -0.000000   0.001278   0.026514  -0.001002
    18  O    0.233047  -0.003413   0.000021   0.000623  -0.000009   0.000001
    19  H    0.378347   0.016570  -0.000258  -0.000019   0.000001  -0.000000
    20  O    0.016570   8.344146   0.224158   0.000012  -0.000000  -0.000000
    21  H   -0.000258   0.224158   0.335591  -0.000012  -0.000000   0.000000
    22  H   -0.000019   0.000012  -0.000012   0.687144  -0.048368  -0.005898
    23  O    0.000001  -0.000000  -0.000000  -0.048368   8.288506   0.233894
    24  H   -0.000000  -0.000000   0.000000  -0.005898   0.233894   0.374034
 Mulliken charges:
               1
     1  O   -0.539349
     2  C    0.094193
     3  C    0.130135
     4  C    0.120263
     5  C    0.316718
     6  C    0.103818
     7  H    0.161506
     8  H    0.148102
     9  H    0.131111
    10  C   -0.075999
    11  H    0.158261
    12  H    0.152780
    13  H    0.168707
    14  O   -0.618713
    15  H    0.410795
    16  O   -0.655338
    17  H    0.410423
    18  O   -0.654537
    19  H    0.405936
    20  O   -0.682769
    21  H    0.424088
    22  H    0.126102
    23  O   -0.642688
    24  H    0.406457
 Sum of Mulliken charges =  -0.00000
 Mulliken charges with hydrogens summed into heavy atoms:
               1
     1  O   -0.539349
     2  C    0.225304
     3  C    0.298841
     4  C    0.281769
     5  C    0.442820
     6  C    0.251920
    10  C    0.235041
    14  O   -0.207918
    16  O   -0.244915
    18  O   -0.248600
    20  O   -0.258682
    23  O   -0.236231
 Electronic spatial extent (au):  <R**2>=           2148.1501
 Charge=             -0.0000 electrons
 Dipole moment (field-independent basis, Debye):
    X=             -3.0813    Y=             -3.1413    Z=             -0.5660  Tot=              4.4365
 Quadrupole moment (field-independent basis, Debye-Ang):
   XX=            -68.7417   YY=            -69.6277   ZZ=            -69.4536
   XY=             -0.6696   XZ=             -6.7716   YZ=              1.3557
 Traceless Quadrupole moment (field-independent basis, Debye-Ang):
   XX=              0.5326   YY=             -0.3533   ZZ=             -0.1793
   XY=             -0.6696   XZ=             -6.7716   YZ=              1.3557
 Octapole moment (field-independent basis, Debye-Ang**2):
  XXX=            -20.4460  YYY=            -15.4633  ZZZ=             -0.1928  XYY=             -5.8803
  XXY=            -19.5608  XXZ=             19.5405  XZZ=            -11.3920  YZZ=             -9.0973
  YYZ=             -2.4732  XYZ=              8.7221
 Hexadecapole moment (field-independent basis, Debye-Ang**3):
 XXXX=          -1402.9975 YYYY=           -757.0196 ZZZZ=           -208.9098 XXXY=             -2.3216
 XXXZ=            -74.0818 YYYX=            -58.2865 YYYZ=             25.9779 ZZZX=            -13.0517
 ZZZY=              0.0631 XXYY=           -374.7311 XXZZ=           -259.0324 YYZZ=           -168.7473
 XXYZ=            -35.9840 YYXZ=             -7.1545 ZZXY=             -9.3670
 N-N= 8.263070409828D+02 E-N=-3.264168755409D+03  KE= 6.811564587873D+02
 Calling FoFJK, ICntrl=      2127 FMM=F ISym2X=0 I1Cent= 0 IOpClX= 0 NMat=1 NMatS=1 NMatT=0.
 ***** Axes restored to original set *****
 -------------------------------------------------------------------
 Center     Atomic                   Forces (Hartrees/Bohr)
 Number     Number              X              Y              Z
 -------------------------------------------------------------------
      1        8          -0.015829922    0.054134746   -0.008780105
      2        6          -0.001954956   -0.002231405    0.004017470
      3        6           0.008840654    0.024961336    0.037522418
      4        6          -0.004648544    0.030747167   -0.008093461
      5        6           0.000642458   -0.070249129   -0.020185420
      6        6           0.014421584   -0.027610557    0.003327807
      7        1           0.000169166   -0.011454983    0.003818669
      8        1           0.001962086    0.002937829   -0.000391732
      9        1           0.006126877   -0.004590058   -0.002132794
     10        6           0.006832607   -0.008317291   -0.000731113
     11        1          -0.001290779    0.002918247   -0.000831935
     12        1           0.003947248   -0.001346250    0.000551069
     13        1          -0.008088008    0.001227066   -0.009619984
     14        8          -0.009646661   -0.001341862    0.004101529
     15        1           0.001210600    0.005203318   -0.005847054
     16        8          -0.004733526   -0.003355738   -0.004565580
     17        1          -0.003473745    0.004511354    0.001711029
     18        8          -0.000377685   -0.001514058   -0.000905988
     19        1           0.004712497   -0.003561531   -0.001753281
     20        8           0.005743190   -0.004151497    0.005093699
     21        1           0.005609774    0.001595268    0.001961986
     22        1          -0.003568970    0.006414219   -0.001089284
     23        8          -0.010782462    0.005875482    0.000079314
     24        1           0.004176518   -0.000801674    0.002742742
 -------------------------------------------------------------------
 Cartesian Forces:  Max     0.070249129 RMS     0.013907474

 GradGradGradGradGradGradGradGradGradGradGradGradGradGradGradGradGradGrad
 Berny optimization.
 FormGI is forming the generalized inverse of G from B-inverse, IUseBI=4.
 Internal  Forces:  Max     0.034742542 RMS     0.006523427
 Search for a local minimum.
 Step number   1 out of a maximum of  144
 All quantities printed in internal units (Hartrees-Bohrs-Radians)
 Mixed Optimization -- RFO/linear search
 Second derivative matrix not updated -- first step.
 ITU=  0
     Eigenvalues ---    0.00359   0.00378   0.00529   0.01110   0.01158
     Eigenvalues ---    0.01242   0.01283   0.01362   0.01426   0.02874
     Eigenvalues ---    0.03184   0.04207   0.04467   0.04609   0.04817
     Eigenvalues ---    0.04898   0.05211   0.05278   0.05721   0.06226
     Eigenvalues ---    0.06542   0.06899   0.07149   0.07481   0.07599
     Eigenvalues ---    0.09821   0.11274   0.11578   0.13370   0.13886
     Eigenvalues ---    0.15582   0.16000   0.16000   0.16000   0.16000
     Eigenvalues ---    0.16000   0.16839   0.17941   0.19448   0.19705
     Eigenvalues ---    0.19934   0.21970   0.26367   0.27630   0.28439
     Eigenvalues ---    0.28778   0.29356   0.33968   0.33988   0.34014
     Eigenvalues ---    0.34057   0.34077   0.34160   0.34170   0.34194
     Eigenvalues ---    0.35649   0.39041   0.39534   0.40421   0.40863
     Eigenvalues ---    0.41729   0.50952   0.51490   0.51680   0.52141
     Eigenvalues ---    0.52850
 RFO step:  Lambda=-2.46707992D-02 EMin= 3.59452463D-03
 Linear search not attempted -- first point.
 Iteration  1 RMS(Cart)=  0.05654087 RMS(Int)=  0.00144337
 Iteration  2 RMS(Cart)=  0.00220487 RMS(Int)=  0.00061549
 Iteration  3 RMS(Cart)=  0.00000212 RMS(Int)=  0.00061549
 Iteration  4 RMS(Cart)=  0.00000000 RMS(Int)=  0.00061549
 Variable       Old X    -DE/DX   Delta X   Delta X   Delta X     New X
                                 (Linear)    (Quad)   (Total)
    R1        2.78259  -0.02232   0.00000  -0.05955  -0.05853   2.72406
    R2        2.90468  -0.03405   0.00000  -0.11467  -0.11416   2.79052
    R3        2.89838  -0.00392   0.00000  -0.01442  -0.01522   2.88316
    R4        2.89920   0.00082   0.00000  -0.00053  -0.00116   2.89804
    R5        2.07350   0.00229   0.00000   0.00627   0.00627   2.07977
    R6        2.70985  -0.00819   0.00000  -0.01909  -0.01909   2.69076
    R7        2.90470  -0.00524   0.00000  -0.01110  -0.01157   2.89314
    R8        2.75605   0.03474   0.00000   0.09261   0.09306   2.84911
    R9        2.07060   0.00052   0.00000   0.00141   0.00141   2.07202
   R10        2.72878  -0.00628   0.00000  -0.01513  -0.01513   2.71366
   R11        2.07385   0.00014   0.00000   0.00039   0.00039   2.07424
   R12        2.72191  -0.00224   0.00000  -0.00533  -0.00533   2.71659
   R13        2.07201   0.00262   0.00000   0.00718   0.00718   2.07919
   R14        2.70397  -0.00835   0.00000  -0.01927  -0.01927   2.68470
   R15        2.07306  -0.00026   0.00000  -0.00070  -0.00070   2.07235
   R16        2.89266   0.00153   0.00000   0.00481   0.00481   2.89747
   R17        2.07003   0.00022   0.00000   0.00061   0.00061   2.07064
   R18        2.07045   0.00108   0.00000   0.00293   0.00293   2.07338
   R19        2.69269   0.00881   0.00000   0.01994   0.01994   2.71263
   R20        1.84465  -0.00700   0.00000  -0.01282  -0.01282   1.83183
   R21        1.85090  -0.00585   0.00000  -0.01083  -0.01083   1.84007
   R22        1.84907  -0.00609   0.00000  -0.01125  -0.01125   1.83782
   R23        1.85616  -0.00591   0.00000  -0.01107  -0.01107   1.84509
   R24        1.83794  -0.00182   0.00000  -0.00330  -0.00330   1.83464
    A1        1.89950   0.01825   0.00000   0.08332   0.08562   1.98512
    A2        1.91809   0.00546   0.00000   0.02799   0.02764   1.94573
    A3        1.90916  -0.00021   0.00000  -0.01516  -0.01461   1.89456
    A4        1.89318  -0.00854   0.00000  -0.04930  -0.04916   1.84402
    A5        1.93442  -0.00417   0.00000  -0.01799  -0.01834   1.91609
    A6        1.95631   0.00083   0.00000  -0.01021  -0.00959   1.94672
    A7        1.85091   0.00644   0.00000   0.06408   0.06400   1.91491
    A8        1.90283   0.00404   0.00000   0.03508   0.03562   1.93845
    A9        1.95033  -0.00147   0.00000  -0.03707  -0.03710   1.91322
   A10        1.89595  -0.00620   0.00000  -0.02730  -0.02746   1.86850
   A11        1.94918  -0.00473   0.00000  -0.04233  -0.04211   1.90706
   A12        1.91628   0.00211   0.00000   0.00900   0.00864   1.92493
   A13        1.84795   0.00617   0.00000   0.06316   0.06335   1.91130
   A14        1.98816  -0.00719   0.00000  -0.03017  -0.03167   1.95649
   A15        1.91483  -0.00066   0.00000  -0.02168  -0.02382   1.89101
   A16        1.87489   0.00708   0.00000   0.03728   0.03692   1.91181
   A17        1.92617  -0.00139   0.00000  -0.03721  -0.03880   1.88737
   A18        1.91192  -0.00056   0.00000  -0.00811  -0.00671   1.90521
   A19        1.84143   0.00379   0.00000   0.06992   0.07000   1.91143
   A20        2.05831  -0.01601   0.00000  -0.08128  -0.08151   1.97679
   A21        1.87366   0.00481   0.00000   0.02149   0.01908   1.89274
   A22        1.82394   0.00843   0.00000   0.02924   0.02826   1.85220
   A23        1.95726   0.00000   0.00000  -0.01027  -0.01082   1.94643
   A24        1.87778   0.00209   0.00000   0.00380   0.00342   1.88120
   A25        1.85889   0.00288   0.00000   0.05302   0.05259   1.91149
   A26        1.98809  -0.00431   0.00000  -0.02350  -0.02334   1.96474
   A27        1.83677   0.00402   0.00000   0.01199   0.01214   1.84891
   A28        1.87044  -0.00610   0.00000  -0.03171  -0.03138   1.83906
   A29        1.90918  -0.00470   0.00000  -0.01506  -0.01545   1.89372
   A30        1.96117   0.00983   0.00000   0.02901   0.02817   1.98934
   A31        1.89202   0.00113   0.00000   0.03084   0.03083   1.92284
   A32        1.92331  -0.00028   0.00000  -0.00634  -0.00634   1.91697
   A33        1.93966  -0.00504   0.00000  -0.02320  -0.02350   1.91617
   A34        1.93777   0.00521   0.00000   0.02173   0.02172   1.95949
   A35        1.86140   0.00182   0.00000   0.00763   0.00761   1.86901
   A36        1.88926  -0.00430   0.00000  -0.02982  -0.02967   1.85958
   A37        1.91023   0.00245   0.00000   0.02927   0.02939   1.93962
   A38        1.86611   0.00561   0.00000   0.03036   0.03036   1.89647
   A39        1.82553   0.00162   0.00000   0.00880   0.00880   1.83433
   A40        1.83072   0.00030   0.00000   0.00162   0.00162   1.83234
   A41        1.85744  -0.00187   0.00000  -0.01011  -0.01011   1.84734
   A42        1.82073   0.00796   0.00000   0.04309   0.04309   1.86382
    D1        0.96361  -0.00403   0.00000  -0.02504  -0.02368   0.93993
    D2       -1.26658   0.00449   0.00000   0.03515   0.03607  -1.23051
    D3        3.04701  -0.00452   0.00000  -0.04651  -0.04660   3.00042
    D4        0.02616  -0.00737   0.00000  -0.02504  -0.02459   0.00157
    D5       -2.06492  -0.00181   0.00000  -0.00113  -0.00050  -2.06542
    D6        2.20667  -0.00226   0.00000  -0.02769  -0.02690   2.17977
    D7        0.88658  -0.00395   0.00000  -0.03892  -0.03931   0.84727
    D8       -1.28244   0.00369   0.00000   0.04926   0.04838  -1.23406
    D9        3.00741  -0.00422   0.00000  -0.04193  -0.04251   2.96489
   D10       -1.24089  -0.00213   0.00000  -0.02471  -0.02450  -1.26539
   D11        2.87328   0.00551   0.00000   0.06347   0.06318   2.93646
   D12        0.87994  -0.00240   0.00000  -0.02773  -0.02771   0.85223
   D13        3.03083  -0.00500   0.00000  -0.06575  -0.06588   2.96495
   D14        0.86181   0.00265   0.00000   0.02243   0.02181   0.88362
   D15       -1.13152  -0.00526   0.00000  -0.06876  -0.06909  -1.20061
   D16       -0.88652  -0.00384   0.00000  -0.00501  -0.00532  -0.89184
   D17        1.16320  -0.00468   0.00000  -0.01490  -0.01453   1.14867
   D18       -3.01778  -0.00008   0.00000   0.03257   0.03263  -2.98516
   D19        1.22583  -0.00320   0.00000  -0.01720  -0.01762   1.20821
   D20       -3.00764  -0.00404   0.00000  -0.02709  -0.02683  -3.03447
   D21       -0.90544   0.00055   0.00000   0.02038   0.02033  -0.88511
   D22       -2.99311   0.00267   0.00000   0.04493   0.04448  -2.94863
   D23       -0.94339   0.00184   0.00000   0.03504   0.03527  -0.90812
   D24        1.15881   0.00643   0.00000   0.08251   0.08243   1.24124
   D25       -3.00185  -0.00009   0.00000   0.02058   0.01975  -2.98211
   D26       -0.88090   0.00148   0.00000   0.01560   0.01583  -0.86507
   D27        1.23225   0.00102   0.00000   0.02910   0.02971   1.26196
   D28       -0.02134   0.00603   0.00000   0.06033   0.05913   0.03779
   D29        2.14158  -0.00129   0.00000  -0.02003  -0.02031   2.12126
   D30       -2.12150   0.00217   0.00000   0.03857   0.03788  -2.08362
   D31        2.14171   0.00188   0.00000   0.00599   0.00520   2.14690
   D32       -1.97857  -0.00545   0.00000  -0.07437  -0.07425  -2.05281
   D33        0.04154  -0.00198   0.00000  -0.01576  -0.01605   0.02549
   D34       -2.10913   0.00476   0.00000   0.04503   0.04456  -2.06457
   D35        0.05379  -0.00256   0.00000  -0.03533  -0.03489   0.01890
   D36        2.07389   0.00090   0.00000   0.02328   0.02331   2.09720
   D37       -0.96524   0.00507   0.00000   0.01013   0.00939  -0.95584
   D38        1.22455  -0.00209   0.00000  -0.04007  -0.03946   1.18510
   D39       -3.02018   0.00271   0.00000   0.02102   0.02078  -2.99940
   D40       -3.12896   0.00730   0.00000   0.06136   0.06038  -3.06858
   D41       -0.93917   0.00014   0.00000   0.01116   0.01153  -0.92764
   D42        1.09928   0.00494   0.00000   0.07224   0.07176   1.17105
   D43        1.10991   0.00122   0.00000   0.00334   0.00288   1.11279
   D44       -2.98349  -0.00594   0.00000  -0.04685  -0.04597  -3.02945
   D45       -0.94503  -0.00114   0.00000   0.01423   0.01427  -0.93077
   D46        2.81840   0.00095   0.00000   0.00745   0.00790   2.82629
   D47        0.73903  -0.00149   0.00000  -0.02404  -0.02369   0.71534
   D48       -1.36763  -0.00061   0.00000  -0.01550  -0.01630  -1.38393
   D49        0.95582   0.00252   0.00000   0.00109   0.00241   0.95823
   D50        3.12370  -0.00212   0.00000  -0.01707  -0.01721   3.10650
   D51       -1.08615  -0.00193   0.00000  -0.02607  -0.02725  -1.11340
   D52        0.91518   0.00661   0.00000   0.01554   0.01630   0.93148
   D53        3.11653  -0.00631   0.00000  -0.06170  -0.06216   3.05437
   D54       -1.06493  -0.00364   0.00000  -0.04304  -0.04332  -1.10825
   D55       -1.11389   0.00160   0.00000   0.01484   0.01483  -1.09906
   D56        0.94566   0.00054   0.00000   0.00585   0.00601   0.95167
   D57        3.07626   0.00380   0.00000   0.04227   0.04226   3.11851
   D58        1.08280  -0.00169   0.00000  -0.01865  -0.01914   1.06366
   D59       -3.14083  -0.00275   0.00000  -0.02764  -0.02797   3.11439
   D60       -1.01024   0.00050   0.00000   0.00877   0.00828  -1.00195
   D61       -3.08830  -0.00058   0.00000   0.00188   0.00221  -3.08609
   D62       -1.02874  -0.00164   0.00000  -0.00711  -0.00661  -1.03535
   D63        1.10185   0.00162   0.00000   0.02930   0.02964   1.13149
   D64       -1.54336   0.00169   0.00000   0.02659   0.02627  -1.51710
   D65        2.62662   0.00160   0.00000   0.04034   0.04026   2.66688
   D66        0.60427   0.00050   0.00000   0.03199   0.03239   0.63666
         Item               Value     Threshold  Converged?
 Maximum Force            0.034743     0.000450     NO 
 RMS     Force            0.006523     0.000300     NO 
 Maximum Displacement     0.262113     0.001800     NO 
 RMS     Displacement     0.056982     0.001200     NO 
 Predicted change in Energy=-1.433046D-02
 GradGradGradGradGradGradGradGradGradGradGradGradGradGradGradGradGradGrad

                          Input orientation:                          
 ---------------------------------------------------------------------
 Center     Atomic      Atomic             Coordinates (Angstroms)
 Number     Number       Type             X           Y           Z
 ---------------------------------------------------------------------
      1          8           0        0.231753   -1.500842    0.164389
      2          6           0       -0.766877    0.758094   -0.248977
      3          6           0        1.738632    0.438353   -0.026835
      4          6           0        0.559328    1.398613    0.149372
      5          6           0        1.283414   -0.879338   -0.600921
      6          6           0       -0.936319   -0.625910    0.389524
      7          1           0        0.502836    1.679612    1.208929
      8          1           0       -1.013705   -0.500709    1.476244
      9          1           0       -0.797142    0.668699   -1.345489
     10          6           0       -2.141408   -1.412791   -0.139167
     11          1           0       -2.030526   -1.583674   -1.215803
     12          1           0       -2.181214   -2.398400    0.341259
     13          1           0        2.482011    0.887171   -0.696299
     14          8           0       -3.375516   -0.701067    0.036825
     15          1           0       -3.724721   -0.899218    0.919127
     16          8           0        2.319395    0.241754    1.271693
     17          1           0        2.853450   -0.568406    1.190679
     18          8           0        0.784401    2.573559   -0.647757
     19          1           0       -0.008350    3.121595   -0.517301
     20          8           0       -1.776626    1.662256    0.187319
     21          1           0       -2.624293    1.192245    0.069546
     22          1           0        0.939392   -0.769535   -1.640230
     23          8           0        2.385124   -1.775277   -0.557712
     24          1           0        2.055975   -2.639012   -0.854659
 ---------------------------------------------------------------------
                    Distance matrix (angstroms):
                    1          2          3          4          5
     1  O    0.000000
     2  C    2.504182   0.000000
     3  C    2.463276   2.535579   0.000000
     4  C    2.917940   1.525702   1.530983   0.000000
     5  C    1.441512   2.647402   1.507683   2.505255   0.000000
     6  C    1.476681   1.533578   2.908844   2.528503   2.443854
     7  H    3.358547   2.141695   2.143602   1.097640   3.230029
     8  H    2.066978   2.149860   3.273598   2.800437   3.120053
     9  H    2.836418   1.100566   2.867413   2.146484   2.698057
    10  C    2.394116   2.571796   4.300473   3.909121   3.496740
    11  H    2.651357   2.831155   4.439458   4.179125   3.443307
    12  H    2.580563   3.508872   4.852613   4.686651   3.898576
    13  H    3.392205   3.282077   1.096464   2.161815   2.136887
    14  O    3.697068   3.002638   5.239928   4.461426   4.705755
    15  H    4.072501   3.586083   5.703698   4.921953   5.233770
    16  O    2.936156   3.479097   1.436005   2.386580   2.415944
    17  H    2.965805   4.115699   1.933577   3.196323   2.402399
    18  O    4.191151   2.421033   2.419754   1.437557   3.489083
    19  H    4.678598   2.496697   3.239181   1.932712   4.205129
    20  O    3.746906   1.423888   3.728383   2.351090   4.055227
    21  H    3.926668   1.933892   4.428630   3.191301   4.473383
    22  H    2.071765   2.679662   2.168138   2.836898   1.100259
    23  O    2.287739   4.055662   2.366419   3.729220   1.420683
    24  H    2.379427   4.458214   3.202526   4.421589   1.938475
                    6          7          8          9         10
     6  C    0.000000
     7  H    2.838666   0.000000
     8  H    1.096643   2.669298   0.000000
     9  H    2.169252   3.039234   3.062122   0.000000
    10  C    1.533276   4.286298   2.170982   2.755878   0.000000
    11  H    2.166027   4.790228   3.074712   2.571233   1.095737
    12  H    2.166521   4.958544   2.500500   3.764023   1.097186
    13  H    3.892738   2.859194   4.343522   3.349929   5.193864
    14  O    2.465710   4.699264   2.773125   3.230335   1.435461
    15  H    2.851379   4.960503   2.796211   4.019648   1.972466
    16  O    3.482921   2.317598   3.420913   4.092032   4.962540
    17  H    3.873952   3.252584   3.878275   4.614043   5.237373
    18  O    3.778019   2.079833   4.146768   2.572275   4.970916
    19  H    3.965760   2.306621   4.255120   2.706434   5.025294
    20  O    2.445957   2.497986   2.630930   2.072691   3.113772
    21  H    2.501465   3.363727   2.727432   2.369580   2.657622
    22  H    2.767457   3.782408   3.687718   2.273969   3.486874
    23  O    3.640095   4.312805   4.160955   4.089062   4.560271
    24  H    3.815023   5.032012   4.407765   4.395696   4.430978
                   11         12         13         14         15
    11  H    0.000000
    12  H    1.763781   0.000000
    13  H    5.170875   5.798032   0.000000
    14  O    2.038890   2.097612   6.113150   0.000000
    15  H    2.810107   2.227979   6.657651   0.969363   0.000000
    16  O    5.333070   5.300151   2.077498   5.903035   6.160962
    17  H    5.538514   5.423857   2.411919   6.336324   6.592079
    18  O    5.052631   5.873108   2.393354   5.338234   5.903176
    19  H    5.168816   5.994064   3.350611   5.124218   5.660537
    20  O    3.545318   4.083664   4.417865   2.857340   3.300268
    21  H    3.116153   3.628068   5.172420   2.037164   2.511364
    22  H    3.108596   4.039514   2.452622   4.629863   5.321754
    23  O    4.468530   4.695517   2.667813   5.890024   6.346553
    24  H    4.235995   4.409296   3.555355   5.835364   6.292030
                   16         17         18         19         20
    16  O    0.000000
    17  H    0.973723   0.000000
    18  O    3.387891   4.187213   0.000000
    19  H    4.112467   4.972243   0.972531   0.000000
    20  O    4.468901   5.236428   2.843710   2.398533   0.000000
    21  H    5.175774   5.861953   3.747232   3.303019   0.976381
    22  H    3.377337   3.423173   3.490745   4.159336   4.078026
    23  O    2.723868   2.175486   4.634954   5.450661   5.449025
    24  H    3.590205   3.017744   5.369414   6.128608   5.854524
                   21         22         23         24
    21  H    0.000000
    22  H    4.412682   0.000000
    23  O    5.856100   2.067246   0.000000
    24  H    6.118627   2.314913   0.970852   0.000000
 Stoichiometry    C6H12O6
 Framework group  C1[X(C6H12O6)]
 Deg. of freedom    66
 Full point group                 C1      NOp   1
 Largest Abelian subgroup         C1      NOp   1
 Largest concise Abelian subgroup C1      NOp   1
                         Standard orientation:                         
 ---------------------------------------------------------------------
 Center     Atomic      Atomic             Coordinates (Angstroms)
 Number     Number       Type             X           Y           Z
 ---------------------------------------------------------------------
      1          8           0        0.194719   -1.507632    0.184957
      2          6           0       -0.738195    0.773667   -0.258073
      3          6           0        1.756270    0.386418   -0.019653
      4          6           0        0.603514    1.381182    0.140059
      5          6           0        1.267056   -0.924268   -0.581684
      6          6           0       -0.949436   -0.597932    0.394579
      7          1           0        0.549829    1.675313    1.196192
      8          1           0       -1.028505   -0.458643    1.479462
      9          1           0       -0.765682    0.673072   -1.353688
     10          6           0       -2.173554   -1.356569   -0.131673
     11          1           0       -2.062331   -1.542344   -1.205803
     12          1           0       -2.243283   -2.335322    0.359242
     13          1           0        2.515148    0.806855   -0.690152
     14          8           0       -3.388058   -0.608697    0.030249
     15          1           0       -3.746917   -0.787263    0.912858
     16          8           0        2.325044    0.187973    1.283890
     17          1           0        2.836560   -0.637656    1.214431
     18          8           0        0.865266    2.540512   -0.668650
     19          1           0        0.087571    3.111919   -0.548223
     20          8           0       -1.724286    1.710480    0.163187
     21          1           0       -2.584220    1.263101    0.046203
     22          1           0        0.931248   -0.816346   -1.623872
     23          8           0        2.342997   -1.850151   -0.523093
     24          1           0        1.991196   -2.707559   -0.812300
 ---------------------------------------------------------------------
 Rotational constants (GHZ):      1.2382842      0.7613203      0.5303908
 Standard basis: 6-31G(d) (6D, 7F)
 There are   204 symmetry adapted cartesian basis functions of A   symmetry.
 There are   204 symmetry adapted basis functions of A   symmetry.
   204 basis functions,   384 primitive gaussians,   204 cartesian basis functions
    48 alpha electrons       48 beta electrons
       nuclear repulsion energy       828.4775228219 Hartrees.
 NAtoms=   24 NActive=   24 NUniq=   24 SFac= 1.00D+00 NAtFMM=   60 NAOKFM=F Big=F
 Integral buffers will be    131072 words long.
 Raffenetti 2 integral format.
 Two-electron integral symmetry is turned on.
 One-electron integrals computed using PRISM.
 NBasis=   204 RedAO= T EigKep=  1.18D-03  NBF=   204
 NBsUse=   204 1.00D-06 EigRej= -1.00D+00 NBFU=   204
 Initial guess from the checkpoint file:  "/scratch/10454689.yak.local/Gau-4737.chk"
 B after Tr=    -0.000000    0.000000    0.000000
         Rot=    0.999885    0.003892    0.002802    0.014386 Ang=   1.74 deg.
 ExpMin= 1.61D-01 ExpMax= 5.48D+03 ExpMxC= 8.25D+02 IAcc=1 IRadAn=         1 AccDes= 0.00D+00
 Harris functional with IExCor=  402 and IRadAn=       1 diagonalized for initial guess.
 HarFok:  IExCor=  402 AccDes= 0.00D+00 IRadAn=         1 IDoV= 1 UseB2=F ITyADJ=14
 ICtDFT=  3500011 ScaDFX=  1.000000  1.000000  1.000000  1.000000
 FoFCou: FMM=F IPFlag=           0 FMFlag=      100000 FMFlg1=           0
         NFxFlg=           0 DoJE=T BraDBF=F KetDBF=T FulRan=T
         wScrn=  0.000000 ICntrl=     500 IOpCl=  0 I1Cent=   200000004 NGrid=           0
         NMat0=    1 NMatS0=      1 NMatT0=    0 NMatD0=    1 NMtDS0=    0 NMtDT0=    0
 Petite list used in FoFCou.
 Requested convergence on RMS density matrix=1.00D-08 within 128 cycles.
 Requested convergence on MAX density matrix=1.00D-06.
 Requested convergence on             energy=1.00D-06.
 No special actions if energy rises.
 Integral accuracy reduced to 1.0D-05 until final iterations.
 Initial convergence to 1.0D-05 achieved.  Increase integral accuracy.
 SCF Done:  E(RB3LYP) =  -687.133872390     A.U. after   12 cycles
            NFock= 12  Conv=0.44D-08     -V/T= 2.0087
 Calling FoFJK, ICntrl=      2127 FMM=F ISym2X=0 I1Cent= 0 IOpClX= 0 NMat=1 NMatS=1 NMatT=0.
 ***** Axes restored to original set *****
 -------------------------------------------------------------------
 Center     Atomic                   Forces (Hartrees/Bohr)
 Number     Number              X              Y              Z
 -------------------------------------------------------------------
      1        8          -0.006335662    0.019251224   -0.004325677
      2        6          -0.002646112    0.002709246    0.003480732
      3        6           0.008708695    0.006895249    0.016313623
      4        6           0.001761523    0.010838540   -0.007732433
      5        6           0.000768166   -0.026886610   -0.001344947
      6        6           0.013579835   -0.015695957    0.000182206
      7        1           0.000221997   -0.002675964    0.000529342
      8        1          -0.001531504    0.001793305    0.000650784
      9        1           0.000302242   -0.000572634   -0.000989000
     10        6          -0.000992731    0.000602529    0.000396483
     11        1           0.000202892    0.001771242    0.000175447
     12        1           0.000703740    0.000332336    0.000431634
     13        1          -0.001451439    0.000903789   -0.003534253
     14        8          -0.000413075    0.001076602   -0.001144061
     15        1           0.001343425    0.000593620    0.000429947
     16        8          -0.003160184   -0.002964173   -0.007549022
     17        1           0.000122986    0.000390645    0.001132733
     18        8          -0.001692469   -0.006840928    0.003727766
     19        1           0.000331738    0.000170574   -0.000642016
     20        8          -0.002866607   -0.004231055   -0.000029811
     21        1          -0.000827434    0.001222599   -0.000744002
     22        1           0.001182598    0.002672543   -0.000750511
     23        8          -0.007481917    0.008761685   -0.000161209
     24        1           0.000169296   -0.000118407    0.001496245
 -------------------------------------------------------------------
 Cartesian Forces:  Max     0.026886610 RMS     0.005936014

 GradGradGradGradGradGradGradGradGradGradGradGradGradGradGradGradGradGrad
 Berny optimization.
 Using GEDIIS/GDIIS optimizer.
 FormGI is forming the generalized inverse of G from B-inverse, IUseBI=4.
 Internal  Forces:  Max     0.013158758 RMS     0.002478390
 Search for a local minimum.
 Step number   2 out of a maximum of  144
 All quantities printed in internal units (Hartrees-Bohrs-Radians)
 Mixed Optimization -- RFO/linear search
 Update second derivatives using D2CorX and points    1    2
 DE= -1.48D-02 DEPred=-1.43D-02 R= 1.03D+00
 TightC=F SS=  1.41D+00  RLast= 4.07D-01 DXNew= 5.0454D-01 1.2209D+00
 Trust test= 1.03D+00 RLast= 4.07D-01 DXMaxT set to 5.05D-01
 ITU=  1  0
 Use linear search instead of GDIIS.
     Eigenvalues ---    0.00360   0.00383   0.00522   0.01110   0.01158
     Eigenvalues ---    0.01248   0.01283   0.01363   0.01408   0.03035
     Eigenvalues ---    0.03291   0.04185   0.04591   0.04639   0.04797
     Eigenvalues ---    0.04851   0.05413   0.05675   0.05849   0.06353
     Eigenvalues ---    0.06672   0.06867   0.07203   0.07232   0.07676
     Eigenvalues ---    0.09135   0.11061   0.11604   0.13052   0.14004
     Eigenvalues ---    0.15054   0.15910   0.16000   0.16000   0.16000
     Eigenvalues ---    0.16175   0.16694   0.18011   0.19041   0.19284
     Eigenvalues ---    0.21102   0.22787   0.23650   0.27213   0.28407
     Eigenvalues ---    0.28578   0.29573   0.33234   0.33968   0.33990
     Eigenvalues ---    0.34023   0.34078   0.34166   0.34177   0.34197
     Eigenvalues ---    0.34939   0.39072   0.39789   0.40379   0.41250
     Eigenvalues ---    0.42351   0.51011   0.51513   0.51719   0.52202
     Eigenvalues ---    0.52847
 RFO step:  Lambda=-5.24184450D-03 EMin= 3.59548544D-03
 Quartic linear search produced a step of  0.24094.
 Iteration  1 RMS(Cart)=  0.05280311 RMS(Int)=  0.00149363
 Iteration  2 RMS(Cart)=  0.00234939 RMS(Int)=  0.00045363
 Iteration  3 RMS(Cart)=  0.00000322 RMS(Int)=  0.00045363
 Iteration  4 RMS(Cart)=  0.00000000 RMS(Int)=  0.00045363
 Variable       Old X    -DE/DX   Delta X   Delta X   Delta X     New X
                                 (Linear)    (Quad)   (Total)
    R1        2.72406  -0.00788  -0.01410  -0.02417  -0.03765   2.68642
    R2        2.79052  -0.01316  -0.02751  -0.05824  -0.08563   2.70490
    R3        2.88316   0.00240  -0.00367   0.00663   0.00238   2.88554
    R4        2.89804  -0.00083  -0.00028  -0.00985  -0.01066   2.88738
    R5        2.07977   0.00102   0.00151   0.00347   0.00498   2.08475
    R6        2.69076   0.00047  -0.00460   0.00193  -0.00267   2.68808
    R7        2.89314   0.00186  -0.00279   0.01487   0.01200   2.90514
    R8        2.84911   0.00722   0.02242   0.02801   0.05091   2.90002
    R9        2.07202   0.00154   0.00034   0.00545   0.00579   2.07780
   R10        2.71366  -0.00667  -0.00364  -0.02042  -0.02406   2.68959
   R11        2.07424  -0.00018   0.00009  -0.00066  -0.00056   2.07367
   R12        2.71659  -0.00738  -0.00128  -0.02261  -0.02389   2.69270
   R13        2.07919   0.00061   0.00173   0.00196   0.00368   2.08287
   R14        2.68470  -0.01108  -0.00464  -0.03255  -0.03719   2.64751
   R15        2.07235   0.00096  -0.00017   0.00343   0.00326   2.07562
   R16        2.89747  -0.00300   0.00116  -0.01253  -0.01137   2.88610
   R17        2.07064  -0.00042   0.00015  -0.00152  -0.00137   2.06927
   R18        2.07338  -0.00014   0.00071  -0.00057   0.00014   2.07352
   R19        2.71263  -0.00006   0.00480  -0.00070   0.00410   2.71673
   R20        1.83183  -0.00022  -0.00309  -0.00022  -0.00331   1.82852
   R21        1.84007  -0.00035  -0.00261  -0.00058  -0.00320   1.83687
   R22        1.83782  -0.00026  -0.00271  -0.00035  -0.00306   1.83476
   R23        1.84509   0.00022  -0.00267   0.00079  -0.00188   1.84321
   R24        1.83464  -0.00041  -0.00079  -0.00088  -0.00167   1.83297
    A1        1.98512   0.00636   0.02063   0.03612   0.05706   2.04219
    A2        1.94573  -0.00195   0.00666  -0.01031  -0.00383   1.94190
    A3        1.89456   0.00054  -0.00352  -0.00537  -0.00928   1.88528
    A4        1.84402   0.00312  -0.01184   0.04327   0.03187   1.87589
    A5        1.91609   0.00014  -0.00442  -0.00730  -0.01202   1.90406
    A6        1.94672  -0.00116  -0.00231  -0.00936  -0.01144   1.93528
    A7        1.91491  -0.00057   0.01542  -0.00949   0.00581   1.92072
    A8        1.93845  -0.00141   0.00858   0.00159   0.00994   1.94839
    A9        1.91322   0.00024  -0.00894  -0.00949  -0.01874   1.89449
   A10        1.86850   0.00132  -0.00662   0.01467   0.00844   1.87694
   A11        1.90706  -0.00000  -0.01015  -0.01269  -0.02228   1.88479
   A12        1.92493  -0.00140   0.00208  -0.01796  -0.01629   1.90864
   A13        1.91130   0.00132   0.01526   0.02484   0.04009   1.95139
   A14        1.95649  -0.00015  -0.00763  -0.00045  -0.00969   1.94680
   A15        1.89101  -0.00063  -0.00574  -0.01030  -0.01648   1.87453
   A16        1.91181   0.00036   0.00890   0.00363   0.01236   1.92418
   A17        1.88737  -0.00170  -0.00935  -0.01532  -0.02529   1.86208
   A18        1.90521   0.00089  -0.00162   0.00445   0.00381   1.90902
   A19        1.91143   0.00124   0.01687   0.01829   0.03513   1.94656
   A20        1.97679  -0.00336  -0.01964  -0.01352  -0.03419   1.94261
   A21        1.89274   0.00125   0.00460   0.02199   0.02580   1.91854
   A22        1.85220   0.00344   0.00681   0.01003   0.01591   1.86812
   A23        1.94643  -0.00052  -0.00261  -0.01439  -0.01662   1.92981
   A24        1.88120  -0.00199   0.00082  -0.01892  -0.01799   1.86321
   A25        1.91149   0.00148   0.01267   0.01671   0.02872   1.94021
   A26        1.96474   0.00059  -0.00562   0.00471  -0.00111   1.96364
   A27        1.84891   0.00090   0.00293   0.02624   0.02894   1.87785
   A28        1.83906   0.00214  -0.00756   0.03095   0.02405   1.86311
   A29        1.89372   0.00032  -0.00372  -0.00999  -0.01371   1.88002
   A30        1.98934  -0.00411   0.00679  -0.03677  -0.03072   1.95861
   A31        1.92284   0.00054   0.00743  -0.01017  -0.00368   1.91917
   A32        1.91697   0.00009  -0.00153  -0.00348  -0.00514   1.91183
   A33        1.91617  -0.00019  -0.00566  -0.00117  -0.00685   1.90931
   A34        1.95949  -0.00282   0.00523  -0.01934  -0.01420   1.94530
   A35        1.86901   0.00070   0.00183   0.01526   0.01709   1.88610
   A36        1.85958   0.00055  -0.00715  -0.00182  -0.00911   1.85047
   A37        1.93962   0.00184   0.00708   0.01207   0.01916   1.95878
   A38        1.89647  -0.00143   0.00732  -0.01217  -0.00485   1.89162
   A39        1.83433   0.00212   0.00212   0.01543   0.01755   1.85188
   A40        1.83234   0.00116   0.00039   0.00859   0.00898   1.84131
   A41        1.84734   0.00206  -0.00244   0.01588   0.01345   1.86078
   A42        1.86382   0.00071   0.01038   0.00322   0.01360   1.87741
    D1        0.93993  -0.00021  -0.00571  -0.05881  -0.06408   0.87585
    D2       -1.23051   0.00187   0.00869  -0.04724  -0.03783  -1.26833
    D3        3.00042  -0.00230  -0.01123  -0.08303  -0.09474   2.90568
    D4        0.00157   0.00017  -0.00593   0.06883   0.06408   0.06565
    D5       -2.06542  -0.00110  -0.00012   0.06191   0.06308  -2.00234
    D6        2.17977  -0.00311  -0.00648   0.04739   0.04166   2.22143
    D7        0.84727  -0.00216  -0.00947  -0.03279  -0.04262   0.80465
    D8       -1.23406   0.00045   0.01166  -0.00684   0.00417  -1.22989
    D9        2.96489  -0.00088  -0.01024  -0.02494  -0.03574   2.92915
   D10       -1.26539  -0.00147  -0.00590  -0.01366  -0.01940  -1.28479
   D11        2.93646   0.00115   0.01522   0.01229   0.02738   2.96385
   D12        0.85223  -0.00019  -0.00668  -0.00582  -0.01252   0.83971
   D13        2.96495  -0.00270  -0.01587  -0.02270  -0.03846   2.92649
   D14        0.88362  -0.00009   0.00525   0.00325   0.00833   0.89195
   D15       -1.20061  -0.00143  -0.01665  -0.01485  -0.03158  -1.23219
   D16       -0.89184  -0.00093  -0.00128  -0.03953  -0.04003  -0.93186
   D17        1.14867   0.00072  -0.00350  -0.01080  -0.01381   1.13486
   D18       -2.98516  -0.00117   0.00786  -0.05683  -0.04831  -3.03347
   D19        1.20821  -0.00142  -0.00424  -0.05781  -0.06183   1.14638
   D20       -3.03447   0.00023  -0.00646  -0.02908  -0.03561  -3.07008
   D21       -0.88511  -0.00166   0.00490  -0.07511  -0.07012  -0.95522
   D22       -2.94863  -0.00283   0.01072  -0.08111  -0.07010  -3.01872
   D23       -0.90812  -0.00117   0.00850  -0.05238  -0.04388  -0.95200
   D24        1.24124  -0.00307   0.01986  -0.09841  -0.07838   1.16286
   D25       -2.98211   0.00032   0.00476  -0.05629  -0.05175  -3.03386
   D26       -0.86507  -0.00073   0.00381  -0.04679  -0.04281  -0.90789
   D27        1.26196  -0.00172   0.00716  -0.06880  -0.06159   1.20037
   D28        0.03779   0.00103   0.01425   0.04401   0.05706   0.09485
   D29        2.12126  -0.00096  -0.00489   0.02103   0.01569   2.13695
   D30       -2.08362   0.00006   0.00913   0.03665   0.04522  -2.03840
   D31        2.14690   0.00027   0.00125   0.02289   0.02342   2.17033
   D32       -2.05281  -0.00171  -0.01789  -0.00009  -0.01795  -2.07076
   D33        0.02549  -0.00070  -0.00387   0.01553   0.01158   0.03707
   D34       -2.06457   0.00273   0.01074   0.05579   0.06581  -1.99876
   D35        0.01890   0.00075  -0.00841   0.03281   0.02444   0.04334
   D36        2.09720   0.00176   0.00562   0.04843   0.05397   2.15117
   D37       -0.95584   0.00169   0.00226   0.00523   0.00698  -0.94886
[...]
 .00036193,-0.00023716,-0.00004421,-0.00011087,0.00006439,0.01113438,-0
 .00549672,0.02775823,-0.00049243,0.00000029,0.00021498,0.00040037,0.00
 016268,-0.00006514,0.18860021,-0.00004438,0.00384955,0.00121792,-0.001
 21206,-0.00175562,-0.00042493,0.00944805,-0.09880706,0.05639744,0.0004
 6527,-0.00895798,0.03167251,0.00486483,0.00383748,-0.02145078,-0.00065
 941,-0.00159883,0.00148139,-0.00210351,0.00137090,0.00178677,-0.000154
 76,-0.00005073,-0.00161588,0.00007622,0.00042884,-0.00004510,0.0004521
 2,0.00053443,-0.00111567,-0.00044374,-0.00016497,-0.00012526,0.0001728
 7,0.00019237,0.00003578,0.00059001,-0.00069299,0.02185289,-0.00043545,
 0.00046161,0.00019400,0.00017582,-0.00007625,-0.00001053,-0.22217423,0
 .46820102,-0.00381622,-0.00172907,0.00434222,0.00147017,0.00048537,0.0
 0036676,0.02074410,0.01426995,-0.21297214,-0.00398997,0.00834455,-0.01
 589643,0.00233128,0.00802157,-0.05238893,0.00108387,-0.00123225,-0.002
 54655,0.00063359,-0.00053323,0.00112206,-0.00242399,-0.00058254,0.0004
 0721,0.00016642,-0.00025026,0.00024641,0.00036052,0.00022851,0.0002758
 6,0.00018495,0.00006124,0.00008720,-0.00005560,-0.00010052,-0.00004230
 ,0.00481604,0.01128532,-0.02837761,-0.00074308,-0.00016356,0.00032079,
 -0.00000488,0.00005108,-0.00019513,-0.00754451,-0.05666302,0.34911647,
 -0.00036523,-0.00043767,0.00060953,0.00031462,0.00043895,0.00052760,-0
 .00171120,0.00160705,-0.00060268,0.00089065,0.00133575,-0.00159297,0.0
 0207753,0.00115473,-0.00112099,-0.00082698,0.00022563,-0.00114446,0.00
 015462,-0.00020863,-0.00020073,-0.00080472,0.00032757,0.00034554,0.000
 01359,-0.00015814,0.00005184,-0.00030060,-0.00014790,0.00027946,0.0001
 2836,0.00003104,0.00005528,-0.00003802,-0.00004365,-0.00002876,0.00008
 300,-0.00096621,0.00148565,0.00029786,-0.00008469,-0.00007352,-0.00014
 544,-0.00000024,0.00003129,-0.12520106,0.20317982,-0.00748859,0.129354
 14,0.00169046,-0.00124205,-0.00006255,0.00049689,0.00025057,0.00036579
 ,0.00864880,-0.01236721,0.00519839,-0.00115253,-0.00066948,0.00080023,
 -0.00292281,0.00520186,-0.00393180,-0.00076610,0.00044807,0.00076200,-
 0.00011900,0.00014875,0.00017251,0.00026160,0.00049178,-0.00008416,-0.
 00002399,-0.00003203,-0.00003579,-0.00002352,0.00006976,-0.00016152,-0
 .00004885,-0.00003532,-0.00001474,-0.00007215,-0.00010396,-0.00000583,
 0.00059791,-0.00000436,-0.00118989,0.00012055,-0.00017951,-0.00006817,
 0.00001339,0.00007403,0.00001170,0.19875683,-0.35494300,0.02290766,-0.
 20666179,0.36797200,0.00313831,-0.00085688,-0.00059770,0.00008950,0.00
 056376,0.00003247,-0.02447419,0.04185263,-0.00840598,0.00188347,0.0002
 3479,-0.00703308,-0.00738473,0.00430451,-0.00490345,-0.00118944,0.0008
 9257,0.00139730,0.00036589,0.00007417,0.00000741,-0.00000313,-0.000211
 73,-0.00016667,0.00003686,0.00002207,-0.00003856,-0.00025489,-0.000207
 05,-0.00003344,-0.00003087,0.00001163,-0.00002161,-0.00003542,-0.00001
 102,0.00002698,0.00053351,0.00035291,-0.00048287,0.00046930,-0.0000376
 5,-0.00019364,-0.00004304,-0.00003371,0.00008695,0.01922778,-0.0229072
 7,-0.04476852,0.00706267,-0.02563657,0.06244196,0.00368093,0.00019181,
 -0.00090033,-0.00734283,-0.02811317,0.02747143,0.00893674,0.01386302,-
 0.01989942,-0.09660842,0.00731621,0.02252751,-0.00292128,-0.00093848,-
 0.00041064,-0.00834998,0.00151778,0.00139959,0.00226406,-0.00457222,0.
 00622854,-0.00014235,-0.00079576,0.00021104,0.00344185,0.00106668,0.00
 320639,0.00143682,-0.00162093,0.00048969,0.00000117,0.00014820,-0.0000
 7038,-0.00072927,-0.00058326,-0.00021464,0.00262487,-0.00036338,-0.001
 48161,-0.00032135,-0.00021617,0.00019564,0.00022393,0.00014848,-0.0001
 5604,-0.00334475,0.00680608,-0.00262925,-0.00071656,0.00005974,-0.0018
 1818,0.36763716,0.00072145,-0.00020896,-0.00000736,-0.01048900,-0.0190
 8319,0.01944018,-0.00622019,-0.02124644,0.02927249,-0.02142448,-0.1219
 3992,0.08011782,-0.00111286,0.00096911,-0.00057240,-0.00546750,0.00074
 348,-0.00043710,0.00123234,0.01155152,0.00111286,0.00011007,-0.0000742
 5,0.00008220,0.00207872,0.00134375,0.00107123,0.00166589,-0.00134976,0
 .00021326,-0.00005463,0.00004253,-0.00008171,-0.00066258,-0.00047881,-
 0.00013848,-0.00127627,0.00122630,0.00008958,-0.00068431,0.00008009,0.
 00029929,0.00027924,0.00011186,-0.00015931,0.00478550,-0.00596446,0.00
 124191,0.00008184,0.00011742,0.00165154,-0.21445287,0.39940907,-0.0005
 4254,0.00046883,0.00103791,0.00349637,0.01037354,-0.00718975,0.0003402
 7,0.01107919,-0.00990354,0.05123514,0.05207000,-0.16688589,-0.00025927
 ,0.00003773,-0.00269058,0.00306132,-0.00170854,0.00119768,0.01166508,0
 .03009955,-0.03252054,-0.00026282,-0.00056606,0.00016678,0.00070324,-0
 .00054018,0.00345899,-0.00079661,0.00091541,-0.00038255,0.00008338,0.0
 0006252,0.00007251,0.00040406,0.00032173,0.00004473,0.00034246,-0.0007
 8704,0.00028004,0.00030002,0.00018181,0.00002125,-0.00018919,-0.000144
 30,0.00006224,-0.00164487,0.00323756,0.00114969,-0.00007381,-0.0003045
 1,-0.00043230,-0.04621044,-0.15170305,0.23758598,-0.00038903,0.0001995
 0,0.00009409,0.00135986,-0.00217291,0.00165136,-0.00105633,-0.00088524
 ,0.00040516,0.00576922,-0.01278193,0.00688008,0.00057451,0.00014891,0.
 00011759,-0.00009654,-0.00022283,-0.00043999,-0.00008551,-0.00027007,0
 .00072504,0.00000950,0.00024621,-0.00005588,-0.00025982,-0.00040670,-0
 .00059542,0.00005337,-0.00017474,-0.00007110,-0.00001681,-0.00004516,-
 0.00001067,-0.00001615,0.00004455,-0.00000503,0.00078673,0.00002885,-0
 .00005834,0.00009025,0.00030720,0.00002163,-0.00004909,-0.00004515,0.0
 0003662,0.00048690,-0.00010654,0.00010056,0.00020816,0.00007217,0.0000
 7636,-0.26740026,0.25314869,-0.02211063,0.26004546,-0.00086548,0.00018
 160,0.00020766,0.00000723,0.00096391,0.00051110,-0.00278785,-0.0004411
 6,0.00428394,0.02080930,-0.02060759,0.00185740,0.00095589,0.00022661,0
 .00000019,0.00102105,-0.00064216,-0.00075711,-0.00016294,0.00219073,-0
 .00067579,0.00006312,0.00043498,-0.00014804,-0.00108505,-0.00084115,-0
 .00089756,-0.00033492,0.00015369,-0.00004177,-0.00003117,-0.00007519,-
 0.00000775,0.00014105,0.00015051,0.00000461,-0.00021945,0.00025148,0.0
 0002121,0.00023734,0.00020100,-0.00008012,-0.00011732,-0.00006310,0.00
 006548,0.00070863,-0.00126882,-0.00030044,0.00009797,0.00010851,0.0004
 6391,0.21935982,-0.24514947,0.04608826,-0.23781271,0.26438932,0.000104
 07,-0.00019345,-0.00014917,-0.00001865,0.00102701,0.00230882,0.0030157
 8,0.00264146,-0.00447899,-0.02557106,0.03030713,-0.00702733,-0.0000967
 4,0.00019632,-0.00030753,-0.00038394,0.00008580,-0.00031547,-0.0010097
 1,-0.00046613,0.00055456,-0.00001082,0.00010319,-0.00002363,-0.0002313
 5,-0.00056567,-0.00036813,0.00000729,-0.00000754,0.00023053,-0.0000067
 9,-0.00000753,-0.00003228,-0.00002100,-0.00004241,-0.00002801,0.000095
 43,-0.00025766,-0.00019367,-0.00008392,-0.00028787,-0.00009102,0.00004
 033,0.00007175,-0.00001704,-0.00110139,0.00148326,-0.00037307,-0.00014
 225,0.00015714,-0.00050971,0.01132315,0.01660463,-0.02931110,0.0141242
 9,-0.04981240,0.04022313,0.00065307,0.00433883,0.00061845,-0.14554029,
 0.06000737,0.06413965,-0.00349826,-0.00493724,0.00238676,-0.03703626,0
 .02250504,0.02215297,0.00191261,-0.00191903,-0.00062735,-0.00807017,0.
 00971026,0.00728505,0.00295208,0.00178589,0.00191811,0.00025619,-0.001
 22495,-0.00106828,0.00067530,0.00334753,0.01186667,-0.00748196,0.00282
 045,0.00382997,0.00041265,-0.00018562,-0.00001781,0.00150457,0.0001649
 0,-0.00008440,-0.00180044,0.00137390,-0.00021680,0.00109048,-0.0131602
 4,-0.00210988,-0.00008770,0.00036572,-0.00067018,-0.00014031,0.0009517
 6,-0.00144024,0.00003521,-0.00027202,0.00006745,-0.00325008,-0.0029698
 1,0.00102990,0.00042128,0.00062117,-0.00031191,0.53764893,0.00813340,-
 0.01278536,-0.00228869,0.02152248,-0.12546550,-0.04649819,-0.00192252,
 -0.00202455,0.00045857,-0.00747088,0.00993062,0.00750906,-0.00705234,-
 0.00217777,-0.00002775,0.02892704,-0.01342293,-0.02621232,0.00066168,0
 .00147294,0.00118041,-0.00082494,0.00293869,0.00004612,0.00529859,0.00
 021703,-0.00943640,-0.00151275,0.00466986,0.00192085,-0.00025628,-0.00
 022833,-0.00040277,0.00072024,-0.00019918,-0.00011634,-0.00038986,0.00
 066858,-0.00002464,-0.00793141,-0.01113375,-0.00036907,0.00075149,0.00
 001647,-0.00097389,0.00071307,0.00114828,0.00015036,-0.00037744,-0.000
 25985,-0.00047031,-0.00000040,0.00047199,-0.00009222,0.00088315,0.0000
 1530,-0.00106597,0.12957423,0.30230994,-0.00027356,0.00004482,0.003586
 23,0.04445735,-0.06054951,-0.12076629,-0.00086991,0.00092109,-0.001230
 05,0.00412811,-0.00085108,0.00040613,-0.00109725,0.00084093,-0.0007196
 1,0.00218881,-0.00341119,0.00083618,-0.00025320,0.00108145,0.00109251,
 -0.00031699,-0.00265241,0.00251055,0.03231418,-0.02567795,-0.02038102,
 0.00268408,-0.00036248,-0.00255652,0.00014862,0.00056202,0.00036983,-0
 .00056496,-0.00006389,0.00005281,0.00013031,-0.00016665,0.00010281,-0.
 00012237,0.00388977,0.00554712,-0.00072484,-0.00270496,0.00017738,-0.0
 0019176,-0.00023007,0.00100765,-0.00003454,-0.00007017,-0.00009927,0.0
 0084244,0.00132598,0.00196300,-0.00072082,-0.00076082,-0.00054700,-0.0
 8680608,0.10953569,0.15127784,0.00122071,-0.00272145,-0.00070716,-0.03
 072854,-0.01323632,0.00084447,-0.00072363,-0.00079464,0.00028427,-0.00
 307193,0.00307109,0.00260082,-0.00134755,-0.00014982,0.00003254,0.0009
 3620,0.00237999,-0.00058750,0.00007271,0.00029931,0.00041028,-0.000229
 90,0.00018255,-0.00009006,0.00159387,-0.00117231,-0.00111456,0.0039865
 9,0.00229538,-0.00235384,-0.00026242,-0.00004243,0.00010606,-0.0011728
 8,0.00022911,0.00045463,-0.00009905,0.00019424,-0.00002402,-0.00682643
 ,-0.00130529,0.00139286,0.00053766,0.00092019,0.00024188,0.00034086,0.
 00007418,0.00003120,-0.00008430,0.00000310,-0.00009316,0.00004360,0.00
 011354,-0.00012524,-0.00025744,-0.00030077,0.00028687,-0.34018953,-0.1
 7157020,0.00475661,0.37580120,-0.00270934,-0.00143624,0.00080746,0.022
 92765,0.01222866,0.00037753,0.00072678,0.00116162,-0.00024918,0.003002
 97,-0.00277946,-0.00299965,0.00109403,0.00111042,0.00023841,0.00384323
 ,0.00120101,-0.00055065,-0.00024542,-0.00001496,0.00012406,0.00000604,
 -0.00006017,0.00041362,0.00028418,-0.00069239,-0.00143264,0.00693699,-
 0.00633793,-0.00671777,-0.00035677,0.00014873,0.00044994,-0.00141266,0
 .00081618,0.00047259,0.00032250,-0.00032632,-0.00001005,-0.00093092,0.
 00392079,0.00264787,-0.00113344,-0.00067502,0.00177612,-0.00025045,-0.
 00063397,0.00022176,0.00015421,0.00013978,0.00010124,0.00080778,0.0005
 0414,-0.00021718,-0.00008569,-0.00019768,-0.00014849,-0.21401267,-0.15
 687656,-0.02026235,0.18162946,0.14920015,0.00004761,0.00041032,-0.0007
 1546,0.02632598,0.00983089,-0.00284891,0.00044610,0.00043634,0.0004175
 3,0.00050568,-0.00323347,-0.00161258,-0.00017064,-0.00000036,0.0000382
 0,-0.00013487,-0.00118962,0.00206226,0.00016037,0.00018243,0.00042685,
 -0.00029553,0.00027100,-0.00035320,0.00054994,0.00023672,-0.00006464,-
 0.00073223,-0.00186818,0.00190122,0.00004674,-0.00044235,-0.00070434,0
 .00032921,-0.00007757,-0.00040413,0.00013936,-0.00008792,0.00003671,0.
 00044248,-0.00168152,-0.00658340,0.00067080,0.00470890,-0.00023664,0.0
 0009450,0.00007881,-0.00013264,-0.00003339,0.00000765,0.00005590,-0.00
 017076,0.00051532,0.00017228,-0.00001257,0.00006207,0.00009356,-0.0218
 1100,-0.03324355,-0.02323629,-0.00643289,0.02498581,0.03175601,-0.0310
 5113,-0.01051680,0.03030659,0.00005558,-0.00066558,0.00032807,0.003244
 81,-0.00030358,-0.00402440,-0.00041864,-0.00060430,0.00008053,-0.05008
 252,-0.00918060,0.04793787,0.00074200,-0.00655988,0.00068691,0.0001212
 5,-0.00005646,-0.00005969,-0.00107467,0.00051314,0.00084011,-0.0002452
 6,0.00024584,-0.00017186,0.00034660,0.00083928,0.00098034,-0.00004725,
 0.00000027,-0.00008463,0.00010448,0.00004151,0.00001218,0.00031654,0.0
 0065226,-0.00031779,-0.00112970,0.00007023,0.00003065,0.00017723,0.000
 04590,-0.00015485,0.00138023,-0.00101576,-0.00051770,-0.00029769,0.000
 88325,0.00074203,0.00030148,-0.00002495,-0.00028193,-0.00005562,-0.000
 08317,-0.00002931,0.00000620,0.00051511,-0.00014537,0.00008502,-0.0002
 6294,0.00006278,0.07927967,-0.01420085,0.00361676,0.01204422,0.0000437
 5,-0.00024970,0.00015664,0.00454524,0.01049977,-0.02259624,-0.00018719
 ,0.00118870,0.00026056,-0.00889337,-0.06666551,0.03343460,-0.00008317,
 -0.00266786,0.00004744,-0.00005064,0.00006214,0.00002448,-0.00056066,0
 .00004800,0.00025107,0.00028339,-0.00005844,-0.00001019,0.00005120,0.0
 0038621,0.00053647,-0.00000232,0.00002537,-0.00004440,0.00003818,0.000
 00962,0.00000564,-0.00044670,0.00078290,0.00073125,-0.00044866,0.00001
 324,0.00000276,0.00004974,0.00000053,-0.00005791,-0.00108362,-0.004006
 00,-0.00696864,0.00075975,-0.00144647,0.00004546,0.00013835,-0.0005305
 0,0.00028974,-0.00002947,-0.00007209,0.00023328,0.00009267,0.00016173,
 0.00000419,0.00003063,-0.00009339,0.00000005,0.01037407,0.07035904,0.0
 0604461,-0.00010375,0.00470976,0.00015773,0.00017884,-0.00062084,0.004
 53018,0.00519945,-0.01563567,-0.00011560,0.00046074,-0.00121798,0.0491
 3906,0.03847387,-0.28867641,-0.00096739,0.00122523,0.00094788,0.000061
 80,-0.00007822,0.00007629,-0.00015533,-0.00008445,0.00009831,0.0001522
 4,0.00007690,0.00028762,-0.00013036,-0.00019187,-0.00008280,0.00003129
 ,0.00002296,0.00002563,-0.00003223,-0.00001480,-0.00000151,-0.00068964
 ,-0.00033600,0.00050139,0.00022848,-0.00002130,-0.00005076,-0.00004463
 ,-0.00000819,0.00002049,-0.00099967,-0.00352741,-0.00214750,0.00040509
 ,0.00064378,0.00102518,-0.00023345,0.00005944,0.00086182,-0.00002663,0
 .00003028,0.00023680,0.00003952,-0.00026048,0.00021722,-0.00002199,0.0
 0009415,-0.00003705,-0.04970331,-0.05235587,0.30795286,-0.06677501,0.0
 2442806,-0.00804109,-0.00147926,-0.00165958,0.00088235,0.00276724,0.00
 601246,0.00306143,-0.00074265,-0.00137515,-0.00079612,-0.10293719,0.02
 702633,-0.04438415,0.00245575,-0.00318966,-0.01352487,0.00022349,-0.00
 002266,-0.00000864,-0.00017750,-0.00016727,0.00119692,0.00003865,-0.00
 001964,0.00013083,0.00085165,0.00222417,0.00113404,0.00023504,0.000122
 23,0.00003045,0.00009654,-0.00010323,0.00001498,0.00083234,0.00118608,
 0.00060705,-0.00262259,-0.00023723,0.00088417,0.00030762,0.00016412,-0
 .00028954,0.00345196,0.00099575,-0.00105878,-0.00271834,0.00076073,0.0
 0152701,0.00085301,0.00083970,-0.00022635,-0.00018337,-0.00032346,0.00
 005136,-0.00064721,0.00245506,0.00053550,0.00051528,-0.00053357,-0.000
 01323,-0.00152156,0.00998514,-0.00731602,0.23804945,0.00850197,0.01586
 934,-0.00560705,-0.00167557,0.00011143,0.00054461,0.02879457,-0.040704
 99,0.00766254,-0.00380623,-0.00241905,-0.00682847,0.05902445,-0.161989
 61,0.04541671,0.00039599,0.00093066,0.00198378,0.00190704,-0.00191861,
 0.00065817,0.00032380,-0.00026068,-0.00035658,0.00017946,0.00008578,-0
 .00005868,-0.00027154,-0.00083682,-0.00045216,-0.00007792,-0.00003186,
 0.00000312,0.00013365,0.00031326,-0.00001858,0.00021340,0.00089714,0.0
 0032127,0.00084848,0.00055732,-0.00012592,-0.00018920,-0.00023530,0.00
 012478,0.00261673,-0.00266210,-0.00026415,-0.00035443,-0.00291994,0.00
 105107,0.00018395,-0.00071763,0.00069682,0.00000357,0.00013680,-0.0000
 8109,0.00123364,0.00009316,-0.00055573,-0.00025218,-0.00024805,0.00009
 624,0.01562172,-0.01249954,0.01060041,0.02941515,0.58855107,-0.0132069
 6,-0.00348963,0.01513265,-0.00077408,-0.00030400,-0.00015861,0.0091543
 5,-0.01318357,0.00123498,-0.00068865,-0.00193268,-0.00327064,-0.033025
 28,0.02284098,-0.10677677,0.00076887,-0.00076574,-0.00411432,0.0004541
 9,-0.00038556,0.00038880,-0.00058738,0.00020642,0.00070374,0.00022851,
 -0.00004158,0.00027626,0.00000498,0.00063167,0.00041040,0.00017451,0.0
 0001683,0.00007674,0.00000240,-0.00006392,-0.00002648,-0.00012112,-0.0
 0005506,0.00050320,-0.00053007,-0.00006850,0.00019628,-0.00001849,0.00
 005603,-0.00007455,0.00265571,-0.00914775,0.00157416,0.00275246,0.0000
 4844,-0.00028385,0.00018819,-0.00001124,0.00126793,-0.00011068,-0.0000
 6965,0.00011511,-0.00013999,0.00054061,0.00038641,0.00008462,-0.000041
 41,-0.00005314,-0.02588565,0.03284602,-0.00821679,0.13602823,0.1119129
 3,0.18826755,0.00332058,-0.00258446,0.00038759,0.00060651,0.00051306,-
 0.00050032,-0.00368631,0.00383400,-0.00189330,0.00090088,0.00121040,0.
 00099825,0.00550435,0.03426585,0.00883496,-0.00196520,0.00033766,0.001
 80051,-0.00037017,0.00028665,-0.00010155,0.00026864,-0.00002504,-0.000
 25005,-0.00003134,-0.00001676,0.00000944,-0.00051873,0.00000037,-0.000
 03866,-0.00001702,-0.00001419,0.00000786,-0.00009623,-0.00011661,0.000
 03917,0.00006798,0.00008912,-0.00005425,0.00064403,-0.00017623,-0.0002
 3943,-0.00011313,-0.00000965,0.00008993,-0.00024279,0.00009704,-0.0002
 0989,-0.00034759,-0.00030267,0.00010691,-0.00031851,-0.00021757,0.0000
 6245,0.00006074,0.00010174,-0.00002972,0.00017368,-0.00084653,-0.00006
 438,-0.00014007,0.00019803,-0.00001445,-0.00023705,-0.00040545,-0.0003
 5374,-0.07087333,-0.14277050,-0.07740866,0.06741010,-0.00504804,0.0036
 6543,0.00109792,-0.00030228,-0.00004756,0.00013135,0.00453702,-0.00301
 846,0.00352240,-0.00092226,-0.00072575,-0.00147012,-0.00682728,-0.0333
 4091,-0.01377091,0.00097104,-0.00069687,-0.00183196,0.00038025,-0.0003
 0332,0.00019307,-0.00006593,0.00003655,0.00021240,0.00002670,0.0000026
 1,0.00003199,0.00017250,0.00049566,0.00012084,0.00001527,0.00000136,-0
 .00000078,0.00000458,-0.00005676,0.00001774,-0.00020962,0.00027200,0.0
 0007925,-0.00045012,-0.00012192,0.00011334,0.00008084,0.00006891,-0.00
 004800,-0.00036475,0.00155829,0.00151838,0.00004651,-0.00081934,-0.001
 25005,0.00004871,0.00017213,0.00014038,-0.00004364,-0.00004604,0.00002
 522,-0.00021176,0.00045917,0.00011333,0.00012264,-0.00005936,0.0000019
 7,-0.00052854,0.00113545,-0.00008373,-0.09798353,-0.38010178,-0.139539
 66,0.10655172,0.41147049,-0.00133837,0.00098888,-0.00114720,0.00004598
 ,-0.00008420,-0.00002083,-0.00168684,0.00065042,-0.00253018,-0.0000084
 4,0.00006053,0.00045168,0.00448338,0.01564605,0.00603894,0.00018710,-0
 .00076653,-0.00038878,-0.00002059,0.00013185,0.00009617,0.00001196,-0.
 00018022,-0.00005836,0.00000633,0.00004565,-0.00001504,0.00008371,-0.0
 0001413,0.00017480,-0.00003299,0.00005732,-0.00003559,0.00006503,0.000
 07397,0.00003454,-0.00009458,-0.00006936,0.00000317,-0.00021292,0.0000
 8406,0.00001714,0.00004953,-0.00003891,-0.00002243,0.00167796,-0.00217
 467,-0.00017566,-0.00106971,0.00049039,0.00289649,0.00011154,0.0000129
 1,-0.00002660,-0.00001502,-0.00004468,0.00001064,-0.00003058,0.0001409
 2,0.00000238,0.00002332,-0.00008119,0.00002189,-0.00063158,0.00111936,
 -0.00027394,-0.07042553,-0.16672405,-0.08755905,0.06882134,0.15067563,
 0.08250582\\-0.00000398,-0.00000550,-0.00000986,0.00000352,0.00000425,
 0.00000355,0.00000023,-0.00000857,0.00002571,0.00000315,-0.00000596,0.
 00000850,0.00000168,0.00000326,-0.00000563,-0.00000374,0.00000622,-0.0
 0000288,0.00000537,-0.00000719,0.00001275,-0.00000663,-0.00000552,-0.0
 0000585,0.00000734,0.00000966,0.00000180,-0.00001374,0.00001116,-0.000
 00899,-0.00000014,0.00001326,-0.00001376,-0.00000790,0.00000704,-0.000
 01771,0.00000443,-0.00000720,0.00001108,0.00000226,0.00001031,-0.00001
 409,-0.00001116,0.00000188,-0.00001628,-0.00000214,-0.00001430,-0.0000
 0226,-0.00000800,-0.00001869,0.00000494,0.00001240,0.00000291,0.000014
 02,0.00001555,0.00000513,0.00001612,0.00000486,0.00000450,0.00000044,0
 .00000484,0.00000668,-0.00000185,0.00000604,0.00000240,0.00000418,-0.0
 0000152,-0.00000990,-0.00000148,-0.00001270,-0.00000581,-0.00000244\\\
 @


 THERE IS AN OLD, OLD RECIPE IN MAINE FOR STEWING COOT. PLACE THE
 BIRD IN A KETTLE OF WATER WITH A RED BUILDING BRICK FREE OF MORTAR AND
 BLEMISHES. PARBOIL THE COOT AND BRICK TOGETHER FOR THREE HOURS.
 POUR OFF THE WATER, REFILL THE KETTLE, AND AGAIN PARBOIL FOR THREE HOURS.
 ONCE AGAIN POUR OFF THE WATER, FOR THE LAST TIME ADD FRESH WATER,
 AND LET THE COOT AND BRICK SIMMER TOGETHER OVERNIGHT. IN THE MORNING,
 THROW AWAY THE COOT AND EAT THE BRICK.
 Job cpu time:       0 days  0 hours 21 minutes 22.5 seconds.
 File lengths (MBytes):  RWF=    129 Int=      0 D2E=      0 Chk=      5 Scr=      1
 Normal termination of Gaussian 09 at Thu Jan 12 12:20:42 2017.
