 Entering Gaussian System, Link 0=g09
 Initial command:
 /global/software/gaussian/g09.e01/l1.exe "/scratch/10454742.yak.local/Gau-7771.inp" -scrdir="/scratch/10454742.yak.local/"
 Entering Link 1 = /global/software/gaussian/g09.e01/l1.exe PID=      7772.
  
 Copyright (c) 1988,1990,1992,1993,1995,1998,2003,2009,2015,
            Gaussian, Inc.  All Rights Reserved.
  
 This is part of the Gaussian(R) 09 program.  It is based on
 the Gaussian(R) 03 system (copyright 2003, Gaussian, Inc.),
 the Gaussian(R) 98 system (copyright 1998, Gaussian, Inc.),
 the Gaussian(R) 94 system (copyright 1995, Gaussian, Inc.),
 the Gaussian 92(TM) system (copyright 1992, Gaussian, Inc.),
 the Gaussian 90(TM) system (copyright 1990, Gaussian, Inc.),
 the Gaussian 88(TM) system (copyright 1988, Gaussian, Inc.),
 the Gaussian 86(TM) system (copyright 1986, Carnegie Mellon
 University), and the Gaussian 82(TM) system (copyright 1983,
 Carnegie Mellon University). Gaussian is a federally registered
 trademark of Gaussian, Inc.
  
 This software contains proprietary and confidential information,
 including trade secrets, belonging to Gaussian, Inc.
  
 This software is provided under written license and may be
 used, copied, transmitted, or stored only in accord with that
 written license.
  
 The following legend is applicable only to US Government
 contracts under FAR:
  
                    RESTRICTED RIGHTS LEGEND
  
 Use, reproduction and disclosure by the US Government is
 subject to restrictions as set forth in subparagraphs (a)
 and (c) of the Commercial Computer Software - Restricted
 Rights clause in FAR 52.227-19.
  
 Gaussian, Inc.
 340 Quinnipiac St., Bldg. 40, Wallingford CT 06492
  
  
 ---------------------------------------------------------------
 Warning -- This program may not be used in any manner that
 competes with the business of Gaussian, Inc. or will provide
 assistance to any competitor of Gaussian, Inc.  The licensee
 of this program is prohibited from giving any competitor of
 Gaussian, Inc. access to this program.  By using this program,
 the user acknowledges that Gaussian, Inc. is engaged in the
 business of creating and licensing software in the field of
 computational chemistry and represents and warrants to the
 licensee that it is not a competitor of Gaussian, Inc. and that
 it will not use this program in any manner prohibited above.
 ---------------------------------------------------------------
  

 Cite this work as:
 Gaussian 09, Revision E.01,
 M. J. Frisch, G. W. Trucks, H. B. Schlegel, G. E. Scuseria, 
 M. A. Robb, J. R. Cheeseman, G. Scalmani, V. Barone, B. Mennucci, 
 G. A. Petersson, H. Nakatsuji, M. Caricato, X. Li, H. P. Hratchian, 
 A. F. Izmaylov, J. Bloino, G. Zheng, J. L. Sonnenberg, M. Hada, 
 M. Ehara, K. Toyota, R. Fukuda, J. Hasegawa, M. Ishida, T. Nakajima, 
 Y. Honda, O. Kitao, H. Nakai, T. Vreven, J. A. Montgomery, Jr., 
 J. E. Peralta, F. Ogliaro, M. Bearpark, J. J. Heyd, E. Brothers, 
 K. N. Kudin, V. N. Staroverov, T. Keith, R. Kobayashi, J. Normand, 
 K. Raghavachari, A. Rendell, J. C. Burant, S. S. Iyengar, J. Tomasi, 
 M. Cossi, N. Rega, J. M. Millam, M. Klene, J. E. Knox, J. B. Cross, 
 V. Bakken, C. Adamo, J. Jaramillo, R. Gomperts, R. E. Stratmann, 
 O. Yazyev, A. J. Austin, R. Cammi, C. Pomelli, J. W. Ochterski, 
 R. L. Martin, K. Morokuma, V. G. Zakrzewski, G. A. Voth, 
 P. Salvador, J. J. Dannenberg, S. Dapprich, A. D. Daniels, 
 O. Farkas, J. B. Foresman, J. V. Ortiz, J. Cioslowski, 
 and D. J. Fox, Gaussian, Inc., Wallingford CT, 2013.
 
 ******************************************
 Gaussian 09:  ES64L-G09RevE.01 30-Nov-2015
                12-Jan-2017 
 ******************************************
 %NPROCS=4
 Will use up to    4 processors via shared memory.
 ----------------------------------------------------------------------
 # opt=(calcfc,ts,noeigentest,maxcycle=500,cartesian) freq b3lyp/6-31g(
 d)
 ----------------------------------------------------------------------
 1/5=1,6=500,10=4,11=1,14=-1,18=10,26=3,38=1/1,3;
 2/12=2,17=6,18=5,29=2,40=1/2;
 3/5=1,6=6,7=1,11=2,16=1,25=1,30=1,71=2,74=-5,140=1/1,2,3;
 4//1;
 5/5=2,38=5/2;
 8/6=4,10=90,11=11/1;
 11/6=1,8=1,9=11,15=111,16=1/1,2,10;
 10/6=1,13=1/2;
 6/7=2,8=2,9=2,10=2,28=1/1;
 7/7=1,10=1,18=20,25=1/1,2,3,16;
 1/5=1,6=500,10=4,11=1,14=-1,18=10,26=3/3(2);
 2/29=1/2;
 99/12=1/99;
 2/29=1/2;
 3/5=1,6=6,7=1,11=2,16=1,25=1,30=1,71=1,74=-5/1,2,3;
 4/5=5,16=3,69=1/1;
 5/5=2,38=5/2;
 7/7=1/1,2,3,16;
 1/5=1,6=500,11=1,14=-1,18=10,26=3/3(-5);
 2/29=1/2;
 6/7=2,8=2,9=2,10=2,19=2,28=1/1;
 99/9=1,12=1/99;
 -------------------------
 boat3_Alpha_B3LYP_6-31G_d
 -------------------------
 Symbolic Z-matrix:
 Charge =  0 Multiplicity = 1
 6                    0    -1.03943  -0.19333   1.09359 
 6                    0    -0.47076   1.54303  -0.74151 
 8                    0     0.49721  -0.68441  -0.80354 
 6                    0     0.90382   0.88821  -0.64611 
 6                    0    -0.55771  -1.21773   0.05234 
 6                    0    -1.34138   1.20313   0.47794 
 1                    0    -1.13069   1.93898   1.26614 
 1                    0    -0.97018   1.1328   -1.63066 
 1                    0    -0.11492  -2.05426   0.60901 
 1                    0    -1.96824  -0.59864   1.51324 
 6                    0    -1.68143  -1.76297  -0.84453 
 1                    0    -1.23148  -2.26904  -1.71334 
 1                    0    -2.31241  -0.94719  -1.21139 
 8                    0    -2.54886  -2.62634  -0.1163 
 1                    0    -2.04796  -3.42513   0.11206 
 8                    0    -0.27612   2.9411   -0.88975 
 1                    0    -1.16456   3.32882  -0.9647 
 8                    0    -2.68965   1.3464    0.01005 
 1                    0    -3.28201   1.31114   0.78035 
 8                    0    -0.12701  -0.08307   2.16919 
 1                    0     0.64759   0.40032   1.79516 
 1                    0     1.46022   0.978    -1.59253 
 8                    0     1.59144   1.11348   0.44534 
 8                    0     2.5656   -1.89268  -0.44535 
 1                    0     1.54171  -1.33859  -0.6615 
 1                    0     2.92812  -2.2474   -1.27491 
 8                    0     3.79738   0.06372   0.27526 
 1                    0     2.86519   0.65111   0.37026 
 1                    0     3.25066  -1.05225  -0.07514 
 1                    0     4.17021   0.00363   1.16846 
 

 GradGradGradGradGradGradGradGradGradGradGradGradGradGradGradGradGradGrad
 Berny optimization.
 Initialization pass.
 No Z-matrix variables, so optimization will use Cartesian coordinates.
 Trust Radius=3.00D-01 FncErr=1.00D-07 GrdErr=1.00D-06
 Number of steps in this run=    180 maximum allowed number of steps=    180.
 Search for a saddle point of order  1.
 GradGradGradGradGradGradGradGradGradGradGradGradGradGradGradGradGradGrad

 ---------------------------------------------------------------------------------------------------
                            Z-MATRIX (ANGSTROMS AND DEGREES)
   CD    Cent   Atom    N1       Length/X        N2       Alpha/Y        N3        Beta/Z          J
 ---------------------------------------------------------------------------------------------------
      1      1  C        0  -1.039427         -0.193326          1.093588
      2      2  C        0  -0.470762          1.543030         -0.741508
      3      3  O        0   0.497214         -0.684407         -0.803543
      4      4  C        0   0.903823          0.888214         -0.646113
      5      5  C        0  -0.557710         -1.217729          0.052337
      6      6  C        0  -1.341376          1.203129          0.477939
      7      7  H        0  -1.130691          1.938982          1.266139
      8      8  H        0  -0.970181          1.132803         -1.630664
      9      9  H        0  -0.114919         -2.054256          0.609013
     10     10  H        0  -1.968238         -0.598637          1.513243
     11     11  C        0  -1.681426         -1.762966         -0.844532
     12     12  H        0  -1.231483         -2.269041         -1.713337
     13     13  H        0  -2.312406         -0.947186         -1.211394
     14     14  O        0  -2.548860         -2.626336         -0.116297
     15     15  H        0  -2.047958         -3.425129          0.112055
     16     16  O        0  -0.276119          2.941095         -0.889745
     17     17  H        0  -1.164560          3.328817         -0.964702
     18     18  O        0  -2.689649          1.346400          0.010046
     19     19  H        0  -3.282009          1.311135          0.780351
     20     20  O        0  -0.127006         -0.083074          2.169193
     21     21  H        0   0.647586          0.400323          1.795161
     22     22  H        0   1.460219          0.978000         -1.592531
     23     23  O        0   1.591443          1.113477          0.445339
     24     24  O        0   2.565602         -1.892678         -0.445352
     25     25  H        0   1.541708         -1.338588         -0.661497
     26     26  H        0   2.928117         -2.247399         -1.274911
     27     27  O        0   3.797378          0.063721          0.275262
     28     28  H        0   2.865194          0.651108          0.370261
     29     29  H        0   3.250663         -1.052253         -0.075138
     30     30  H        0   4.170206          0.003628          1.168463
 ---------------------------------------------------------------------------------------------------
                         Z-Matrix orientation:                         
 ---------------------------------------------------------------------
 Center     Atomic      Atomic             Coordinates (Angstroms)
 Number     Number       Type             X           Y           Z
 ---------------------------------------------------------------------
      1          6           0       -1.039427   -0.193326    1.093588
      2          6           0       -0.470762    1.543030   -0.741508
      3          8           0        0.497214   -0.684407   -0.803543
      4          6           0        0.903823    0.888214   -0.646113
      5          6           0       -0.557710   -1.217729    0.052337
      6          6           0       -1.341376    1.203129    0.477939
      7          1           0       -1.130691    1.938982    1.266139
      8          1           0       -0.970181    1.132803   -1.630664
      9          1           0       -0.114919   -2.054256    0.609013
     10          1           0       -1.968238   -0.598637    1.513243
     11          6           0       -1.681426   -1.762966   -0.844532
     12          1           0       -1.231483   -2.269041   -1.713337
     13          1           0       -2.312406   -0.947186   -1.211394
     14          8           0       -2.548860   -2.626336   -0.116297
     15          1           0       -2.047958   -3.425129    0.112055
     16          8           0       -0.276119    2.941095   -0.889745
     17          1           0       -1.164560    3.328817   -0.964702
     18          8           0       -2.689649    1.346400    0.010046
     19          1           0       -3.282009    1.311135    0.780351
     20          8           0       -0.127006   -0.083074    2.169193
     21          1           0        0.647586    0.400323    1.795161
     22          1           0        1.460219    0.978000   -1.592531
     23          8           0        1.591443    1.113477    0.445339
     24          8           0        2.565602   -1.892678   -0.445352
     25          1           0        1.541708   -1.338588   -0.661497
     26          1           0        2.928117   -2.247399   -1.274911
     27          8           0        3.797378    0.063721    0.275262
     28          1           0        2.865194    0.651108    0.370261
     29          1           0        3.250663   -1.052253   -0.075138
     30          1           0        4.170206    0.003628    1.168463
 ---------------------------------------------------------------------
                    Distance matrix (angstroms):
                    1          2          3          4          5
     1  C    0.000000
     2  C    2.589573   0.000000
     3  O    2.490288   2.429465   0.000000
     4  C    2.823563   1.525571   1.631947   0.000000
     5  C    1.538069   2.873942   1.459393   2.656860   0.000000
     6  C    1.555726   1.536409   2.930086   2.530530   2.579888
     7  H    2.141224   2.150100   3.716965   2.983298   3.430225
     8  H    3.030670   1.099229   2.477828   2.130975   2.920210
     9  H    2.133680   3.858886   2.060706   3.357277   1.098057
    10  H    1.096849   3.451532   3.384274   3.888737   2.122996
    11  C    2.575314   3.522205   2.431346   3.708320   1.537659
    12  H    3.496328   4.006873   2.515389   3.958126   2.162598
    13  H    2.738927   3.132670   2.851203   3.745980   2.179258
    14  O    3.108335   4.700318   3.677222   4.955178   2.444850
    15  H    3.524924   5.281924   3.850685   5.281359   2.664023
    16  O    3.786931   1.419312   3.708064   2.380324   4.273480
    17  H    4.081385   1.928784   4.346658   3.215004   4.698267
    18  O    2.503608   2.350948   3.865514   3.681511   3.334923
    19  H    2.718583   3.205143   4.557788   4.442393   3.787738
    20  O    1.414777   3.351800   3.096516   3.151501   2.440088
    21  H    1.921103   2.998528   2.820020   2.502701   2.666133
    22  H    3.851684   2.184534   2.076891   1.101519   3.405709
    23  O    3.008228   2.417811   2.447331   1.309516   3.194970
    24  O    4.272279   4.594704   2.422075   3.245793   3.233934
    25  H    3.324787   3.515702   1.240604   2.316416   2.220748
    26  H    5.056719   5.119009   2.928211   3.784868   3.869470
    27  O    4.912272   4.630248   3.551704   3.146646   4.545173
    28  H    4.059844   3.627693   2.961207   2.221759   3.912787
    29  H    4.528636   4.585689   2.871823   3.098239   3.814097
    30  H    5.213892   5.249413   4.225289   3.839848   5.009056
                    6          7          8          9         10
     6  C    0.000000
     7  H    1.098693   0.000000
     8  H    2.142181   3.011172   0.000000
     9  H    3.483093   4.172476   3.988104   0.000000
    10  H    2.170523   2.683665   3.725339   2.524133   0.000000
    11  C    3.265315   4.296820   3.083724   2.156754   2.645189
    12  H    4.107278   5.157024   3.412866   2.585760   3.707273
    13  H    2.901827   3.983037   2.510719   3.060790   2.768318
    14  O    4.059056   4.976390   4.349329   2.603348   2.665349
    15  H    4.696158   5.563001   4.997341   2.421343   3.155747
    16  O    2.454762   2.526333   2.073790   5.217834   4.600796
    17  H    2.575078   2.628581   2.302991   5.705769   4.712855
    18  O    1.434326   2.087887   2.386236   4.307256   2.561875
    19  H    1.967022   2.293109   3.345048   4.624465   2.431122
    20  O    2.447315   2.431378   4.077771   2.513934   2.021438
    21  H    2.517050   2.410312   3.858753   2.830781   2.814238
    22  H    3.490912   3.975965   2.435624   4.064779   4.887324
    23  O    2.934370   2.960605   3.297284   3.601804   4.091831
    24  O    5.069612   5.592263   4.802110   2.884959   5.105521
    25  H    4.008842   4.647576   3.654674   2.206986   4.194847
    26  H    5.762569   6.360554   5.171949   3.584207   5.870819
    27  O    5.267459   5.365101   5.244531   4.461310   5.934108
    28  H    4.244002   4.292821   4.352681   4.032006   5.121556
    29  H    5.145820   5.471999   5.000965   3.577599   5.474089
    30  H    5.682707   5.643992   5.961017   4.786457   6.177547
                   11         12         13         14         15
    11  C    0.000000
    12  H    1.101537   0.000000
    13  H    1.094633   1.779787   0.000000
    14  O    1.424140   2.100876   2.018587   0.000000
    15  H    1.952483   2.309811   2.821640   0.970112   0.000000
    16  O    4.909697   5.360647   4.400983   6.062991   6.683698
    17  H    5.119360   5.648092   4.434254   6.172514   6.896056
    18  O    3.378605   4.262360   2.625788   3.977237   4.815565
    19  H    3.827820   4.820871   3.163415   4.104286   4.939807
    20  O    3.784283   4.590464   4.117163   4.190110   4.369348
    21  H    4.131839   4.792282   4.429075   4.799125   4.973217
    22  H    4.235839   4.219375   4.252565   5.589563   5.882216
    23  O    4.544157   4.906141   4.714990   5.607472   5.827114
    24  O    4.267718   4.020857   5.027498   5.177282   4.893265
    25  H    3.256101   3.108488   3.912771   4.322995   4.223475
    26  H    4.654867   4.182697   5.399784   5.610994   5.298306
    27  O    5.882858   5.889461   6.368794   6.903945   6.809307
    28  H    5.289161   5.445311   5.644796   6.347469   6.389166
    29  H    5.042081   4.924825   5.678895   6.009484   5.808697
    30  H    6.435418   6.530547   6.970798   7.328927   7.178993
                   16         17         18         19         20
    16  O    0.000000
    17  H    0.972252   0.000000
    18  O    3.029489   2.684401   0.000000
    19  H    3.805439   3.405854   0.972370   0.000000
    20  O    4.304060   4.747506   3.643137   3.718433   0.000000
    21  H    3.810180   4.413252   3.901132   4.159463   0.986694
    22  H    2.713396   3.579102   4.463785   5.313217   4.218498
    23  O    2.934353   3.806770   4.309464   4.888950   2.712282
    24  O    5.624787   6.438000   6.190047   6.779478   4.166611
    25  H    4.655349   5.403748   5.056136   5.689306   3.517631
    26  H    6.110315   6.923902   6.791598   7.446672   5.087232
    27  O    5.121513   6.067882   6.617940   7.206169   4.359967
    28  H    4.086503   5.019080   5.609765   6.196121   3.567694
    29  H    5.389676   6.283255   6.406879   6.999519   4.169530
    30  H    5.712682   6.638298   7.085378   7.575996   4.413050
                   21         22         23         24         25
    21  H    0.000000
    22  H    3.531365   0.000000
    23  O    1.794847   2.046580   0.000000
    24  O    3.735845   3.283091   3.283182   0.000000
    25  H    3.139814   2.498008   2.690759   1.184100   0.000000
    26  H    4.651515   3.557922   4.005177   0.972323   1.767581
    27  O    3.513486   3.128397   2.448890   2.421581   2.816387
    28  H    2.647833   2.435850   1.357153   2.688090   2.602889
    29  H    3.519092   3.103240   2.777462   1.145723   1.829298
    30  H    3.599857   3.989551   2.899085   2.962284   3.472650
                   26         27         28         29         30
    26  H    0.000000
    27  O    2.915463   0.000000
    28  H    3.333451   1.105900   0.000000
    29  H    1.723910   1.291153   1.802333   0.000000
    30  H    3.546827   0.969753   1.661148   1.872695   0.000000
 Stoichiometry    C6H16O8
 Framework group  C1[X(C6H16O8)]
 Deg. of freedom    84
 Full point group                 C1      NOp   1
 Largest Abelian subgroup         C1      NOp   1
 Largest concise Abelian subgroup C1      NOp   1
                         Standard orientation:                         
 ---------------------------------------------------------------------
 Center     Atomic      Atomic             Coordinates (Angstroms)
 Number     Number       Type             X           Y           Z
 ---------------------------------------------------------------------
      1          6           0        1.039427    0.193326    1.093588
      2          6           0        0.470762   -1.543030   -0.741508
      3          8           0       -0.497214    0.684407   -0.803543
      4          6           0       -0.903823   -0.888214   -0.646113
      5          6           0        0.557710    1.217729    0.052337
      6          6           0        1.341376   -1.203129    0.477939
      7          1           0        1.130691   -1.938982    1.266139
      8          1           0        0.970181   -1.132803   -1.630664
      9          1           0        0.114919    2.054256    0.609013
     10          1           0        1.968238    0.598637    1.513243
     11          6           0        1.681426    1.762966   -0.844532
     12          1           0        1.231483    2.269041   -1.713337
     13          1           0        2.312406    0.947186   -1.211394
     14          8           0        2.548860    2.626337   -0.116297
     15          1           0        2.047957    3.425129    0.112055
     16          8           0        0.276120   -2.941095   -0.889745
     17          1           0        1.164561   -3.328817   -0.964702
     18          8           0        2.689649   -1.346399    0.010046
     19          1           0        3.282009   -1.311134    0.780351
     20          8           0        0.127006    0.083074    2.169193
     21          1           0       -0.647586   -0.400323    1.795161
     22          1           0       -1.460219   -0.978000   -1.592531
     23          8           0       -1.591443   -1.113477    0.445339
     24          8           0       -2.565602    1.892678   -0.445352
     25          1           0       -1.541708    1.338588   -0.661497
     26          1           0       -2.928117    2.247398   -1.274911
     27          8           0       -3.797378   -0.063722    0.275262
     28          1           0       -2.865194   -0.651109    0.370261
     29          1           0       -3.250663    1.052252   -0.075138
     30          1           0       -4.170206   -0.003629    1.168463
 ---------------------------------------------------------------------
 Rotational constants (GHZ):      0.7335669      0.5425187      0.3920122
 Standard basis: 6-31G(d) (6D, 7F)
 There are   242 symmetry adapted cartesian basis functions of A   symmetry.
 There are   242 symmetry adapted basis functions of A   symmetry.
   242 basis functions,   456 primitive gaussians,   242 cartesian basis functions
    58 alpha electrons       58 beta electrons
       nuclear repulsion energy      1122.3899719010 Hartrees.
 NAtoms=   30 NActive=   30 NUniq=   30 SFac= 1.00D+00 NAtFMM=   60 NAOKFM=F Big=F
 Integral buffers will be    131072 words long.
 Raffenetti 2 integral format.
 Two-electron integral symmetry is turned on.
 One-electron integrals computed using PRISM.
 NBasis=   242 RedAO= T EigKep=  1.13D-03  NBF=   242
 NBsUse=   242 1.00D-06 EigRej= -1.00D+00 NBFU=   242
 ExpMin= 1.61D-01 ExpMax= 5.48D+03 ExpMxC= 8.25D+02 IAcc=1 IRadAn=         1 AccDes= 0.00D+00
 Harris functional with IExCor=  402 and IRadAn=       1 diagonalized for initial guess.
 HarFok:  IExCor=  402 AccDes= 0.00D+00 IRadAn=         1 IDoV= 1 UseB2=F ITyADJ=14
 ICtDFT=  3500011 ScaDFX=  1.000000  1.000000  1.000000  1.000000
 FoFCou: FMM=F IPFlag=           0 FMFlag=      100000 FMFlg1=           0
         NFxFlg=           0 DoJE=T BraDBF=F KetDBF=T FulRan=T
         wScrn=  0.000000 ICntrl=     500 IOpCl=  0 I1Cent=   200000004 NGrid=           0
         NMat0=    1 NMatS0=      1 NMatT0=    0 NMatD0=    1 NMtDS0=    0 NMtDT0=    0
 Petite list used in FoFCou.
 Requested convergence on RMS density matrix=1.00D-08 within 128 cycles.
 Requested convergence on MAX density matrix=1.00D-06.
 Requested convergence on             energy=1.00D-06.
 No special actions if energy rises.
 Integral accuracy reduced to 1.0D-05 until final iterations.
 Initial convergence to 1.0D-05 achieved.  Increase integral accuracy.
 SCF Done:  E(RB3LYP) =  -839.960915706     A.U. after   14 cycles
            NFock= 14  Conv=0.53D-08     -V/T= 2.0086
 DoSCS=F DFT=T ScalE2(SS,OS)=  1.000000  1.000000
 Range of M.O.s used for correlation:     1   242
 NBasis=   242 NAE=    58 NBE=    58 NFC=     0 NFV=     0
 NROrb=    242 NOA=    58 NOB=    58 NVA=   184 NVB=   184
 Symmetrizing basis deriv contribution to polar:
 IMax=3 JMax=2 DiffMx= 0.00D+00
 G2DrvN: will do    31 centers at a time, making    1 passes.
 Calling FoFCou, ICntrl=  3107 FMM=F I1Cent=   0 AccDes= 0.00D+00.
 End of G2Drv F.D. properties file   721 does not exist.
 End of G2Drv F.D. properties file   722 does not exist.
 End of G2Drv F.D. properties file   788 does not exist.
          IDoAtm=111111111111111111111111111111
          Differentiating once with respect to nuclear coordinates.
          There are    93 degrees of freedom in the 1st order CPHF.  IDoFFX=6 NUNeed=     0.
     87 vectors produced by pass  0 Test12= 1.15D-14 1.08D-09 XBig12= 1.22D-01 8.75D-02.
 AX will form    87 AO Fock derivatives at one time.
     87 vectors produced by pass  1 Test12= 1.15D-14 1.08D-09 XBig12= 1.18D-02 1.37D-02.
     87 vectors produced by pass  2 Test12= 1.15D-14 1.08D-09 XBig12= 1.34D-04 2.53D-03.
     87 vectors produced by pass  3 Test12= 1.15D-14 1.08D-09 XBig12= 2.94D-07 7.33D-05.
     87 vectors produced by pass  4 Test12= 1.15D-14 1.08D-09 XBig12= 4.84D-10 2.42D-06.
     67 vectors produced by pass  5 Test12= 1.15D-14 1.08D-09 XBig12= 4.07D-13 5.06D-08.
      3 vectors produced by pass  6 Test12= 1.15D-14 1.08D-09 XBig12= 3.11D-16 1.77D-09.
 InvSVY:  IOpt=1 It=  1 EMax= 5.27D-16
 Solved reduced A of dimension   505 with    93 vectors.
 End of Minotr F.D. properties file   721 does not exist.
 End of Minotr F.D. properties file   722 does not exist.
 End of Minotr F.D. properties file   788 does not exist.

 **********************************************************************

            Population analysis using the SCF density.

 **********************************************************************

 Orbital symmetries:
       Occupied  (A) (A) (A) (A) (A) (A) (A) (A) (A) (A) (A) (A)
                 (A) (A) (A) (A) (A) (A) (A) (A) (A) (A) (A) (A)
                 (A) (A) (A) (A) (A) (A) (A) (A) (A) (A) (A) (A)
                 (A) (A) (A) (A) (A) (A) (A) (A) (A) (A) (A) (A)
                 (A) (A) (A) (A) (A) (A) (A) (A) (A) (A)
       Virtual   (A) (A) (A) (A) (A) (A) (A) (A) (A) (A) (A) (A)
                 (A) (A) (A) (A) (A) (A) (A) (A) (A) (A) (A) (A)
                 (A) (A) (A) (A) (A) (A) (A) (A) (A) (A) (A) (A)
                 (A) (A) (A) (A) (A) (A) (A) (A) (A) (A) (A) (A)
                 (A) (A) (A) (A) (A) (A) (A) (A) (A) (A) (A) (A)
                 (A) (A) (A) (A) (A) (A) (A) (A) (A) (A) (A) (A)
                 (A) (A) (A) (A) (A) (A) (A) (A) (A) (A) (A) (A)
                 (A) (A) (A) (A) (A) (A) (A) (A) (A) (A) (A) (A)
                 (A) (A) (A) (A) (A) (A) (A) (A) (A) (A) (A) (A)
                 (A) (A) (A) (A) (A) (A) (A) (A) (A) (A) (A) (A)
                 (A) (A) (A) (A) (A) (A) (A) (A) (A) (A) (A) (A)
                 (A) (A) (A) (A) (A) (A) (A) (A) (A) (A) (A) (A)
                 (A) (A) (A) (A) (A) (A) (A) (A) (A) (A) (A) (A)
                 (A) (A) (A) (A) (A) (A) (A) (A) (A) (A) (A) (A)
                 (A) (A) (A) (A) (A) (A) (A) (A) (A) (A) (A) (A)
                 (A) (A) (A) (A)
 The electronic state is 1-A.
 Alpha  occ. eigenvalues --  -19.18492 -19.18028 -19.15859 -19.15509 -19.15297
 Alpha  occ. eigenvalues --  -19.14160 -19.11681 -19.11000 -10.28562 -10.24398
 Alpha  occ. eigenvalues --  -10.23422 -10.23347 -10.23279 -10.23119  -1.06488
 Alpha  occ. eigenvalues --   -1.03843  -1.02693  -1.02219  -1.01377  -1.00914
 Alpha  occ. eigenvalues --   -0.99391  -0.97479  -0.77144  -0.75345  -0.68070
 Alpha  occ. eigenvalues --   -0.64408  -0.62020  -0.57405  -0.55834  -0.54820
 Alpha  occ. eigenvalues --   -0.54159  -0.53087  -0.51124  -0.50297  -0.48490
 Alpha  occ. eigenvalues --   -0.46492  -0.46170  -0.44780  -0.44308  -0.43329
 Alpha  occ. eigenvalues --   -0.41146  -0.40701  -0.39561  -0.38595  -0.37271
 Alpha  occ. eigenvalues --   -0.36193  -0.35321  -0.34722  -0.34451  -0.32468
 Alpha  occ. eigenvalues --   -0.31735  -0.30612  -0.28751  -0.27769  -0.27222
 Alpha  occ. eigenvalues --   -0.25742  -0.25086  -0.23781
 Alpha virt. eigenvalues --    0.04397   0.05638   0.06749   0.06889   0.08526
 Alpha virt. eigenvalues --    0.10380   0.11835   0.12226   0.12913   0.15026
 Alpha virt. eigenvalues --    0.15256   0.16338   0.17207   0.18569   0.20108
 Alpha virt. eigenvalues --    0.20530   0.22351   0.23729   0.24868   0.25115
 Alpha virt. eigenvalues --    0.26653   0.27439   0.28796   0.30594   0.31964
 Alpha virt. eigenvalues --    0.32542   0.33373   0.37852   0.52471   0.54270
 Alpha virt. eigenvalues --    0.54884   0.56617   0.57392   0.58612   0.59715
 Alpha virt. eigenvalues --    0.60485   0.61515   0.63089   0.64348   0.65495
 Alpha virt. eigenvalues --    0.67646   0.69013   0.69340   0.70008   0.74292
 Alpha virt. eigenvalues --    0.74961   0.76723   0.79032   0.79535   0.81262
 Alpha virt. eigenvalues --    0.81526   0.81993   0.82936   0.83822   0.85515
 Alpha virt. eigenvalues --    0.85635   0.87568   0.87912   0.88452   0.89748
 Alpha virt. eigenvalues --    0.90328   0.91053   0.92728   0.94698   0.96515
 Alpha virt. eigenvalues --    0.97536   0.98996   0.99892   1.01771   1.02742
 Alpha virt. eigenvalues --    1.03256   1.04849   1.05479   1.06627   1.07754
 Alpha virt. eigenvalues --    1.08990   1.12449   1.12950   1.15232   1.17356
 Alpha virt. eigenvalues --    1.18624   1.19748   1.23319   1.26935   1.27315
 Alpha virt. eigenvalues --    1.28950   1.32050   1.34416   1.35062   1.40310
 Alpha virt. eigenvalues --    1.42155   1.44352   1.47263   1.50799   1.51292
 Alpha virt. eigenvalues --    1.53875   1.55310   1.57580   1.59835   1.60587
 Alpha virt. eigenvalues --    1.62985   1.65273   1.66463   1.67295   1.68143
 Alpha virt. eigenvalues --    1.69069   1.71033   1.71973   1.73980   1.74938
 Alpha virt. eigenvalues --    1.76580   1.77672   1.78784   1.79795   1.80143
 Alpha virt. eigenvalues --    1.81201   1.84090   1.85320   1.85386   1.86469
 Alpha virt. eigenvalues --    1.88502   1.89376   1.90667   1.93336   1.95810
 Alpha virt. eigenvalues --    1.98255   1.98748   2.01068   2.04958   2.06578
 Alpha virt. eigenvalues --    2.07199   2.10318   2.10479   2.15663   2.17763
 Alpha virt. eigenvalues --    2.19164   2.24104   2.26143   2.27435   2.31768
 Alpha virt. eigenvalues --    2.33758   2.35918   2.37197   2.39431   2.41621
 Alpha virt. eigenvalues --    2.43294   2.44993   2.48779   2.50371   2.52675
 Alpha virt. eigenvalues --    2.53479   2.54908   2.58330   2.59578   2.60580
 Alpha virt. eigenvalues --    2.64634   2.66540   2.68136   2.70556   2.75771
 Alpha virt. eigenvalues --    2.80869   2.82878   2.84697   2.90616   2.91228
 Alpha virt. eigenvalues --    2.93860   2.99131   3.03982   3.08352   3.12843
 Alpha virt. eigenvalues --    3.70154   3.75517   3.79997   3.88201   3.90056
 Alpha virt. eigenvalues --    3.98450   4.05601   4.16072   4.25698   4.37561
 Alpha virt. eigenvalues --    4.55841   4.59330   4.64547   4.93253
          Condensed to atoms (all electrons):
               1          2          3          4          5          6
     1  C    4.972445  -0.026142  -0.027010   0.005428   0.301765   0.253857
     2  C   -0.026142   4.948237  -0.024198   0.302656  -0.019878   0.292920
     3  O   -0.027010  -0.024198   8.640064   0.066860   0.115076  -0.011168
     4  C    0.005428   0.302656   0.066860   4.780917  -0.008886  -0.020762
     5  C    0.301765  -0.019878   0.115076  -0.008886   5.112566  -0.019138
     6  C    0.253857   0.292920  -0.011168  -0.020762  -0.019138   5.102863
     7  H   -0.055728  -0.036134   0.000259  -0.006014   0.006454   0.349159
     8  H    0.000373   0.345365   0.005442  -0.050000  -0.000228  -0.054437
     9  H   -0.038708   0.000113  -0.032937   0.000864   0.357542   0.004875
    10  H    0.364449   0.004223   0.003226  -0.000089  -0.053603  -0.041691
    11  C   -0.030038  -0.000489  -0.033594   0.000636   0.282277  -0.002484
    12  H    0.004704   0.000014   0.006643  -0.000006  -0.048005  -0.000240
    13  H   -0.009187  -0.001754   0.002231   0.000126  -0.037800   0.000737
    14  O   -0.003320   0.000038   0.001442  -0.000012  -0.039210  -0.000076
    15  H   -0.000617   0.000002  -0.000005  -0.000001  -0.003055   0.000001
    16  O    0.003696   0.246554   0.000879  -0.041546  -0.000021  -0.039232
    17  H    0.000397  -0.028097  -0.000089   0.007695  -0.000032  -0.004997
    18  O   -0.033495  -0.040748  -0.000011   0.002544   0.001029   0.183157
    19  H   -0.002818   0.007008   0.000006  -0.000280  -0.000190  -0.022836
    20  O    0.242793   0.001641   0.001206   0.005001  -0.042890  -0.037737
    21  H   -0.040225  -0.003700  -0.000510  -0.005683  -0.000350  -0.000855
    22  H   -0.000497  -0.062369  -0.042897   0.370513   0.004215   0.006852
    23  O    0.004310  -0.049229  -0.054414   0.274133   0.000051  -0.001942
    24  O   -0.000326   0.000039  -0.098070   0.006188   0.004255   0.000000
    25  H    0.002661   0.001898   0.115390  -0.003914  -0.008042  -0.000170
    26  H    0.000009   0.000006   0.003998  -0.000049  -0.000102  -0.000000
    27  O   -0.000006  -0.000180  -0.000832   0.007854  -0.000032   0.000008
    28  H   -0.000101   0.002352   0.002682  -0.013137  -0.000078  -0.000118
    29  H    0.000014   0.000085   0.004300  -0.000226  -0.000029  -0.000003
    30  H   -0.000001   0.000005  -0.000008  -0.000263   0.000005  -0.000000
               7          8          9         10         11         12
     1  C   -0.055728   0.000373  -0.038708   0.364449  -0.030038   0.004704
     2  C   -0.036134   0.345365   0.000113   0.004223  -0.000489   0.000014
     3  O    0.000259   0.005442  -0.032937   0.003226  -0.033594   0.006643
     4  C   -0.006014  -0.050000   0.000864  -0.000089   0.000636  -0.000006
     5  C    0.006454  -0.000228   0.357542  -0.053603   0.282277  -0.048005
     6  C    0.349159  -0.054437   0.004875  -0.041691  -0.002484  -0.000240
     7  H    0.607118   0.007098  -0.000243  -0.001264  -0.000092   0.000010
     8  H    0.007098   0.652063   0.000079  -0.000320   0.000088   0.000223
     9  H   -0.000243   0.000079   0.610782  -0.001188  -0.053323  -0.003801
    10  H   -0.001264  -0.000320  -0.001188   0.597333  -0.002497   0.000513
    11  C   -0.000092   0.000088  -0.053323  -0.002497   4.976616   0.345508
    12  H    0.000010   0.000223  -0.003801   0.000513   0.345508   0.639053
    13  H    0.000169   0.003567   0.004792  -0.000060   0.372107  -0.036164
    14  O   -0.000003   0.000015   0.001534   0.013035   0.235769  -0.029342
    15  H   -0.000000   0.000001   0.006694  -0.000171  -0.031866  -0.007320
    16  O    0.001925  -0.038844   0.000003  -0.000054   0.000006  -0.000001
    17  H   -0.000513  -0.004404  -0.000000  -0.000006   0.000002  -0.000000
    18  O   -0.032980  -0.001314  -0.000131   0.000964  -0.003071   0.000130
    19  H   -0.005201  -0.000023   0.000004   0.005077   0.000232  -0.000009
    20  O    0.007597  -0.000074   0.003890  -0.037095   0.003749  -0.000078
    21  H    0.000822   0.000063  -0.000647   0.005867  -0.000014   0.000005
    22  H   -0.000145  -0.001844  -0.000132   0.000002  -0.000132  -0.000006
    23  O    0.002911   0.004067  -0.000208  -0.000017   0.000000   0.000007
    24  O    0.000000  -0.000001   0.004790   0.000003  -0.000190  -0.000019
    25  H    0.000008   0.000118  -0.004829  -0.000072  -0.000243   0.000898
    26  H   -0.000000  -0.000001  -0.000239  -0.000000   0.000005   0.000008
    27  O    0.000001   0.000005   0.000018  -0.000000  -0.000000   0.000000
    28  H   -0.000017  -0.000092  -0.000010   0.000001   0.000003  -0.000001
    29  H   -0.000000  -0.000004  -0.000084  -0.000000   0.000010  -0.000001
    30  H   -0.000000  -0.000000  -0.000004   0.000000   0.000000  -0.000000
              13         14         15         16         17         18
     1  C   -0.009187  -0.003320  -0.000617   0.003696   0.000397  -0.033495
     2  C   -0.001754   0.000038   0.000002   0.246554  -0.028097  -0.040748
     3  O    0.002231   0.001442  -0.000005   0.000879  -0.000089  -0.000011
     4  C    0.000126  -0.000012  -0.000001  -0.041546   0.007695   0.002544
     5  C   -0.037800  -0.039210  -0.003055  -0.000021  -0.000032   0.001029
     6  C    0.000737  -0.000076   0.000001  -0.039232  -0.004997   0.183157
     7  H    0.000169  -0.000003  -0.000000   0.001925  -0.000513  -0.032980
     8  H    0.003567   0.000015   0.000001  -0.038844  -0.004404  -0.001314
     9  H    0.004792   0.001534   0.006694   0.000003  -0.000000  -0.000131
    10  H   -0.000060   0.013035  -0.000171  -0.000054  -0.000006   0.000964
    11  C    0.372107   0.235769  -0.031866   0.000006   0.000002  -0.003071
    12  H   -0.036164  -0.029342  -0.007320  -0.000001  -0.000000   0.000130
    13  H    0.537605  -0.033991   0.006886   0.000005  -0.000006   0.012796
    14  O   -0.033991   8.231401   0.233975   0.000000  -0.000000  -0.000038
    15  H    0.006886   0.233975   0.404278   0.000000   0.000000  -0.000008
    16  O    0.000005   0.000000   0.000000   8.261987   0.234808  -0.000579
    17  H   -0.000006  -0.000000   0.000000   0.234808   0.387541   0.008226
    18  O    0.012796  -0.000038  -0.000008  -0.000579   0.008226   8.313802
    19  H   -0.000422  -0.000028   0.000002  -0.000159  -0.000463   0.231132
    20  O    0.000047  -0.000024  -0.000024  -0.000012  -0.000005   0.001620
    21  H    0.000005  -0.000001   0.000001  -0.000060  -0.000015  -0.000025
    22  H   -0.000010   0.000001  -0.000000   0.002602  -0.000490  -0.000060
    23  O    0.000007   0.000000  -0.000000   0.001770  -0.000079   0.000029
    24  O    0.000001   0.000001  -0.000001   0.000000  -0.000000  -0.000000
    25  H   -0.000060   0.000005  -0.000008  -0.000014   0.000001  -0.000001
    26  H    0.000000  -0.000000   0.000000  -0.000000   0.000000  -0.000000
    27  O    0.000000   0.000000  -0.000000   0.000000  -0.000000   0.000000
    28  H    0.000000  -0.000000   0.000000  -0.000063   0.000007   0.000000
    29  H   -0.000000  -0.000000  -0.000000  -0.000000   0.000000  -0.000000
    30  H    0.000000   0.000000   0.000000  -0.000000   0.000000  -0.000000
              19         20         21         22         23         24
     1  C   -0.002818   0.242793  -0.040225  -0.000497   0.004310  -0.000326
     2  C    0.007008   0.001641  -0.003700  -0.062369  -0.049229   0.000039
     3  O    0.000006   0.001206  -0.000510  -0.042897  -0.054414  -0.098070
     4  C   -0.000280   0.005001  -0.005683   0.370513   0.274133   0.006188
     5  C   -0.000190  -0.042890  -0.000350   0.004215   0.000051   0.004255
     6  C   -0.022836  -0.037737  -0.000855   0.006852  -0.001942   0.000000
     7  H   -0.005201   0.007597   0.000822  -0.000145   0.002911   0.000000
     8  H   -0.000023  -0.000074   0.000063  -0.001844   0.004067  -0.000001
     9  H    0.000004   0.003890  -0.000647  -0.000132  -0.000208   0.004790
    10  H    0.005077  -0.037095   0.005867   0.000002  -0.000017   0.000003
    11  C    0.000232   0.003749  -0.000014  -0.000132   0.000000  -0.000190
    12  H   -0.000009  -0.000078   0.000005  -0.000006   0.000007  -0.000019
    13  H   -0.000422   0.000047   0.000005  -0.000010   0.000007   0.000001
    14  O   -0.000028  -0.000024  -0.000001   0.000001   0.000000   0.000001
    15  H    0.000002  -0.000024   0.000001  -0.000000  -0.000000  -0.000001
    16  O   -0.000159  -0.000012  -0.000060   0.002602   0.001770   0.000000
    17  H   -0.000463  -0.000005  -0.000015  -0.000490  -0.000079  -0.000000
    18  O    0.231132   0.001620  -0.000025  -0.000060   0.000029  -0.000000
    19  H    0.390058  -0.000016   0.000038   0.000006   0.000005   0.000000
    20  O   -0.000016   8.340280   0.213412  -0.000152  -0.030451   0.000008
    21  H    0.000038   0.213412   0.340218   0.001391   0.070838   0.000030
    22  H    0.000006  -0.000152   0.001391   0.645246  -0.049085   0.000593
    23  O    0.000005  -0.030451   0.070838  -0.049085   8.431384  -0.002330
    24  O    0.000000   0.000008   0.000030   0.000593  -0.002330   8.508449
    25  H   -0.000000  -0.000314   0.000089  -0.000977   0.006660   0.132496
    26  H   -0.000000  -0.000000  -0.000001   0.000090   0.000046   0.233479
    27  O    0.000000  -0.000038   0.000682   0.002531  -0.088778  -0.098636
    28  H   -0.000000   0.000575  -0.000951  -0.005936   0.122601   0.006306
    29  H   -0.000000   0.000032   0.000023  -0.000391   0.005691   0.129322
    30  H   -0.000000   0.000007  -0.000010  -0.000079   0.004399   0.003913
              25         26         27         28         29         30
     1  C    0.002661   0.000009  -0.000006  -0.000101   0.000014  -0.000001
     2  C    0.001898   0.000006  -0.000180   0.002352   0.000085   0.000005
     3  O    0.115390   0.003998  -0.000832   0.002682   0.004300  -0.000008
     4  C   -0.003914  -0.000049   0.007854  -0.013137  -0.000226  -0.000263
     5  C   -0.008042  -0.000102  -0.000032  -0.000078  -0.000029   0.000005
     6  C   -0.000170  -0.000000   0.000008  -0.000118  -0.000003  -0.000000
     7  H    0.000008  -0.000000   0.000001  -0.000017  -0.000000  -0.000000
     8  H    0.000118  -0.000001   0.000005  -0.000092  -0.000004  -0.000000
     9  H   -0.004829  -0.000239   0.000018  -0.000010  -0.000084  -0.000004
    10  H   -0.000072  -0.000000  -0.000000   0.000001  -0.000000   0.000000
    11  C   -0.000243   0.000005  -0.000000   0.000003   0.000010   0.000000
    12  H    0.000898   0.000008   0.000000  -0.000001  -0.000001  -0.000000
    13  H   -0.000060   0.000000   0.000000   0.000000  -0.000000   0.000000
    14  O    0.000005  -0.000000   0.000000  -0.000000  -0.000000   0.000000
    15  H   -0.000008   0.000000  -0.000000   0.000000  -0.000000   0.000000
    16  O   -0.000014  -0.000000   0.000000  -0.000063  -0.000000  -0.000000
    17  H    0.000001   0.000000  -0.000000   0.000007   0.000000   0.000000
    18  O   -0.000001  -0.000000   0.000000   0.000000  -0.000000  -0.000000
    19  H   -0.000000  -0.000000   0.000000  -0.000000  -0.000000  -0.000000
    20  O   -0.000314  -0.000000  -0.000038   0.000575   0.000032   0.000007
    21  H    0.000089  -0.000001   0.000682  -0.000951   0.000023  -0.000010
    22  H   -0.000977   0.000090   0.002531  -0.005936  -0.000391  -0.000079
    23  O    0.006660   0.000046  -0.088778   0.122601   0.005691   0.004399
    24  O    0.132496   0.233479  -0.098636   0.006306   0.129322   0.003913
    25  H    0.280329  -0.003978   0.004465  -0.000683  -0.006168  -0.000028
    26  H   -0.003978   0.353489   0.004123  -0.000224  -0.005481  -0.000133
    27  O    0.004465   0.004123   8.497776   0.137901   0.138066   0.232360
    28  H   -0.000683  -0.000224   0.137901   0.302197  -0.012450  -0.005507
    29  H   -0.006168  -0.005481   0.138066  -0.012450   0.290173  -0.005819
    30  H   -0.000028  -0.000133   0.232360  -0.005507  -0.005819   0.363744
 Mulliken charges:
               1
     1  C    0.111318
     2  C    0.139764
     3  O   -0.643962
     4  C    0.319455
     5  C    0.096337
     6  C    0.063456
     7  H    0.154806
     8  H    0.133018
     9  H    0.140506
    10  H    0.143434
    11  C   -0.058975
    12  H    0.127278
    13  H    0.178370
    14  O   -0.611171
    15  H    0.391237
    16  O   -0.633650
    17  H    0.400518
    18  O   -0.642967
    19  H    0.398876
    20  O   -0.672947
    21  H    0.419560
    22  H    0.131160
    23  O   -0.652376
    24  O   -0.830299
    25  H    0.484481
    26  H    0.414955
    27  O   -0.837286
    28  H    0.464744
    29  H    0.462942
    30  H    0.407421
 Sum of Mulliken charges =  -0.00000
 Mulliken charges with hydrogens summed into heavy atoms:
               1
     1  C    0.254751
     2  C    0.272782
     3  O   -0.643962
     4  C    0.450614
     5  C    0.236843
     6  C    0.218262
    11  C    0.246673
    14  O   -0.219934
    16  O   -0.233132
    18  O   -0.244092
    20  O   -0.253387
    23  O   -0.652376
    24  O    0.532079
    27  O    0.034878
 APT charges:
               1
     1  C   -0.382175
     2  C   -0.161015
     3  O   -0.386567
     4  C   -0.290680
     5  C   -0.250076
     6  C   -0.245115
     7  H    0.422329
     8  H    0.335953
     9  H    0.389489
    10  H    0.482846
    11  C   -0.586361
    12  H    0.405999
    13  H    0.342664
    14  O   -0.765717
    15  H    0.678337
    16  O   -0.882586
    17  H    0.762153
    18  O   -0.940903
    19  H    0.781513
    20  O   -0.535156
    21  H    0.390827
    22  H    0.458167
    23  O   -0.496567
    24  O   -1.190535
    25  H    0.404283
    26  H    0.864713
    27  O   -1.122022
    28  H    0.305579
    29  H    0.399014
    30  H    0.811606
 Sum of APT charges =  -0.00000
 APT charges with hydrogens summed into heavy atoms:
               1
     1  C    0.100671
     2  C    0.174939
     3  O   -0.386567
     4  C    0.167487
     5  C    0.139413
     6  C    0.177214
    11  C    0.162303
    14  O   -0.087380
    16  O   -0.120433
    18  O   -0.159389
    20  O   -0.144328
    23  O   -0.496567
    24  O    0.477475
    27  O   -0.004837
 Electronic spatial extent (au):  <R**2>=           3045.0291
 Charge=             -0.0000 electrons
 Dipole moment (field-independent basis, Debye):
    X=             -1.1045    Y=              2.8436    Z=             -1.3430  Tot=              3.3331
 Quadrupole moment (field-independent basis, Debye-Ang):
   XX=            -77.7028   YY=            -79.5465   ZZ=            -83.9083
   XY=            -12.9767   XZ=              2.3197   YZ=             -4.9199
 Traceless Quadrupole moment (field-independent basis, Debye-Ang):
   XX=              2.6831   YY=              0.8394   ZZ=             -3.5224
   XY=            -12.9767   XZ=              2.3197   YZ=             -4.9199
 Octapole moment (field-independent basis, Debye-Ang**2):
  XXX=            -50.3757  YYY=             36.8581  ZZZ=            -16.3454  XYY=              8.0533
  XXY=             -4.7519  XXZ=             29.3543  XZZ=            -18.7672  YZZ=              2.1977
  YYZ=             -4.0632  XYZ=             10.0178
 Hexadecapole moment (field-independent basis, Debye-Ang**3):
 XXXX=          -1700.0429 YYYY=          -1121.2454 ZZZZ=           -511.1360 XXXY=           -170.7533
 XXXZ=            -23.9067 YYYX=            -62.9697 YYYZ=             -7.9323 ZZZX=             -8.0169
 ZZZY=            -17.0989 XXYY=           -498.2684 XXZZ=           -286.7317 YYZZ=           -271.5017
 XXYZ=            -42.8128 YYXZ=             29.1155 ZZXY=            -29.3839
 N-N= 1.122389971901D+03 E-N=-4.217780230095D+03  KE= 8.328062443818D+02
  Exact polarizability:   0.000   0.000   0.000   0.000   0.000   0.000
 Approx polarizability: 140.838   2.529 132.377  -3.256  -1.665 127.179
 Calling FoFJK, ICntrl=    100147 FMM=F ISym2X=0 I1Cent= 0 IOpClX= 0 NMat=1 NMatS=1 NMatT=0.
 ***** Axes restored to original set *****
 -------------------------------------------------------------------
 Center     Atomic                   Forces (Hartrees/Bohr)
 Number     Number              X              Y              Z
 -------------------------------------------------------------------
      1        6          -0.000137226   -0.000138019   -0.000076909
      2        6          -0.000067497    0.000565204    0.000534750
      3        8           0.000570510    0.000046333    0.000095802
      4        6           0.000382979   -0.000335667   -0.000160853
      5        6          -0.000025480    0.000272777   -0.000018864
      6        6          -0.000736693    0.000387487    0.000644120
      7        1           0.000392536   -0.000768154   -0.000569102
      8        1          -0.000090817   -0.000335471   -0.000349296
      9        1           0.000119447   -0.000094839    0.000153568
     10        1          -0.000031992    0.000030840   -0.000030409
     11        6          -0.000538888   -0.000045645   -0.000547785
     12        1          -0.000365371    0.000336952    0.000631422
     13        1           0.000800698   -0.001057858    0.000243362
     14        8          -0.000115424    0.001438199   -0.000806436
     15        1           0.000090791    0.000142311    0.000372844
     16        8          -0.001631976    0.000128960    0.000004276
     17        1           0.001118277   -0.000522445   -0.000109703
     18        8          -0.001086313   -0.000021174    0.001304881
     19        1           0.001437740   -0.000284798   -0.001454546
     20        8           0.000572799    0.000408961   -0.000232246
     21        1          -0.000430123   -0.000041044    0.000237313
     22        1          -0.000162143    0.000042295    0.000275231
     23        8          -0.000276476    0.000119623    0.000275667
     24        8           0.000224705   -0.001416014   -0.001372910
     25        1           0.000260592   -0.000200264   -0.000006410
     26        1          -0.000726684    0.001277885    0.001103470
     27        8           0.000167219    0.000377298   -0.000381251
     28        1          -0.000282990    0.000100654   -0.000548790
     29        1           0.000236891    0.000216965    0.000242118
     30        1           0.000330909   -0.000631351    0.000546685
 -------------------------------------------------------------------
 Cartesian Forces:  Max     0.001631976 RMS     0.000589778

 GradGradGradGradGradGradGradGradGradGradGradGradGradGradGradGradGradGrad
 Berny optimization.
 Search for a saddle point.
 Step number   1 out of a maximum of  180
 All quantities printed in internal units (Hartrees-Bohrs-Radians)
 Swapping is turned off.
 Second derivative matrix not updated -- analytic derivatives used.
 ITU=  0
     Eigenvalues ---   -0.07822   0.00041   0.00062   0.00139   0.00149
     Eigenvalues ---    0.00231   0.00343   0.00449   0.00588   0.00704
     Eigenvalues ---    0.00792   0.00892   0.01072   0.01287   0.01546
     Eigenvalues ---    0.01655   0.01718   0.02041   0.02178   0.02355
     Eigenvalues ---    0.02624   0.02779   0.03245   0.03683   0.04233
     Eigenvalues ---    0.04512   0.04694   0.04951   0.05166   0.05403
     Eigenvalues ---    0.05715   0.06179   0.06376   0.07104   0.07192
     Eigenvalues ---    0.07286   0.07796   0.08737   0.09071   0.09732
     Eigenvalues ---    0.10475   0.10809   0.11566   0.12515   0.13091
     Eigenvalues ---    0.13962   0.15181   0.15760   0.17140   0.18053
     Eigenvalues ---    0.18605   0.19976   0.21377   0.21663   0.22375
     Eigenvalues ---    0.25325   0.25776   0.28762   0.30541   0.31118
     Eigenvalues ---    0.36470   0.38384   0.44118   0.48149   0.53278
     Eigenvalues ---    0.56931   0.62574   0.63356   0.65336   0.65819
     Eigenvalues ---    0.73388   0.76661   0.81121   0.82433   0.86985
     Eigenvalues ---    0.88601   0.91301   0.93821   0.96989   1.01434
     Eigenvalues ---    1.03851   1.04731   1.05350   1.06395
 Eigenvectors required to have negative eigenvalues:
                          X25       Y29       X28       Y25       X29
   1                    0.50019   0.43613  -0.42080  -0.26924   0.22359
                          Y4        Z29       Y3        Y27       X23
   1                   -0.21479   0.21375   0.21066  -0.16030   0.13370
 RFO step:  Lambda0=2.908665368D-06 Lambda=-5.64948139D-04.
 Linear search not attempted -- option 19 set.
 Maximum step size (   0.300) exceeded in Quadratic search.
    -- Step size scaled by   0.629
 B after Tr=    -0.000364    0.001480    0.000131
         Rot=    1.000000   -0.000272   -0.000044    0.000195 Ang=  -0.04 deg.
 Variable       Old X    -DE/DX   Delta X   Delta X   Delta X     New X
                                 (Linear)    (Quad)   (Total)
    X1       -1.96423  -0.00014   0.00000   0.00710   0.00677  -1.95746
    Y1       -0.36533  -0.00014   0.00000  -0.00901  -0.00789  -0.37323
    Z1        2.06658  -0.00008   0.00000   0.00495   0.00505   2.07163
    X2       -0.88961  -0.00007   0.00000  -0.00593  -0.00529  -0.89490
    Y2        2.91590   0.00057   0.00000  -0.01469  -0.01210   2.90380
    Z2       -1.40125   0.00053   0.00000   0.00023   0.00202  -1.39923
    X3        0.93960   0.00057   0.00000   0.01675   0.01575   0.95535
    Y3       -1.29334   0.00005   0.00000  -0.00546  -0.00353  -1.29687
    Z3       -1.51848   0.00010   0.00000   0.01373   0.01307  -1.50540
    X4        1.70798   0.00038   0.00000   0.00323   0.00342   1.71140
    Y4        1.67848  -0.00034   0.00000   0.00222   0.00370   1.68218
    Z4       -1.22098  -0.00016   0.00000   0.00794   0.00883  -1.21214
    X5       -1.05392  -0.00003   0.00000   0.01180   0.01054  -1.04338
    Y5       -2.30117   0.00027   0.00000  -0.00576  -0.00393  -2.30511
    Z5        0.09890  -0.00002   0.00000   0.00523   0.00419   0.10309
    X6       -2.53483  -0.00074   0.00000  -0.00395  -0.00335  -2.53819
    Y6        2.27358   0.00039   0.00000  -0.01478  -0.01280   2.26078
    Z6        0.90317   0.00064   0.00000   0.00110   0.00268   0.90586
    X7       -2.13670   0.00039   0.00000  -0.00368  -0.00241  -2.13911
    Y7        3.66414  -0.00077   0.00000  -0.01202  -0.01101   3.65313
    Z7        2.39266  -0.00057   0.00000  -0.00340  -0.00109   2.39157
    X8       -1.83338  -0.00009   0.00000   0.00377   0.00396  -1.82942
    Y8        2.14069  -0.00034   0.00000  -0.03116  -0.02729   2.11340
    Z8       -3.08151  -0.00035   0.00000   0.00152   0.00296  -3.07855
    X9       -0.21717   0.00012   0.00000   0.00592   0.00414  -0.21303
    Y9       -3.88198  -0.00009   0.00000  -0.00991  -0.00897  -3.89096
    Z9        1.15087   0.00015   0.00000   0.00527   0.00330   1.15417
   X10       -3.71943  -0.00003   0.00000   0.01087   0.01031  -3.70912
   Y10       -1.13126   0.00003   0.00000  -0.01475  -0.01339  -1.14465
   Z10        2.85961  -0.00003   0.00000   0.00725   0.00708   2.86669
   X11       -3.17743  -0.00054   0.00000   0.01629   0.01449  -3.16294
   Y11       -3.33152  -0.00005   0.00000   0.00699   0.01058  -3.32095
   Z11       -1.59593  -0.00055   0.00000  -0.00690  -0.00831  -1.60424
   X12       -2.32717  -0.00037   0.00000   0.02009   0.01775  -2.30941
   Y12       -4.28787   0.00034   0.00000  -0.05725  -0.05313  -4.34099
   Z12       -3.23774   0.00063   0.00000   0.03401   0.03197  -3.20577
   X13       -4.36981   0.00080   0.00000   0.07253   0.07127  -4.29855
   Y13       -1.78992  -0.00106   0.00000   0.01924   0.02368  -1.76624
   Z13       -2.28920   0.00024   0.00000  -0.06803  -0.06849  -2.35769
   X14       -4.81665  -0.00012   0.00000  -0.05632  -0.05860  -4.87525
   Y14       -4.96306   0.00144   0.00000   0.09025   0.09375  -4.86930
   Z14       -0.21977  -0.00081   0.00000   0.00108  -0.00102  -0.22079
   X15       -3.87008   0.00009   0.00000  -0.09585  -0.09867  -3.96875
   Y15       -6.47256   0.00014   0.00000   0.09226   0.09512  -6.37744
   Z15        0.21175   0.00037   0.00000   0.09637   0.09338   0.30513
   X16       -0.52179  -0.00163   0.00000  -0.02794  -0.02629  -0.54808
   Y16        5.55786   0.00013   0.00000  -0.01399  -0.01137   5.54649
   Z16       -1.68137   0.00000   0.00000  -0.01325  -0.01005  -1.69142
   X17       -2.20070   0.00112   0.00000  -0.03163  -0.02972  -2.23041
   Y17        6.29055  -0.00052   0.00000  -0.03034  -0.02698   6.26358
   Z17       -1.82302  -0.00011   0.00000  -0.03281  -0.02908  -1.85210
   X18       -5.08270  -0.00109   0.00000  -0.00362  -0.00300  -5.08570
   Y18        2.54433  -0.00002   0.00000  -0.02645  -0.02300   2.52133
   Z18        0.01898   0.00130   0.00000   0.00108   0.00303   0.02201
   X19       -6.20210   0.00144   0.00000  -0.00287  -0.00216  -6.20426
   Y19        2.47769  -0.00028   0.00000  -0.06417  -0.06107   2.41661
   Z19        1.47465  -0.00145   0.00000  -0.00324  -0.00125   1.47340
   X20       -0.24001   0.00057   0.00000   0.00948   0.00941  -0.23060
   Y20       -0.15699   0.00041   0.00000   0.00084   0.00018  -0.15681
   Z20        4.09918  -0.00023   0.00000   0.00239   0.00246   4.10164
   X21        1.22376  -0.00043   0.00000   0.00058   0.00081   1.22457
   Y21        0.75650  -0.00004   0.00000   0.01403   0.01318   0.76968
   Z21        3.39236   0.00024   0.00000   0.00247   0.00292   3.39528
   X22        2.75941  -0.00016   0.00000   0.00215   0.00225   2.76166
   Y22        1.84815   0.00004   0.00000   0.00225   0.00429   1.85244
   Z22       -3.00945   0.00028   0.00000   0.00779   0.00868  -3.00076
   X23        3.00739  -0.00028   0.00000   0.00009   0.00062   3.00801
   Y23        2.10417   0.00012   0.00000   0.01222   0.01206   2.11623
   Z23        0.84157   0.00028   0.00000   0.00657   0.00760   0.84916
   X24        4.84829   0.00022   0.00000   0.03026   0.02842   4.87671
   Y24       -3.57664  -0.00142   0.00000   0.00064   0.00070  -3.57594
   Z24       -0.84159  -0.00137   0.00000  -0.05058  -0.05282  -0.89441
   X25        2.91341   0.00026   0.00000   0.01979   0.01833   2.93174
   Y25       -2.52956  -0.00020   0.00000  -0.00535  -0.00433  -2.53390
   Z25       -1.25005  -0.00001   0.00000  -0.00722  -0.00873  -1.25878
   X26        5.53334  -0.00073   0.00000   0.02439   0.02218   5.55552
   Y26       -4.24697   0.00128   0.00000   0.07871   0.07938  -4.16758
   Z26       -2.40923   0.00110   0.00000  -0.08437  -0.08700  -2.49623
   X27        7.17600   0.00017   0.00000   0.00111   0.00084   7.17685
   Y27        0.12042   0.00038   0.00000  -0.00569  -0.00731   0.11310
   Z27        0.52017  -0.00038   0.00000   0.02906   0.02862   0.54879
   X28        5.41443  -0.00028   0.00000   0.00586   0.00604   5.42047
   Y28        1.23042   0.00010   0.00000  -0.00166  -0.00268   1.22774
   Z28        0.69969  -0.00055   0.00000   0.01594   0.01627   0.71596
   X29        6.14286   0.00024   0.00000   0.01213   0.01098   6.15384
   Y29       -1.98847   0.00022   0.00000  -0.00028  -0.00111  -1.98958
   Z29       -0.14199   0.00024   0.00000  -0.01420  -0.01569  -0.15768
   X30        7.88055   0.00033   0.00000  -0.02862  -0.02881   7.85174
   Y30        0.00686  -0.00063   0.00000  -0.04193  -0.04473  -0.03788
   Z30        2.20808   0.00055   0.00000   0.03998   0.03941   2.24748
         Item               Value     Threshold  Converged?
 Maximum Force            0.001632     0.000450     NO 
 RMS     Force            0.000590     0.000300     NO 
 Maximum Displacement     0.098671     0.001800     NO 
 RMS     Displacement     0.031568     0.001200     NO 
 Predicted change in Energy=-2.677390D-04
 GradGradGradGradGradGradGradGradGradGradGradGradGradGradGradGradGradGrad

                          Input orientation:                          
 ---------------------------------------------------------------------
 Center     Atomic      Atomic             Coordinates (Angstroms)
 Number     Number       Type             X           Y           Z
 ---------------------------------------------------------------------
      1          6           0       -1.035845   -0.197504    1.096258
      2          6           0       -0.473559    1.536626   -0.740440
      3          8           0        0.505550   -0.686274   -0.796625
      4          6           0        0.905633    0.890171   -0.641439
      5          6           0       -0.552131   -1.219809    0.054555
      6          6           0       -1.343150    1.196355    0.479360
      7          1           0       -1.131966    1.933154    1.265563
      8          1           0       -0.968086    1.118361   -1.629099
      9          1           0       -0.112729   -2.059005    0.610761
     10          1           0       -1.962784   -0.605721    1.516987
     11          6           0       -1.673756   -1.757369   -0.848927
     12          1           0       -1.222088   -2.297154   -1.696418
     13          1           0       -2.274694   -0.934654   -1.247636
     14          8           0       -2.579869   -2.576725   -0.116838
     15          1           0       -2.100173   -3.374794    0.161467
     16          8           0       -0.290029    2.935077   -0.895062
     17          1           0       -1.180285    3.314542   -0.980089
     18          8           0       -2.691235    1.334231    0.011650
     19          1           0       -3.283153    1.278817    0.779690
     20          8           0       -0.122027   -0.082979    2.170494
     21          1           0        0.648014    0.407299    1.796704
     22          1           0        1.461409    0.980271   -1.587936
     23          8           0        1.591772    1.119860    0.449358
     24          8           0        2.580643   -1.892305   -0.473303
     25          1           0        1.551409   -1.340881   -0.666115
     26          1           0        2.939856   -2.205390   -1.320948
     27          8           0        3.797823    0.059852    0.290409
     28          1           0        2.868390    0.649690    0.378869
     29          1           0        3.256472   -1.052842   -0.083441
     30          1           0        4.154962   -0.020044    1.189316
 ---------------------------------------------------------------------
                    Distance matrix (angstroms):
                    1          2          3          4          5
     1  C    0.000000
     2  C    2.587824   0.000000
     3  O    2.489539   2.429629   0.000000
     4  C    2.823467   1.526393   1.633808   0.000000
     5  C    1.537606   2.869865   1.458717   2.657348   0.000000
     6  C    1.554942   1.536192   2.930891   2.531198   2.577600
     7  H    2.139534   2.148205   3.714227   2.979309   3.426942
     8  H    3.027155   1.099644   2.474131   2.130344   2.911143
     9  H    2.133785   3.858044   2.060921   3.361949   1.098494
    10  H    1.096754   3.450133   3.384075   3.888999   2.122676
    11  C    2.573685   3.507512   2.428858   3.702129   1.537300
    12  H    3.498894   4.021450   2.527705   3.974823   2.162272
    13  H    2.751723   3.099767   2.827518   3.716441   2.178127
    14  O    3.084851   4.663162   3.681810   4.944016   2.445877
    15  H    3.478764   5.251795   3.864695   5.279152   2.655526
    16  O    3.786114   1.418893   3.709019   2.382346   4.270076
    17  H    4.082468   1.928179   4.345368   3.216101   4.693123
    18  O    2.502579   2.350466   3.867193   3.682550   3.331775
    19  H    2.707421   3.204852   4.549793   4.440335   3.771927
    20  O    1.414977   3.349662   3.092186   3.148027   2.440199
    21  H    1.921404   2.995064   2.818076   2.498815   2.668879
    22  H    3.850757   2.184463   2.077790   1.101300   3.404772
    23  O    3.009701   2.419691   2.448361   1.308962   3.197850
    24  O    4.291254   4.599683   2.421789   3.252092   3.247331
    25  H    3.332740   3.519384   1.240711   2.322763   2.226860
    26  H    5.067613   5.098145   2.916929   3.765939   3.880381
    27  O    4.907135   4.635538   3.546464   3.150005   4.540403
    28  H    4.058995   3.634300   2.957972   2.225146   3.911543
    29  H    4.532911   4.588042   2.865410   3.100501   3.814759
    30  H    5.194673   5.250751   4.207854   3.839049   4.988371
                    6          7          8          9         10
     6  C    0.000000
     7  H    1.097993   0.000000
     8  H    2.142978   3.011613   0.000000
     9  H    3.482610   4.171924   3.980486   0.000000
    10  H    2.169815   2.683162   3.722867   2.521108   0.000000
    11  C    3.255477   4.287723   3.062100   2.158351   2.647146
    12  H    4.117435   5.164975   3.425608   2.571083   3.706150
    13  H    2.896806   3.980744   2.463251   3.064621   2.801540
    14  O    4.015104   4.934214   4.305628   2.623779   2.633445
    15  H    4.644302   5.507337   4.967513   2.425510   3.086110
    16  O    2.453824   2.526066   2.073410   5.219176   4.599276
    17  H    2.577446   2.636952   2.299881   5.704865   4.713401
    18  O    1.433560   2.088619   2.389121   4.303682   2.561268
    19  H    1.964843   2.300399   3.344779   4.606645   2.416291
    20  O    2.446992   2.429746   4.073812   2.517446   2.022058
    21  H    2.514506   2.403887   3.854026   2.840396   2.814377
    22  H    3.490838   3.971906   2.433765   4.068092   4.886820
    23  O    2.936072   2.957429   3.297402   3.610617   4.092961
    24  O    5.083654   5.607251   4.795149   2.908133   5.124382
    25  H    4.015987   4.653084   3.650077   2.217086   4.201899
    26  H    5.758222   6.355889   5.139484   3.615412   5.886315
    27  O    5.268486   5.363115   5.245841   4.459214   5.927232
    28  H    4.248060   4.293758   4.355472   4.034584   5.119728
    29  H    5.150938   5.476712   4.995005   3.584103   5.477402
    30  H    5.675641   5.636701   5.956933   4.765004   6.154446
                   11         12         13         14         15
    11  C    0.000000
    12  H    1.101641   0.000000
    13  H    1.094054   1.779267   0.000000
    14  O    1.424198   2.101619   2.016987   0.000000
    15  H    1.954173   2.320361   2.823174   0.971842   0.000000
    16  O    4.892430   5.374676   4.363258   6.019050   6.648860
    17  H    5.097547   5.657385   4.396018   6.116458   6.848106
    18  O    3.366577   4.273505   2.628145   3.914650   4.748338
    19  H    3.802759   4.813176   3.166464   4.020394   4.841253
    20  O    3.785280   4.589740   4.128309   4.182301   4.334201
    21  H    4.132284   4.797213   4.428438   4.794296   4.952854
    22  H    4.227300   4.237268   4.212031   5.581064   5.891677
    23  O    4.541768   4.919161   4.695782   5.602491   5.823680
    24  O    4.273080   4.015057   5.009090   5.217891   4.950832
    25  H    3.257080   3.109384   3.891304   4.347007   4.260956
    26  H    4.659286   4.179854   5.367651   5.661726   5.382095
    27  O    5.876951   5.890880   6.342719   6.913200   6.826402
    28  H    5.285121   5.451854   5.622008   6.351299   6.397683
    29  H    5.038797   4.920113   5.653593   6.032099   5.843380
    30  H    6.414568   6.513475   6.936549   7.321243   7.171996
                   16         17         18         19         20
    16  O    0.000000
    17  H    0.971482   0.000000
    18  O    3.025000   2.681072   0.000000
    19  H    3.808777   3.415121   0.971249   0.000000
    20  O    4.305173   4.752812   3.642790   3.712349   0.000000
    21  H    3.809881   4.416482   3.898231   4.153063   0.986435
    22  H    2.714568   3.577267   4.464125   5.310899   4.214684
    23  O    2.940009   3.813692   4.310648   4.888689   2.710394
    24  O    5.632252   6.443032   6.199872   6.783075   4.191390
    25  H    4.661237   5.406819   5.061187   5.685609   3.525487
    26  H    6.085881   6.896477   6.783357   7.434933   5.105872
    27  O    5.136419   6.081836   6.618884   7.201770   4.349752
    28  H    4.101403   5.033882   5.613633   6.196607   3.562207
    29  H    5.398138   6.289899   6.409554   6.996308   4.175538
    30  H    5.730211   6.655121   7.077526   7.561771   4.388542
                   21         22         23         24         25
    21  H    0.000000
    22  H    3.527846   0.000000
    23  O    1.792697   2.046227   0.000000
    24  O    3.765125   3.278229   3.301864   0.000000
    25  H    3.152418   2.499119   2.702065   1.183456   0.000000
    26  H    4.668881   3.522148   4.001075   0.972398   1.761808
    27  O    3.508695   3.135950   2.452660   2.423984   2.814847
    28  H    2.645577   2.440738   1.362271   2.696430   2.605533
    29  H    3.531432   3.101500   2.788501   1.146052   1.824751
    30  H    3.584721   3.996121   2.901183   2.957726   3.459151
                   26         27         28         29         30
    26  H    0.000000
    27  O    2.909278   0.000000
    28  H    3.323547   1.104346   0.000000
    29  H    1.720476   1.292637   1.806364   0.000000
    30  H    3.543112   0.970549   1.661516   1.869189   0.000000
 Stoichiometry    C6H16O8
 Framework group  C1[X(C6H16O8)]
 Deg. of freedom    84
 Full point group                 C1      NOp   1
 Largest Abelian subgroup         C1      NOp   1
 Largest concise Abelian subgroup C1      NOp   1
                         Standard orientation:                         
 ---------------------------------------------------------------------
 Center     Atomic      Atomic             Coordinates (Angstroms)
 Number     Number       Type             X           Y           Z
 ---------------------------------------------------------------------
      1          6           0        1.034646    0.203114    1.096171
      2          6           0        0.481020   -1.531762   -0.742453
      3          8           0       -0.509847    0.685995   -0.795698
      4          6           0       -0.901544   -0.892729   -0.642294
      5          6           0        0.545239    1.224095    0.055830
      6          6           0        1.349144   -1.188360    0.477514
      7          1           0        1.142081   -1.927208    1.262891
      8          1           0        0.973077   -1.109822   -1.630746
      9          1           0        0.101561    2.060288    0.613165
     10          1           0        1.959533    0.615722    1.517133
     11          6           0        1.663749    1.768662   -0.847316
     12          1           0        1.208993    2.307067   -1.694034
     13          1           0        2.268917    0.949615   -1.247179
     14          8           0        2.565723    2.591920   -0.114494
     15          1           0        2.081892    3.387107    0.164901
     16          8           0        0.304844   -2.930978   -0.898703
     17          1           0        1.197070   -3.305626   -0.984431
     18          8           0        2.697807   -1.318543    0.009266
     19          1           0        3.289640   -1.260920    0.777209
     20          8           0        0.121751    0.082469    2.170521
     21          1           0       -0.645793   -0.411426    1.796356
     22          1           0       -1.457103   -0.984632   -1.588745
     23          8           0       -1.586150   -1.127351    0.448416
     24          8           0       -2.591198    1.880646   -0.470355
     25          1           0       -1.559116    1.334904   -0.664113
     26          1           0       -2.952301    2.192843   -1.317524
     27          8           0       -3.797821   -0.078836    0.291349
     28          1           0       -2.865257   -0.663855    0.378844
     29          1           0       -3.262468    1.037153   -0.081314
     30          1           0       -4.155123   -0.001907    1.190451
 ---------------------------------------------------------------------
 Rotational constants (GHZ):      0.7389957      0.5396767      0.3926860
 Standard basis: 6-31G(d) (6D, 7F)
 There are   242 symmetry adapted cartesian basis functions of A   symmetry.
 There are   242 symmetry adapted basis functions of A   symmetry.
   242 basis functions,   456 primitive gaussians,   242 cartesian basis functions
    58 alpha electrons       58 beta electrons
       nuclear repulsion energy      1122.7118285491 Hartrees.
 NAtoms=   30 NActive=   30 NUniq=   30 SFac= 1.00D+00 NAtFMM=   60 NAOKFM=F Big=F
 Integral buffers will be    131072 words long.
 Raffenetti 2 integral format.
 Two-electron integral symmetry is turned on.
 One-electron integrals computed using PRISM.
 NBasis=   242 RedAO= T EigKep=  1.13D-03  NBF=   242
 NBsUse=   242 1.00D-06 EigRej= -1.00D+00 NBFU=   242
 Initial guess from the checkpoint file:  "/scratch/10454741.yak.local/Gau-8341.chk"
 B after Tr=     0.000000   -0.000000    0.000000
         Rot=    0.999997   -0.000103   -0.000042   -0.002272 Ang=  -0.26 deg.
 ExpMin= 1.61D-01 ExpMax= 5.48D+03 ExpMxC= 8.25D+02 IAcc=1 IRadAn=         1 AccDes= 0.00D+00
 Harris functional with IExCor=  402 and IRadAn=       1 diagonalized for initial guess.
 HarFok:  IExCor=  402 AccDes= 0.00D+00 IRadAn=         1 IDoV= 1 UseB2=F ITyADJ=14
 ICtDFT=  3500011 ScaDFX=  1.000000  1.000000  1.000000  1.000000
 FoFCou: FMM=F IPFlag=           0 FMFlag=      100000 FMFlg1=           0
         NFxFlg=           0 DoJE=T BraDBF=F KetDBF=T FulRan=T
         wScrn=  0.000000 ICntrl=     500 IOpCl=  0 I1Cent=   200000004 NGrid=           0
         NMat0=    1 NMatS0=      1 NMatT0=    0 NMatD0=    1 NMtDS0=    0 NMtDT0=    0
 Petite list used in FoFCou.
 Requested convergence on RMS density matrix=1.00D-08 within 128 cycles.
 Requested convergence on MAX density matrix=1.00D-06.
 Requested convergence on             energy=1.00D-06.
 No special actions if energy rises.
 Integral accuracy reduced to 1.0D-05 until final iterations.
 Initial convergence to 1.0D-05 achieved.  Increase integral accuracy.
 SCF Done:  E(RB3LYP) =  -839.961184760     A.U. after   11 cycles
            NFock= 11  Conv=0.33D-08     -V/T= 2.0086
 Calling FoFJK, ICntrl=      2127 FMM=F ISym2X=0 I1Cent= 0 IOpClX= 0 NMat=1 NMatS=1 NMatT=0.
 ***** Axes restored to original set *****
 -------------------------------------------------------------------
 Center     Atomic                   Forces (Hartrees/Bohr)
 Number     Number              X              Y              Z
 -------------------------------------------------------------------
      1        6          -0.000036621   -0.000053762   -0.000021230
      2        6          -0.000026806    0.000217651    0.000190759
      3        8           0.000268969   -0.000023290    0.000053323
      4        6           0.000134273   -0.000077263   -0.000055394
      5        6          -0.000041932    0.000073039    0.000050588
      6        6          -0.000281566    0.000139354    0.000236213
      7        1           0.000143434   -0.000290875   -0.000212446
      8        1          -0.000022454   -0.000125429   -0.000105039
      9        1           0.000039638   -0.000020357    0.000049424
     10        1           0.000003419    0.000018413   -0.000005185
     11        6          -0.000560088   -0.000198831   -0.000328975
     12        1          -0.000424591    0.000270442    0.000629504
     13        1           0.000627892   -0.000886307    0.000244475
     14        8           0.000969434   -0.000116540   -0.000319239
     15        1          -0.000655774    0.001320971   -0.000273565
     16        8          -0.000692107    0.000041701   -0.000001950
     17        1           0.000472534   -0.000258298   -0.000059544
     18        8          -0.000515383   -0.000005327    0.000634327
     19        1           0.000647735   -0.000162398   -0.000693456
     20        8           0.000236878    0.000169499   -0.000102346
     21        1          -0.000188478   -0.000021861    0.000097037
     22        1          -0.000056837    0.000013752    0.000108561
     23        8          -0.000119199    0.000043865    0.000088138
     24        8           0.000454699   -0.000756383   -0.001313623
     25        1           0.000121113   -0.000112559   -0.000030614
     26        1          -0.000624756    0.000904784    0.001195431
     27        8           0.000133281    0.000066600    0.000134086
     28        1          -0.000088210    0.000024680   -0.000179358
     29        1           0.000097089    0.000033733    0.000058077
     30        1          -0.000015584   -0.000229007   -0.000067979
 -------------------------------------------------------------------
 Cartesian Forces:  Max     0.001320971 RMS     0.000395335

 GradGradGradGradGradGradGradGradGradGradGradGradGradGradGradGradGradGrad
 Berny optimization.
 Search for a saddle point.
 Step number   2 out of a maximum of  180
 All quantities printed in internal units (Hartrees-Bohrs-Radians)
 Swapping is turned off.
 Update second derivatives using D2CorN and points    1    2
 ITU=  0  0
     Eigenvalues ---   -0.07822   0.00041   0.00061   0.00143   0.00149
     Eigenvalues ---    0.00231   0.00343   0.00450   0.00588   0.00705
     Eigenvalues ---    0.00792   0.00891   0.01072   0.01287   0.01546
     Eigenvalues ---    0.01655   0.01718   0.02041   0.02178   0.02356
     Eigenvalues ---    0.02624   0.02779   0.03244   0.03682   0.04233
     Eigenvalues ---    0.04512   0.04695   0.04951   0.05165   0.05403
     Eigenvalues ---    0.05713   0.06178   0.06375   0.07105   0.07191
     Eigenvalues ---    0.07287   0.07800   0.08737   0.09071   0.09730
     Eigenvalues ---    0.10474   0.10807   0.11565   0.12516   0.13090
     Eigenvalues ---    0.13963   0.15183   0.15757   0.17139   0.18049
     Eigenvalues ---    0.18603   0.19971   0.21378   0.21660   0.22370
     Eigenvalues ---    0.25330   0.25776   0.28767   0.30532   0.31105
     Eigenvalues ---    0.36475   0.38385   0.44114   0.48159   0.53278
     Eigenvalues ---    0.56929   0.62578   0.63363   0.65336   0.65818
     Eigenvalues ---    0.73390   0.76662   0.81129   0.82423   0.86986
     Eigenvalues ---    0.88601   0.91293   0.93831   0.97001   1.01438
     Eigenvalues ---    1.03853   1.04726   1.05343   1.06390
 Eigenvectors required to have negative eigenvalues:
                          X25       Y29       X28       Y25       X29
   1                    0.50016   0.43619  -0.42080  -0.26921   0.22361
                          Y4        Z29       Y3        Y27       X23
   1                   -0.21484   0.21381   0.21063  -0.16016   0.13366
 RFO step:  Lambda0=2.797330928D-07 Lambda=-1.97262732D-04.
 Linear search not attempted -- option 19 set.
 Maximum step size (   0.300) exceeded in Quadratic search.
    -- Step size scaled by   0.906
 B after Tr=     0.000115    0.001613    0.000338
         Rot=    1.000000   -0.000155   -0.000110    0.000190 Ang=  -0.03 deg.
 Variable       Old X    -DE/DX   Delta X   Delta X   Delta X     New X
                                 (Linear)    (Quad)   (Total)
    X1       -1.95746  -0.00004   0.00000   0.00826   0.00869  -1.94877
    Y1       -0.37323  -0.00005   0.00000  -0.00493  -0.00322  -0.37645
    Z1        2.07163  -0.00002   0.00000   0.00531   0.00596   2.07759
    X2       -0.89490  -0.00003   0.00000  -0.00367  -0.00276  -0.89766
    Y2        2.90380   0.00022   0.00000  -0.00991  -0.00752   2.89628
    Z2       -1.39923   0.00019   0.00000  -0.00089   0.00054  -1.39869
    X3        0.95535   0.00027   0.00000   0.01121   0.01051   0.96586
    Y3       -1.29687  -0.00002   0.00000  -0.00280  -0.00109  -1.29796
    Z3       -1.50540   0.00005   0.00000   0.00840   0.00812  -1.49728
    X4        1.71140   0.00013   0.00000   0.00260   0.00309   1.71449
    Y4        1.68218  -0.00008   0.00000   0.00232   0.00366   1.68584
    Z4       -1.21214  -0.00006   0.00000   0.00529   0.00577  -1.20637
    X5       -1.04338  -0.00004   0.00000   0.01266   0.01192  -1.03146
    Y5       -2.30511   0.00007   0.00000  -0.00433  -0.00236  -2.30746
    Z5        0.10309   0.00005   0.00000   0.00763   0.00748   0.11057
    X6       -2.53819  -0.00028   0.00000  -0.00436  -0.00319  -2.54138
    Y6        2.26078   0.00014   0.00000  -0.01204  -0.00975   2.25104
    Z6        0.90586   0.00024   0.00000  -0.00181  -0.00022   0.90564
    X7       -2.13911   0.00014   0.00000  -0.01214  -0.01011  -2.14922
    Y7        3.65313  -0.00029   0.00000  -0.00646  -0.00477   3.64837
    Z7        2.39157  -0.00021   0.00000  -0.00581  -0.00387   2.38770
    X8       -1.82942  -0.00002   0.00000   0.00441   0.00464  -1.82478
    Y8        2.11340  -0.00013   0.00000  -0.02080  -0.01754   2.09585
    Z8       -3.07855  -0.00011   0.00000  -0.00059   0.00080  -3.07776
    X9       -0.21303   0.00004   0.00000   0.01182   0.01071  -0.20231
    Y9       -3.89096  -0.00002   0.00000  -0.00467  -0.00334  -3.89430
    Z9        1.15417   0.00005   0.00000   0.00862   0.00779   1.16197
   X10       -3.70912   0.00000   0.00000   0.01228   0.01259  -3.69653
   Y10       -1.14465   0.00002   0.00000  -0.01005  -0.00792  -1.15257
   Z10        2.86669  -0.00001   0.00000   0.00873   0.00953   2.87622
   X11       -3.16294  -0.00056   0.00000   0.01468   0.01318  -3.14976
   Y11       -3.32095  -0.00020   0.00000   0.00150   0.00481  -3.31614
   Z11       -1.60424  -0.00033   0.00000   0.00246   0.00246  -1.60178
[...]
 51759,-0.00029092,-0.00001466,-0.00003088,0.00103273,0.00114909,0.0004
 5496,0.00009676,-0.00031716,-0.00023166,0.00042714,-0.00068922,0.00000
 909,-0.00002816,0.00003830,-0.00004420,0.00077312,0.00006490,-0.000023
 73,-0.00007692,0.00002741,-0.00005076,0.00055826,0.00077215,-0.0005020
 7,-0.00096833,-0.00070073,0.00113976,-0.00008200,-0.00009697,-0.000021
 96,0.00659822,-0.00214711,0.00013613,-0.02968483,0.20332273,-0.0015146
 8,-0.00087997,-0.00038075,0.00074895,0.00028819,0.00035028,-0.00556620
 ,0.00622252,0.01451508,-0.00411493,-0.00528749,-0.00578222,-0.00072063
 ,0.00334977,-0.00107925,0.00005664,-0.00016666,-0.00006864,-0.00003865
 ,0.00008804,0.00005818,0.00028750,-0.00007838,0.00011796,-0.00057310,-
 0.00059783,0.00007162,-0.00008392,0.00024400,0.00031380,0.00037384,-0.
 00021305,-0.00002422,0.00007581,0.00018830,0.00023350,0.00005141,0.000
 08677,0.00004586,-0.00044823,-0.00020218,0.00030360,0.00003315,0.00002
 493,-0.00014850,-0.00027654,0.00044817,0.00009232,0.00001580,0.0000606
 5,-0.00002121,0.00001948,0.00008762,0.00012210,0.00000236,-0.00005240,
 -0.00001702,0.00110871,-0.00001207,0.00051738,-0.00056220,0.00018810,-
 0.00000181,-0.00024611,-0.00017076,0.00073569,0.00721271,-0.00104086,0
 .00432588,-0.12023877,0.14675792,0.49729825,0.00359727,0.00292410,0.00
 144407,-0.00522589,-0.00293722,0.00020357,-0.01036879,-0.03364766,0.00
 018711,0.03067411,0.03282934,0.01145727,-0.01983033,-0.01193056,0.0123
 4372,-0.00223577,0.00138513,0.00029392,0.00022826,-0.00045508,-0.00011
 970,-0.00107479,-0.00012568,-0.00051380,0.00171623,0.00286975,-0.00211
 204,0.00075419,-0.00091753,-0.00141917,-0.00190956,-0.00154757,-0.0021
 9257,-0.00024828,-0.00006004,0.00014860,-0.00013377,0.00000770,-0.0000
 1242,0.00324019,0.00270933,0.00000250,-0.00041411,-0.00088025,-0.00016
 018,0.00276448,-0.00448054,0.00015520,-0.00007574,-0.00050742,-0.00021
 965,0.00141545,-0.00067467,0.00004406,-0.00033670,0.00039204,-0.000049
 47,-0.00170126,-0.00060717,-0.00233293,0.00075716,0.00016656,0.0013537
 4,-0.00027293,-0.00230390,0.00139849,-0.01983717,-0.00184074,-0.012613
 52,-0.01889613,0.00669041,0.00493846,0.04777031,-0.00271695,-0.0028082
 5,-0.00013168,0.00039947,-0.00156000,0.00026134,-0.01797895,-0.0276683
 1,0.00659327,0.00255851,-0.02384720,-0.00279431,-0.00038905,0.01549415
 ,-0.01079211,0.00109917,-0.00075429,-0.00043586,-0.00011762,0.00016149
 ,0.00011557,0.00036942,0.00020900,0.00035366,-0.00215995,-0.00207779,0
 .00331640,-0.00052761,0.00080865,0.00107613,-0.00001142,0.00065261,0.0
 0399909,-0.00001661,-0.00033538,-0.00065815,0.00046550,0.00009981,-0.0
 0001583,-0.00251453,-0.00230878,-0.00054218,0.00003854,0.00052927,0.00
 021584,-0.00028431,0.00181537,-0.00001481,-0.00000265,-0.00011266,0.00
 005425,-0.00089960,0.00039471,0.00000013,0.00019082,-0.00022439,0.0000
 3400,0.00059758,0.00007099,0.00134487,0.00013485,0.00010462,-0.0012732
 9,-0.00018495,0.00099270,0.00008364,0.00786908,0.00368031,0.00550383,-
 0.00219017,-0.04598778,-0.01163360,0.02811186,0.06732793,0.00357153,0.
 00181121,-0.00072415,-0.00065580,-0.00039649,-0.00019431,-0.00857857,0
 .01224816,-0.02848700,0.00433356,0.00013523,0.00381706,0.01109363,-0.0
 1006793,-0.00039588,-0.00020651,0.00035193,0.00016281,0.00000762,-0.00
 001415,-0.00002724,0.00001826,0.00015239,0.00012456,0.00112538,0.00081
 687,-0.00032261,0.00024899,-0.00059310,-0.00072943,-0.00049208,0.00046
 822,-0.00015895,-0.00017415,-0.00030636,-0.00022760,-0.00008028,-0.000
 13979,-0.00009032,0.00030300,0.00011561,-0.00027216,0.00007693,0.00001
 945,0.00012685,0.00030366,-0.00007797,0.00005495,-0.00001386,-0.000081
 19,0.00001603,-0.00005974,-0.00002171,-0.00007070,-0.00000832,0.000045
 00,-0.00000825,-0.00143269,0.00038456,-0.00021722,0.00042124,-0.000632
 84,-0.00029497,0.00019653,0.00063454,-0.00067702,-0.00190395,0.0012605
 6,-0.00304435,-0.02422885,0.00092471,-0.05491847,-0.00295317,0.0013558
 9,0.08082058,0.00013626,0.00008858,0.00006578,0.00001132,0.00016907,-0
 .00005248,-0.00487034,0.00253472,-0.00360950,-0.00002956,0.00022627,0.
 00041776,0.00052439,0.00005795,-0.00041893,-0.00001263,0.00000764,0.00
 000539,0.00000330,-0.00001453,-0.00001232,-0.00000793,0.00000749,-0.00
 000437,0.00032713,-0.00004632,0.00007163,0.00002140,-0.00001911,-0.000
 01236,-0.00026386,0.00011538,0.00039655,-0.00002141,-0.00011562,-0.000
 17692,0.00001959,-0.00004089,-0.00003332,0.00014615,0.00000197,-0.0002
 2394,-0.00004681,-0.00000220,0.00008571,-0.00001213,-0.00009570,0.0000
 0782,0.00000019,0.00003180,0.00000332,0.00004986,-0.00006501,-0.000019
 95,-0.00001409,0.00002700,0.00000377,-0.00007220,-0.00002402,-0.000115
 75,-0.00002081,-0.00002105,0.00004392,0.00009711,0.00012136,-0.0001208
 3,-0.00014607,-0.00004973,-0.00030683,-0.10666782,0.03956799,0.1474239
 1,0.00048293,0.00034864,0.02615554,0.10020184,-0.00012386,-0.00006662,
 0.00002278,0.00002390,-0.00020775,0.00026546,0.00095891,-0.00089165,0.
 00191313,0.00045378,0.00017166,-0.00117842,0.00034626,0.00039036,-0.00
 011359,0.00011455,0.00005638,-0.00007671,-0.00001715,0.00000041,0.0000
 1187,-0.00000208,0.00000885,-0.00002048,0.00007900,0.00005624,-0.00005
 408,-0.00005830,0.00004645,0.00006247,0.00007279,0.00027582,0.00021935
 ,-0.00000855,-0.00002664,-0.00010290,0.00000566,-0.00003551,-0.0000351
 6,-0.00017306,-0.00021138,-0.00007163,0.00000904,0.00009480,0.00007602
 ,-0.00007539,0.00011670,0.00001096,0.00000686,-0.00001931,-0.00000165,
 -0.00020778,-0.00001568,0.00001973,0.00001341,-0.00000752,0.00000825,-
 0.00015174,-0.00006515,0.00010302,0.00016215,0.00006065,-0.00020847,-0
 .00010091,-0.00026244,0.00043344,-0.00027906,-0.00010715,0.00056763,0.
 02877055,-0.04084403,-0.08796386,0.00267986,-0.00306018,-0.01150605,-0
 .04174457,0.04862334,-0.00003932,-0.00007199,-0.00003179,0.00010957,-0
 .00000277,0.00000736,-0.00465913,0.00266611,-0.00108524,-0.00023729,-0
 .00079778,0.00043506,0.00036914,0.00033952,-0.00032958,0.00007609,-0.0
 0004403,0.00001761,-0.00000296,0.00001214,-0.00000807,-0.00002290,0.00
 001843,-0.00000700,0.00005871,-0.00004105,-0.00001959,-0.00002504,0.00
 002906,0.00003556,0.00001013,0.00007371,0.00020930,0.00001745,-0.00004
 300,-0.00001880,-0.00001920,0.00000399,0.00000068,-0.00008762,-0.00007
 792,-0.00008930,0.00003396,0.00002872,0.00002627,-0.00004797,0.0001163
 8,-0.00005624,-0.00000434,0.00000617,0.00002631,-0.00006918,0.00002737
 ,-0.00002808,0.00001626,-0.00001395,0.00000439,-0.00003660,0.00002756,
 0.00002291,0.00003201,-0.00001752,-0.00004961,0.00006390,0.00007680,-0
 .00007971,-0.00028151,0.00029077,-0.00012861,0.14935278,-0.11680876,-0
 .41193108,0.00511075,-0.00091167,0.00570144,-0.15485371,0.11514768,0.4
 1681726,0.00073808,0.00054511,0.00018923,-0.00131797,-0.00343892,-0.00
 317810,-0.00295914,-0.00768350,-0.00149228,0.00539000,0.01372652,0.022
 52529,0.00206960,0.00099155,-0.00172770,0.00170691,0.00021691,-0.00051
 821,-0.00004936,-0.00009942,-0.00005734,-0.00149291,0.00070828,-0.0004
 8106,-0.00026396,-0.00031281,0.00022286,-0.00028260,-0.00003151,0.0001
 4027,0.00064424,0.00053225,0.00036216,0.00001295,-0.00008464,-0.000042
 92,0.00003066,0.00003263,0.00004803,-0.00107533,-0.00086978,0.00002281
 ,0.00022789,0.00030815,0.00003247,-0.00007475,0.00119721,-0.00013715,0
 .00002630,-0.00032316,0.00003336,-0.00147369,0.00011962,0.00004552,0.0
 0013009,-0.00014876,0.00008275,-0.00193823,-0.00157437,0.00195540,0.00
 212705,0.00193855,-0.00393991,0.00046587,-0.00027202,-0.00311077,-0.06
 780459,0.02803685,-0.01224565,-0.00103805,-0.03056405,-0.01653534,-0.0
 0117403,0.00175335,0.00093740,-0.00465002,-0.00301455,-0.00084995,0.27
 292982,-0.00094986,-0.00110237,-0.00079324,0.00129657,0.00159470,0.002
 63133,-0.00833349,0.01608240,0.00172259,-0.00668359,-0.01700351,-0.019
 55719,0.00045851,0.00062270,0.00003428,-0.00100046,-0.00060712,0.00056
 011,-0.00004312,0.00028425,0.00008651,0.00134939,-0.00043548,0.0005460
 0,0.00055279,0.00039316,-0.00051223,0.00005502,0.00021412,0.00010161,0
 .00016195,-0.00005517,-0.00029583,0.00005210,0.00017361,0.00026243,-0.
 00018607,-0.00004426,-0.00009390,-0.00003630,0.00021484,0.00022329,0.0
 0010361,-0.00006650,-0.00011027,0.00006823,0.00031306,0.00006836,-0.00
 001216,0.00015956,0.00001514,0.00077760,0.00041560,-0.00008519,0.00001
 819,-0.00009850,-0.00007921,0.00159827,0.00243324,-0.00090260,-0.00149
 161,-0.00277796,0.00263863,-0.00061306,0.00047512,0.00233948,0.0538563
 1,-0.00317436,0.01354009,-0.05251476,-0.04288736,-0.04063170,0.0230637
 3,-0.01606754,-0.00002425,-0.00552494,-0.00355562,0.00057242,-0.082180
 93,0.16886838,-0.00056103,-0.00031913,-0.00068114,0.00057958,0.0007120
 6,0.00095766,-0.00356761,0.00471865,0.00098848,0.00155048,-0.00537520,
 -0.00397026,0.00049774,0.00061427,-0.00046018,-0.00010970,-0.00004384,
 0.00010839,-0.00000345,0.00008821,0.00000541,0.00042562,-0.00011639,0.
 00010266,0.00010739,-0.00008054,-0.00015699,0.00002651,0.00007737,0.00
 011237,0.00013970,-0.00002525,-0.00004372,0.00002876,0.00008703,0.0001
 2399,-0.00002507,-0.00000167,-0.00000701,-0.00017321,-0.00003901,0.000
 15711,0.00004297,-0.00000437,-0.00007661,-0.00017228,0.00014857,0.0001
 0090,-0.00000522,0.00003381,-0.00003643,0.00014741,0.00003999,0.000074
 16,-0.00001000,-0.00002739,-0.00003747,0.00068934,-0.00003259,0.000721
 03,-0.00114911,0.00035556,-0.00034846,0.00057329,-0.00012662,0.0009592
 2,0.00248695,0.00104853,0.01793065,-0.02722607,-0.03295559,-0.00616770
 ,0.00862790,-0.00514048,-0.00060635,-0.00009158,0.00107097,0.00135996,
 0.15565573,-0.02258024,0.51586517,-0.00142572,-0.00127671,-0.00056830,
 0.00309482,0.00494464,0.00410265,-0.00124733,0.02095139,0.00334889,-0.
 02303160,-0.02441152,-0.04038287,-0.00263974,-0.00084863,0.00246182,-0
 .00253046,-0.00069801,0.00105955,0.00004518,0.00028750,0.00008897,0.00
 244989,-0.00101141,0.00090325,0.00078032,0.00069522,-0.00064100,0.0003
 8014,0.00013883,-0.00013872,-0.00067344,-0.00060552,-0.00075472,0.0000
 0777,0.00019791,0.00020789,-0.00015420,-0.00006938,-0.00010838,0.00136
 193,0.00120083,0.00011487,-0.00020797,-0.00041807,-0.00009958,0.000083
 55,-0.00134301,0.00023678,-0.00002511,0.00048930,-0.00000585,0.0022669
 9,0.00006414,-0.00018373,-0.00010301,0.00014033,-0.00014297,0.00350184
 ,0.00340830,-0.00331249,-0.00395319,-0.00427853,0.00729820,0.00055911,
 0.00046851,0.00623880,0.03010069,-0.00638307,0.01897869,-0.02493020,-0
 .01110709,-0.01050550,0.01880531,-0.01165289,-0.00022015,0.00013790,0.
 00030330,0.00056450,-0.09486762,0.02326984,-0.01216480,0.06726322,0.00
 068035,0.00087983,0.00021563,-0.00042816,-0.00056394,-0.00289853,0.001
 64680,-0.00999860,-0.00135353,0.00171341,0.01350127,0.01853134,0.00032
 706,0.00002976,-0.00062995,0.00130017,0.00039081,-0.00047830,0.0000101
 0,-0.00018609,-0.00004340,-0.00116408,0.00044010,-0.00052610,-0.000385
 79,-0.00042213,0.00027243,-0.00008653,-0.00013131,0.00004073,0.0001778
 5,0.00014928,0.00024880,-0.00001738,-0.00009363,-0.00010589,0.00012343
 ,0.00005009,0.00008361,-0.00037471,-0.00040467,-0.00005577,0.00002884,
 0.00012766,0.00003998,-0.00057327,0.00054531,-0.00014187,-0.00000970,-
 0.00008922,-0.00001021,-0.00087883,-0.00023323,0.00007748,0.00003193,0
 .00000406,0.00005765,-0.00146699,-0.00263445,0.00202953,0.00080808,0.0
 0332561,-0.00373531,0.00050553,-0.00112051,-0.00350908,-0.02260517,-0.
 02090813,-0.01212827,0.00863422,0.00606457,0.00511424,-0.01150357,0.00
 412550,-0.00158579,0.00043452,0.00018352,-0.00026954,0.04029412,-0.055
 91630,-0.00510379,-0.02114187,0.08851168,-0.00000365,-0.00005061,0.000
 28184,-0.00061118,-0.00140028,-0.00211905,0.00043581,-0.00061915,-0.00
 060217,-0.01781492,0.00632933,-0.00009813,-0.00013893,-0.00023995,0.00
 023644,-0.00003677,-0.00016305,-0.00011589,-0.00002388,0.00002688,0.00
 006859,-0.00059704,0.00023467,0.00002696,0.00003903,0.00009777,-0.0000
 2899,-0.00002551,-0.00002201,-0.00006708,-0.00003981,0.00002001,-0.000
 05534,-0.00000308,-0.00002246,-0.00001513,-0.00000715,-0.00000125,-0.0
 0000074,0.00007422,0.00003551,-0.00003651,-0.00000233,-0.00000336,0.00
 002012,0.00026468,0.00002827,0.00001597,0.00004359,0.00000272,0.000024
 06,0.00001633,0.00006370,-0.00000543,-0.00000009,0.00000066,0.00003591
 ,0.00007619,0.00099484,-0.00120345,0.00132651,-0.00144825,0.00154006,-
 0.00091307,0.00029916,-0.00067452,0.01527752,-0.00774066,-0.03257108,-
 0.00140574,0.00011534,-0.00117203,-0.00086138,-0.00095073,0.00031223,0
 .00011450,-0.00039563,0.00006697,0.02296767,-0.03019879,-0.06342453,0.
 00560262,0.01558429,0.09482529,0.00051038,0.00070357,0.00069354,-0.000
 59097,0.00002126,-0.00074691,0.00812287,-0.00744879,-0.00014744,0.0028
 3530,0.00948179,0.00554471,-0.00161099,-0.00130379,0.00109930,-0.00006
 313,0.00034692,-0.00017845,0.00005589,-0.00018870,-0.00005167,-0.00044
 570,0.00005838,-0.00022337,-0.00022652,-0.00014670,0.00019232,0.000099
 07,-0.00018309,-0.00019642,-0.00045288,-0.00025784,-0.00001339,-0.0000
 5428,-0.00009867,-0.00017911,0.00011602,0.00002017,0.00004698,0.000649
 75,0.00034929,-0.00020602,-0.00018911,-0.00011831,0.00007945,0.0001313
 5,-0.00083264,0.00001670,-0.00000575,-0.00000079,-0.00002548,0.0001210
 7,-0.00034611,0.00001566,-0.00007567,0.00013892,0.00002586,-0.00041728
 ,-0.00099252,-0.00051903,0.00050100,0.00097071,-0.00000040,0.00035187,
 -0.00015698,-0.00060776,-0.01417987,-0.00082265,-0.00491132,-0.0604466
 7,-0.02025691,-0.00168524,-0.02838689,-0.00239700,-0.00746294,0.014345
 54,0.01216540,0.00532528,-0.03379738,0.02302361,0.00154408,0.02991290,
 0.00314133,0.00665245,0.08647487,0.00123347,0.00109862,0.00130467,-0.0
 0113827,-0.00092606,-0.00053524,0.01431634,-0.01942109,-0.00214322,0.0
 1074693,0.01392690,0.01147369,-0.00152524,-0.00160507,0.00095163,0.000
 21107,0.00059982,-0.00046253,0.00006198,-0.00030447,-0.00006866,-0.000
 81990,0.00015266,-0.00038869,-0.00062595,-0.00017122,0.00061402,0.0000
 1912,-0.00024898,-0.00026159,-0.00051955,-0.00012730,0.00023207,-0.000
 08169,-0.00020925,-0.00035907,0.00018365,0.00002257,0.00006081,0.00056
 136,0.00014785,-0.00036264,-0.00022370,-0.00004276,0.00015925,0.000191
 01,-0.00096102,-0.00006355,-0.00000826,-0.00011890,-0.00002767,-0.0003
 3840,-0.00044981,0.00003099,-0.00006836,0.00015973,0.00005194,-0.00158
 554,-0.00159523,-0.00042326,0.00173843,0.00136463,-0.00099676,0.000305
 65,-0.00052696,-0.00047135,-0.02154645,0.00285292,-0.00778686,0.002433
 15,-0.06098330,-0.01402940,-0.02980259,0.03028475,0.00482543,0.0039321
 2,-0.00109017,-0.00046612,0.00672936,-0.00690284,0.01571546,0.02856113
 ,-0.02690649,-0.00263423,-0.01393993,0.05788389,0.00101602,0.00065335,
 0.00103176,-0.00063633,-0.00028633,-0.00064567,0.00805544,-0.00944568,
 -0.00148245,0.00447734,0.00819328,0.00785630,-0.00106266,-0.00133865,0
 .00103881,0.00010745,0.00018239,-0.00013768,0.00004586,-0.00017504,-0.
 00005838,-0.00046719,0.00008096,-0.00021780,-0.00026680,0.00010511,0.0
 0035981,0.00000984,-0.00015071,-0.00019483,-0.00034388,-0.00002768,0.0
 0002522,-0.00006223,-0.00013745,-0.00022109,0.00006346,-0.00000012,0.0
 0001035,0.00043542,0.00017203,-0.00025208,-0.00011985,-0.00003817,0.00
 011974,0.00016378,-0.00056300,-0.00010247,-0.00001110,-0.00005136,0.00
 001123,-0.00010217,-0.00017918,-0.00009205,-0.00001159,0.00007960,0.00
 003094,-0.00124761,-0.00047373,-0.00057350,0.00103683,0.00019852,-0.00
 020675,0.00029961,-0.00011658,-0.00096265,-0.01208628,0.00144480,-0.00
 585184,0.02634950,-0.00028579,-0.03902762,-0.02155308,0.01065497,0.000
 37355,-0.01482800,-0.01842843,-0.01096083,0.00084573,0.03971717,-0.021
 68224,0.01909677,-0.01130280,0.00200235,-0.00244652,-0.00380436,0.0768
 3614,-0.00028522,-0.00003738,-0.00033314,0.00003270,0.00035206,-0.0000
 5952,0.00042385,0.00025792,0.00020920,0.00023147,-0.00066180,-0.000149
 63,-0.00024069,0.00000152,0.00008972,-0.00012566,0.00006273,0.00004843
 ,0.00001371,0.00000467,-0.00001104,0.00004665,-0.00002399,0.00000864,-
 0.00000637,-0.00006660,-0.00001958,0.00007831,-0.00000331,0.00002169,-
 0.00012243,-0.00012422,-0.00002636,0.00000617,0.00002533,0.00002494,0.
 00002153,0.00000481,0.00000852,0.00015620,0.00013120,0.00002554,-0.000
 05122,-0.00006048,-0.00002346,0.00000311,-0.00022003,0.00007114,0.0000
 0406,0.00004547,-0.00002753,0.00023184,-0.00010329,0.00005785,-0.00004
 387,0.00004010,-0.00001097,0.00058606,-0.00022928,0.00030895,-0.000789
 43,0.00042599,-0.00019019,0.00021871,-0.00003871,0.00005836,-0.0029695
 0,0.00119996,0.00419387,-0.00028955,-0.00116713,0.00076128,-0.00008377
 ,0.00010748,-0.00032222,0.00033078,-0.00020843,0.00009618,-0.07223979,
 0.02986464,-0.12786431,-0.00496194,0.00077831,-0.03040659,-0.00328478,
 0.00099906,-0.00675775,0.08310909,-0.00010670,-0.00000459,-0.00002127,
 0.00003052,0.00008897,0.00004685,-0.00007863,-0.00004645,0.00004715,-0
 .00064777,0.00002690,-0.00071256,-0.00001941,0.00012499,-0.00010029,-0
 .00001606,0.00004393,0.00002574,0.00000708,-0.00001080,-0.00000578,0.0
 0001082,-0.00002384,0.00000969,-0.00000971,-0.00006535,-0.00000057,0.0
 0000019,0.00000048,0.00000106,0.00000067,-0.00002655,0.00000097,0.0000
 0194,0.00000275,0.00000194,0.00001466,0.00000540,0.00001481,0.00000430
 ,-0.00000735,0.00001212,-0.00001441,-0.00000220,-0.00001071,-0.0000228
 0,-0.00011157,-0.00001375,0.00000362,0.00001592,0.00000453,0.00001257,
 -0.00005555,0.00000348,-0.00000422,0.00002452,0.00000417,0.00016638,-0
 .00016562,-0.00009079,0.00007670,0.00022126,0.00017150,-0.00028501,0.0
 0005312,0.00001636,0.00353509,-0.00138694,-0.00215305,-0.00444938,-0.0
 0868257,-0.00018902,0.00039241,0.00006066,-0.00010215,0.00009119,0.000
 38163,0.00012927,0.03346795,-0.04154984,0.04726161,0.00012453,0.001279
 66,0.02205724,-0.00092995,0.01409657,-0.01467710,-0.03135659,0.0357124
 6,0.00008742,0.00002539,0.00015645,-0.00003278,0.00010850,0.00009486,0
 .00043946,0.00000463,-0.00000089,-0.00020196,-0.00023554,-0.00070126,-
 0.00018752,-0.00010980,0.00014209,-0.00004397,-0.00001872,0.00002730,0
 .00000543,-0.00001368,-0.00000046,0.00005046,-0.00002372,0.00001496,0.
 00000608,0.00002925,-0.00000049,-0.00000065,-0.00000550,-0.00002641,-0
 .00002659,-0.00001718,-0.00001200,-0.00000404,-0.00000999,-0.00001610,
 -0.00000283,-0.00000035,-0.00000074,0.00005751,0.00003318,-0.00003152,
 -0.00000897,-0.00000495,0.00001483,0.00003234,-0.00003880,-0.00003302,
 -0.00000220,0.00000646,0.00001566,0.00002352,0.00001106,-0.00004061,0.
 00000737,0.00000451,0.00000227,-0.00008644,0.00006764,-0.00032201,0.00
 003749,-0.00012297,0.00038534,-0.00003478,-0.00000239,0.00005542,0.003
 48658,-0.00128346,-0.00016486,0.00115255,0.00051893,0.00163903,-0.0005
 9628,0.00033180,-0.00004308,0.00008519,0.00022429,0.00009245,-0.161750
 32,0.05080520,-0.44186807,-0.00107516,0.00158243,0.00273330,-0.0016348
 7,-0.00013477,-0.00702629,0.16021797,-0.05173146,0.44491385\\0.0000010
 9,-0.00000120,0.00000100,0.00000179,0.00000224,0.00000466,-0.00000326,
 0.00000201,-0.00000326,-0.00000016,0.,0.00000085,-0.00000088,0.0000005
 0,-0.00000147,0.00000297,-0.00000017,0.00000505,0.00000216,-0.00000018
 ,0.00000353,-0.00000038,0.00000212,0.00000135,0.00000007,-0.00000077,-
 0.00000087,0.00000040,-0.00000037,0.00000017,-0.00000313,0.00000129,-0
 .00000251,-0.00000277,0.00000326,0.00000010,-0.00000266,0.00000104,0.0
 0000035,-0.00001544,0.00002469,-0.00001000,0.00000993,-0.00001753,0.00
 000567,0.00000172,0.00000452,0.00000918,0.00000342,0.00000074,0.000004
 45,-0.00000413,0.00000493,0.00001468,0.00000617,0.00000088,-0.00000375
 ,0.00000350,-0.00000619,0.00000094,0.00000079,-0.00000243,0.00000044,-
 0.00000017,0.00000075,0.00000047,0.00000378,-0.00000427,0.00000162,-0.
 00001344,0.00001128,0.00001422,-0.00000050,0.00000054,-0.00000309,0.00
 000958,-0.00001143,-0.00002811,-0.00001376,-0.00000507,-0.00004202,-0.
 00000068,-0.00000227,-0.00000114,-0.00000116,-0.00000116,-0.00000569,0
 .00001514,-0.00000775,0.00003315\\\@


 The lyf so short, the craft so long to lerne.
                             -- Chaucer
 Job cpu time:       0 days  0 hours 36 minutes 18.1 seconds.
 File lengths (MBytes):  RWF=    220 Int=      0 D2E=      0 Chk=      6 Scr=      1
 Normal termination of Gaussian 09 at Thu Jan 12 13:44:22 2017.
