 Entering Gaussian System, Link 0=g09
 Initial command:
 /global/software/gaussian/g09.e01/l1.exe "/scratch/10489869.yak.local/Gau-12918.inp" -scrdir="/scratch/10489869.yak.local/"
 Entering Link 1 = /global/software/gaussian/g09.e01/l1.exe PID=     12919.
  
 Copyright (c) 1988,1990,1992,1993,1995,1998,2003,2009,2015,
            Gaussian, Inc.  All Rights Reserved.
  
 This is part of the Gaussian(R) 09 program.  It is based on
 the Gaussian(R) 03 system (copyright 2003, Gaussian, Inc.),
 the Gaussian(R) 98 system (copyright 1998, Gaussian, Inc.),
 the Gaussian(R) 94 system (copyright 1995, Gaussian, Inc.),
 the Gaussian 92(TM) system (copyright 1992, Gaussian, Inc.),
 the Gaussian 90(TM) system (copyright 1990, Gaussian, Inc.),
 the Gaussian 88(TM) system (copyright 1988, Gaussian, Inc.),
 the Gaussian 86(TM) system (copyright 1986, Carnegie Mellon
 University), and the Gaussian 82(TM) system (copyright 1983,
 Carnegie Mellon University). Gaussian is a federally registered
 trademark of Gaussian, Inc.
  
 This software contains proprietary and confidential information,
 including trade secrets, belonging to Gaussian, Inc.
  
 This software is provided under written license and may be
 used, copied, transmitted, or stored only in accord with that
 written license.
  
 The following legend is applicable only to US Government
 contracts under FAR:
  
                    RESTRICTED RIGHTS LEGEND
  
 Use, reproduction and disclosure by the US Government is
 subject to restrictions as set forth in subparagraphs (a)
 and (c) of the Commercial Computer Software - Restricted
 Rights clause in FAR 52.227-19.
  
 Gaussian, Inc.
 340 Quinnipiac St., Bldg. 40, Wallingford CT 06492
  
  
 ---------------------------------------------------------------
 Warning -- This program may not be used in any manner that
 competes with the business of Gaussian, Inc. or will provide
 assistance to any competitor of Gaussian, Inc.  The licensee
 of this program is prohibited from giving any competitor of
 Gaussian, Inc. access to this program.  By using this program,
 the user acknowledges that Gaussian, Inc. is engaged in the
 business of creating and licensing software in the field of
 computational chemistry and represents and warrants to the
 licensee that it is not a competitor of Gaussian, Inc. and that
 it will not use this program in any manner prohibited above.
 ---------------------------------------------------------------
  

 Cite this work as:
 Gaussian 09, Revision E.01,
 M. J. Frisch, G. W. Trucks, H. B. Schlegel, G. E. Scuseria, 
 M. A. Robb, J. R. Cheeseman, G. Scalmani, V. Barone, B. Mennucci, 
 G. A. Petersson, H. Nakatsuji, M. Caricato, X. Li, H. P. Hratchian, 
 A. F. Izmaylov, J. Bloino, G. Zheng, J. L. Sonnenberg, M. Hada, 
 M. Ehara, K. Toyota, R. Fukuda, J. Hasegawa, M. Ishida, T. Nakajima, 
 Y. Honda, O. Kitao, H. Nakai, T. Vreven, J. A. Montgomery, Jr., 
 J. E. Peralta, F. Ogliaro, M. Bearpark, J. J. Heyd, E. Brothers, 
 K. N. Kudin, V. N. Staroverov, T. Keith, R. Kobayashi, J. Normand, 
 K. Raghavachari, A. Rendell, J. C. Burant, S. S. Iyengar, J. Tomasi, 
 M. Cossi, N. Rega, J. M. Millam, M. Klene, J. E. Knox, J. B. Cross, 
 V. Bakken, C. Adamo, J. Jaramillo, R. Gomperts, R. E. Stratmann, 
 O. Yazyev, A. J. Austin, R. Cammi, C. Pomelli, J. W. Ochterski, 
 R. L. Martin, K. Morokuma, V. G. Zakrzewski, G. A. Voth, 
 P. Salvador, J. J. Dannenberg, S. Dapprich, A. D. Daniels, 
 O. Farkas, J. B. Foresman, J. V. Ortiz, J. Cioslowski, 
 and D. J. Fox, Gaussian, Inc., Wallingford CT, 2013.
 
 ******************************************
 Gaussian 09:  ES64L-G09RevE.01 30-Nov-2015
                25-Jan-2017 
 ******************************************
 %NPROCS=22
 Will use up to   22 processors via shared memory.
 ----------------------------------------------------------------------
 # opt=(TS,CalcFC,NoEigenTest,MaxCycle=500,cartesian) Freq B3LYP 6-31G(
 d)
 ----------------------------------------------------------------------
 1/5=1,6=500,10=4,11=1,14=-1,18=10,26=3,38=1/1,3;
 2/12=2,17=6,18=5,29=2,40=1/2;
 3/5=1,6=6,7=1,11=2,16=1,25=1,30=1,71=2,74=-5,140=1/1,2,3;
 4//1;
 5/5=2,38=5/2;
 8/6=4,10=90,11=11/1;
 11/6=1,8=1,9=11,15=111,16=1/1,2,10;
 10/6=1,13=1/2;
 6/7=2,8=2,9=2,10=2,28=1/1;
 7/7=1,10=1,18=20,25=1/1,2,3,16;
 1/5=1,6=500,10=4,11=1,14=-1,18=10,26=3/3(2);
 2/29=1/2;
 99/12=1/99;
 2/29=1/2;
 3/5=1,6=6,7=1,11=2,16=1,25=1,30=1,71=1,74=-5/1,2,3;
 4/5=5,16=3,69=1/1;
 5/5=2,38=5/2;
 7/7=1/1,2,3,16;
 1/5=1,6=500,11=1,14=-1,18=10,26=3/3(-5);
 2/29=1/2;
 6/7=2,8=2,9=2,10=2,19=2,28=1/1;
 99/9=1,12=1/99;
 ------------------------
 boat3_Beta_B3LYP_6-31G_d
 ------------------------
 Symbolic Z-matrix:
 Charge =  0 Multiplicity = 1
 6                    0     0.58015  -0.93989  -0.38207 
 6                    0    -1.47217  -0.1838    1.00266 
 8                    0     0.71491   1.18097   0.84598 
 6                    0    -0.9968    1.19183   0.57126 
 6                    0     1.4238   -0.0361    0.53293 
 6                    0    -0.73118  -1.34395   0.29239 
 1                    0    -1.17183   1.95081   1.34684 
 1                    0    -0.46833  -2.07112   1.076 
 1                    0    -2.53264  -0.23135   0.71771 
 1                    0     1.60009  -0.56186   1.4818 
 1                    0     0.34251  -0.3859   -1.30087 
 6                    0     2.77188   0.36312  -0.09398 
 1                    0     3.30286   1.04451   0.58526 
 1                    0     2.59983   0.89355  -1.0348 
 8                    0    -1.19891   1.51734  -0.67486 
 8                    0     3.58422  -0.76569  -0.42957 
 1                    0     3.84972  -1.20235   0.39601 
 8                    0    -1.29125  -0.24587   2.41479 
 1                    0    -1.83589  -0.97583   2.74668 
 8                    0    -1.59829  -1.96108  -0.65691 
 1                    0    -1.04984  -2.59714  -1.14778 
 8                    0     1.23667  -2.16796  -0.6817 
 1                    0     2.1341   -1.94492  -0.99411 
 8                    0     0.75151   2.87437  -0.8476 
 1                    0    -0.3042    2.41052  -0.94028 
 1                    0     0.93949   2.07927   0.08085 
 1                    0     0.67911   3.78656  -0.5215 
 8                    0    -3.63524   0.01757  -1.37803 
 1                    0    -2.94068   0.70067  -1.38004 
 1                    0    -3.10737  -0.79992  -1.38774 
 

 GradGradGradGradGradGradGradGradGradGradGradGradGradGradGradGradGradGrad
 Berny optimization.
 Initialization pass.
 No Z-matrix variables, so optimization will use Cartesian coordinates.
 Trust Radius=3.00D-01 FncErr=1.00D-07 GrdErr=1.00D-06
 Number of steps in this run=    180 maximum allowed number of steps=    180.
 Search for a saddle point of order  1.
 GradGradGradGradGradGradGradGradGradGradGradGradGradGradGradGradGradGrad

 ---------------------------------------------------------------------------------------------------
                            Z-MATRIX (ANGSTROMS AND DEGREES)
   CD    Cent   Atom    N1       Length/X        N2       Alpha/Y        N3        Beta/Z          J
 ---------------------------------------------------------------------------------------------------
      1      1  C        0   0.580153         -0.939890         -0.382066
      2      2  C        0  -1.472169         -0.183803          1.002657
      3      3  O        0   0.714908          1.180974          0.845984
      4      4  C        0  -0.996802          1.191829          0.571264
      5      5  C        0   1.423800         -0.036100          0.532926
      6      6  C        0  -0.731180         -1.343945          0.292394
      7      7  H        0  -1.171827          1.950811          1.346836
      8      8  H        0  -0.468334         -2.071119          1.076002
      9      9  H        0  -2.532644         -0.231349          0.717714
     10     10  H        0   1.600086         -0.561861          1.481804
     11     11  H        0   0.342511         -0.385904         -1.300868
     12     12  C        0   2.771881          0.363122         -0.093984
     13     13  H        0   3.302855          1.044512          0.585256
     14     14  H        0   2.599834          0.893548         -1.034797
     15     15  O        0  -1.198907          1.517337         -0.674861
     16     16  O        0   3.584221         -0.765691         -0.429565
     17     17  H        0   3.849723         -1.202350          0.396008
     18     18  O        0  -1.291249         -0.245874          2.414794
     19     19  H        0  -1.835894         -0.975831          2.746683
     20     20  O        0  -1.598287         -1.961076         -0.656913
     21     21  H        0  -1.049842         -2.597135         -1.147782
     22     22  O        0   1.236665         -2.167956         -0.681701
     23     23  H        0   2.134103         -1.944924         -0.994106
     24     24  O        0   0.751512          2.874366         -0.847603
     25     25  H        0  -0.304195          2.410517         -0.940281
     26     26  H        0   0.939485          2.079269          0.080846
     27     27  H        0   0.679109          3.786557         -0.521495
     28     28  O        0  -3.635242          0.017573         -1.378031
     29     29  H        0  -2.940679          0.700674         -1.380043
     30     30  H        0  -3.107366         -0.799917         -1.387738
 ---------------------------------------------------------------------------------------------------
                         Z-Matrix orientation:                         
 ---------------------------------------------------------------------
 Center     Atomic      Atomic             Coordinates (Angstroms)
 Number     Number       Type             X           Y           Z
 ---------------------------------------------------------------------
      1          6           0        0.580153   -0.939890   -0.382066
      2          6           0       -1.472169   -0.183803    1.002657
      3          8           0        0.714908    1.180974    0.845984
      4          6           0       -0.996802    1.191829    0.571264
      5          6           0        1.423800   -0.036100    0.532926
      6          6           0       -0.731180   -1.343945    0.292394
      7          1           0       -1.171827    1.950811    1.346836
      8          1           0       -0.468334   -2.071119    1.076002
      9          1           0       -2.532644   -0.231349    0.717714
     10          1           0        1.600086   -0.561861    1.481804
     11          1           0        0.342511   -0.385904   -1.300868
     12          6           0        2.771881    0.363122   -0.093984
     13          1           0        3.302855    1.044512    0.585256
     14          1           0        2.599834    0.893548   -1.034797
     15          8           0       -1.198907    1.517337   -0.674861
     16          8           0        3.584221   -0.765691   -0.429565
     17          1           0        3.849723   -1.202350    0.396008
     18          8           0       -1.291249   -0.245874    2.414794
     19          1           0       -1.835894   -0.975831    2.746683
     20          8           0       -1.598287   -1.961076   -0.656913
     21          1           0       -1.049842   -2.597135   -1.147782
     22          8           0        1.236665   -2.167956   -0.681701
     23          1           0        2.134103   -1.944924   -0.994106
     24          8           0        0.751512    2.874366   -0.847603
     25          1           0       -0.304195    2.410517   -0.940281
     26          1           0        0.939485    2.079269    0.080846
     27          1           0        0.679109    3.786557   -0.521495
     28          8           0       -3.635242    0.017573   -1.378031
     29          1           0       -2.940679    0.700674   -1.380043
     30          1           0       -3.107366   -0.799917   -1.387738
 ---------------------------------------------------------------------
                    Distance matrix (angstroms):
                    1          2          3          4          5
     1  C    0.000000
     2  C    2.588658   0.000000
     3  O    2.454451   2.582725   0.000000
     4  C    2.817774   1.518037   1.733649   0.000000
     5  C    1.538111   2.937533   1.442845   2.714515   0.000000
     6  C    1.528971   1.549022   2.961899   2.564853   2.532243
     7  H    3.796668   2.182943   2.098397   1.099181   3.368612
     8  H    2.122491   2.138931   3.468296   3.343781   2.831326
     9  H    3.376544   1.099118   3.543685   2.098974   3.965567
    10  H    2.158050   3.132293   2.055549   3.263179   1.099032
    11  H    1.098896   2.939411   2.683796   2.790677   2.157394
    12  C    2.566029   4.417432   2.404903   3.915646   1.539388
    13  H    3.505235   4.948114   2.604625   4.302203   2.168250
    14  H    2.804757   4.679008   2.678226   3.950214   2.169114
    15  O    3.047745   2.404707   2.467549   1.303698   3.278797
    16  O    3.009489   5.287432   3.694521   5.081271   2.475098
    17  H    3.371108   5.452339   3.963556   5.408476   2.695179
    18  O    3.436019   1.425032   2.919200   2.356330   3.310124
    19  H    3.953182   1.949675   3.843313   3.183594   4.050854
    20  O    2.421562   2.434908   4.181154   3.436715   3.775481
    21  H    2.447379   3.259896   4.622072   4.161031   3.937332
    22  O    1.424407   3.756555   3.717712   4.224506   2.460721
    23  H    1.949217   4.482612   3.895033   4.700231   2.545578
    24  O    3.846380   4.209586   2.395236   2.810821   3.290690
    25  H    3.509829   3.445238   2.396057   2.061474   3.337999
    26  H    3.075505   3.433265   1.201168   2.185696   2.216692
    27  H    4.729538   4.766004   2.942846   3.276494   4.034734
    28  O    4.436016   3.222904   5.022305   3.484249   5.408192
    29  H    4.010445   2.935316   4.306878   2.797765   4.821925
    30  H    3.824757   2.960989   4.850074   3.501317   4.980345
                    6          7          8          9         10
     6  C    0.000000
     7  H    3.487325   0.000000
     8  H    1.100869   4.091965   0.000000
     9  H    2.159639   2.647535   2.788279   0.000000
    10  H    2.731511   3.743693   2.592469   4.215748   0.000000
    11  H    2.146890   3.842368   3.024389   3.516401   3.058712
    12  C    3.915968   4.488825   4.218221   5.399096   2.170669
    13  H    4.697226   4.628624   4.916285   5.974815   2.506722
    14  H    4.226519   4.584256   4.760082   5.538864   3.074247
    15  O    3.056352   2.067823   4.059098   2.603079   4.099833
    16  O    4.413421   5.758036   4.515980   6.246424   2.762548
    17  H    4.584262   6.005203   4.456767   6.463818   2.578768
    18  O    2.454388   2.445449   2.408542   2.102701   3.054527
    19  H    2.716512   3.311463   2.420961   2.270777   3.684732
    20  O    1.426152   4.415851   2.071690   2.398870   4.094081
    21  H    1.935494   5.188623   2.357978   3.357934   4.251962
    22  O    2.345265   5.184596   2.450698   4.462791   2.718891
    23  H    3.197828   5.620136   3.327755   5.257870   2.885857
    24  O    4.614338   3.060678   5.444823   4.783447   4.237201
    25  H    3.974643   2.488980   4.917052   3.833326   4.281099
    26  H    3.815006   2.465131   4.494220   4.219033   3.061804
    27  H    5.382693   3.207271   6.179077   5.290989   4.875464
    28  O    3.616300   4.150991   4.518210   2.381141   5.993585
    29  H    3.443748   3.482463   4.452806   2.331468   5.513865
    30  H    2.960586   4.334825   3.827592   2.255328   5.518247
                   11         12         13         14         15
    11  H    0.000000
    12  C    2.814151   0.000000
    13  H    3.790408   1.098905   0.000000
    14  H    2.608313   1.093655   1.772456   0.000000
    15  O    2.527881   4.175738   4.698651   3.866407   0.000000
    16  O    3.378179   1.430640   2.094245   2.021979   5.305723
    17  H    3.980767   1.962788   2.320187   2.828818   5.833706
    18  O    4.061394   4.813924   5.110587   5.323391   3.558568
    19  H    4.634235   5.576179   5.929612   6.121262   4.281192
    20  O    2.581190   4.981682   5.881984   5.090766   3.501312
    21  H    2.617561   4.947644   5.933884   5.051511   4.144244
    22  O    2.087723   3.018055   4.024211   3.369824   4.417402
    23  H    2.394671   2.558135   3.577302   2.876714   4.816443
    24  O    3.316940   3.310012   3.451203   2.715691   2.382331
    25  H    2.892788   3.790816   4.147776   3.277730   1.291792
    26  H    2.888354   2.516625   2.628815   2.325371   2.336575
    27  H    4.257952   4.035142   3.953195   3.510294   2.949547
    28  O    3.998908   6.543654   7.283288   6.305657   2.946094
    29  H    3.459228   5.865256   6.554566   5.554609   2.048900
    30  H    3.475716   6.131232   6.955973   5.963600   3.085462
                   16         17         18         19         20
    16  O    0.000000
    17  H    0.970944   0.000000
    18  O    5.668403   5.605349   0.000000
    19  H    6.285726   6.156559   0.969343   0.000000
    20  O    5.323441   5.600457   3.531512   3.551286   0.000000
    21  H    5.034338   5.323011   4.275354   4.291079   0.972787
    22  O    2.746077   2.986959   4.435429   4.755586   2.842599
    23  H    1.952470   2.329632   5.122539   5.540173   3.747625
    24  O    4.631308   5.269259   4.954998   5.868354   5.379537
    25  H    5.046673   5.665114   4.391721   5.235185   4.567909
    26  H    3.917773   4.397481   3.978665   4.913558   4.827936
    27  H    5.401027   5.981956   5.363264   6.299728   6.183863
    28  O    7.323506   7.788461   4.466456   4.608446   2.929889
    29  H    6.754847   7.272236   4.244686   4.589236   3.067547
    30  H    6.759926   7.193385   4.250235   4.329090   2.039538
                   21         22         23         24         25
    21  H    0.000000
    22  O    2.372665   0.000000
    23  H    3.253690   0.976082   0.000000
    24  O    5.768215   5.068324   5.015833   0.000000
    25  H    5.067112   4.837719   4.991799   1.156833   0.000000
    26  H    5.228356   4.325357   4.333216   1.236742   1.642914
    27  H    6.643270   5.982705   5.932136   0.971432   1.742342
    28  O    3.684292   5.384876   6.106074   5.261771   4.124764
    29  H    3.808511   5.115361   5.735987   4.317488   3.173011
    30  H    2.742440   4.608755   5.379497   5.355655   4.285426
                   26         27         28         29         30
    26  H    0.000000
    27  H    1.829055   0.000000
    28  O    5.225614   5.792454   0.000000
    29  H    4.369255   4.833492   0.974191   0.000000
    30  H    5.179136   6.010284   0.973158   1.509840   0.000000
 Stoichiometry    C6H16O8
 Framework group  C1[X(C6H16O8)]
 Deg. of freedom    84
 Full point group                 C1      NOp   1
 Largest Abelian subgroup         C1      NOp   1
 Largest concise Abelian subgroup C1      NOp   1
                         Standard orientation:                         
 ---------------------------------------------------------------------
 Center     Atomic      Atomic             Coordinates (Angstroms)
 Number     Number       Type             X           Y           Z
 ---------------------------------------------------------------------
      1          6           0        0.580153   -0.939890   -0.382066
      2          6           0       -1.472169   -0.183803    1.002657
      3          8           0        0.714908    1.180974    0.845984
      4          6           0       -0.996802    1.191829    0.571264
      5          6           0        1.423800   -0.036100    0.532926
      6          6           0       -0.731180   -1.343945    0.292394
      7          1           0       -1.171827    1.950811    1.346836
      8          1           0       -0.468334   -2.071119    1.076002
      9          1           0       -2.532644   -0.231349    0.717714
     10          1           0        1.600086   -0.561861    1.481804
     11          1           0        0.342511   -0.385904   -1.300868
     12          6           0        2.771881    0.363122   -0.093984
     13          1           0        3.302855    1.044512    0.585256
     14          1           0        2.599834    0.893548   -1.034797
     15          8           0       -1.198907    1.517337   -0.674861
     16          8           0        3.584221   -0.765691   -0.429565
     17          1           0        3.849723   -1.202350    0.396008
     18          8           0       -1.291249   -0.245874    2.414794
     19          1           0       -1.835894   -0.975831    2.746683
     20          8           0       -1.598287   -1.961076   -0.656913
     21          1           0       -1.049842   -2.597135   -1.147782
     22          8           0        1.236665   -2.167956   -0.681701
     23          1           0        2.134103   -1.944924   -0.994106
     24          8           0        0.751512    2.874366   -0.847603
     25          1           0       -0.304195    2.410517   -0.940281
     26          1           0        0.939485    2.079269    0.080846
     27          1           0        0.679109    3.786557   -0.521495
     28          8           0       -3.635242    0.017573   -1.378031
     29          1           0       -2.940679    0.700674   -1.380043
     30          1           0       -3.107366   -0.799917   -1.387738
 ---------------------------------------------------------------------
 Rotational constants (GHZ):      0.7699333      0.5034395      0.4123823
 Standard basis: 6-31G(d) (6D, 7F)
 There are   242 symmetry adapted cartesian basis functions of A   symmetry.
 There are   242 symmetry adapted basis functions of A   symmetry.
   242 basis functions,   456 primitive gaussians,   242 cartesian basis functions
    58 alpha electrons       58 beta electrons
       nuclear repulsion energy      1122.3557177110 Hartrees.
 NAtoms=   30 NActive=   30 NUniq=   30 SFac= 1.00D+00 NAtFMM=   60 NAOKFM=F Big=F
 Integral buffers will be    131072 words long.
 Raffenetti 2 integral format.
 Two-electron integral symmetry is turned on.
 One-electron integrals computed using PRISM.
 NBasis=   242 RedAO= T EigKep=  1.27D-03  NBF=   242
 NBsUse=   242 1.00D-06 EigRej= -1.00D+00 NBFU=   242
 ExpMin= 1.61D-01 ExpMax= 5.48D+03 ExpMxC= 8.25D+02 IAcc=1 IRadAn=         1 AccDes= 0.00D+00
 Harris functional with IExCor=  402 and IRadAn=       1 diagonalized for initial guess.
 HarFok:  IExCor=  402 AccDes= 0.00D+00 IRadAn=         1 IDoV= 1 UseB2=F ITyADJ=14
 ICtDFT=  3500011 ScaDFX=  1.000000  1.000000  1.000000  1.000000
 FoFCou: FMM=F IPFlag=           0 FMFlag=      100000 FMFlg1=           0
         NFxFlg=           0 DoJE=T BraDBF=F KetDBF=T FulRan=T
         wScrn=  0.000000 ICntrl=     500 IOpCl=  0 I1Cent=   200000004 NGrid=           0
         NMat0=    1 NMatS0=      1 NMatT0=    0 NMatD0=    1 NMtDS0=    0 NMtDT0=    0
 Petite list used in FoFCou.
 Requested convergence on RMS density matrix=1.00D-08 within 128 cycles.
 Requested convergence on MAX density matrix=1.00D-06.
 Requested convergence on             energy=1.00D-06.
 No special actions if energy rises.
 Integral accuracy reduced to 1.0D-05 until final iterations.
 Initial convergence to 1.0D-05 achieved.  Increase integral accuracy.
 SCF Done:  E(RB3LYP) =  -839.950227383     A.U. after   14 cycles
            NFock= 14  Conv=0.61D-08     -V/T= 2.0086
 DoSCS=F DFT=T ScalE2(SS,OS)=  1.000000  1.000000
 Range of M.O.s used for correlation:     1   242
 NBasis=   242 NAE=    58 NBE=    58 NFC=     0 NFV=     0
 NROrb=    242 NOA=    58 NOB=    58 NVA=   184 NVB=   184
 PrsmSu:  requested number of processors reduced to:  21 ShMem   1 Linda.
 Symmetrizing basis deriv contribution to polar:
 IMax=3 JMax=2 DiffMx= 0.00D+00
 G2DrvN: will do    16 centers at a time, making    2 passes.
 Calling FoFCou, ICntrl=  3107 FMM=F I1Cent=   0 AccDes= 0.00D+00.
 Calling FoFCou, ICntrl=  3107 FMM=F I1Cent=   0 AccDes= 0.00D+00.
 End of G2Drv F.D. properties file   721 does not exist.
 End of G2Drv F.D. properties file   722 does not exist.
 End of G2Drv F.D. properties file   788 does not exist.
          IDoAtm=111111111111111111111111111111
          Differentiating once with respect to nuclear coordinates.
 PrRfSu:  requested number of processors reduced to:  21 ShMem   1 Linda.
          There are    93 degrees of freedom in the 1st order CPHF.  IDoFFX=6 NUNeed=     0.
     90 vectors produced by pass  0 Test12= 1.15D-14 1.08D-09 XBig12= 1.29D-01 8.52D-02.
 AX will form    90 AO Fock derivatives at one time.
 PrRfSu:  requested number of processors reduced to:  21 ShMem   1 Linda.
     88 vectors produced by pass  1 Test12= 1.15D-14 1.08D-09 XBig12= 1.17D-02 1.46D-02.
 PrRfSu:  requested number of processors reduced to:  21 ShMem   1 Linda.
     87 vectors produced by pass  2 Test12= 1.15D-14 1.08D-09 XBig12= 1.39D-04 2.08D-03.
     87 vectors produced by pass  3 Test12= 1.15D-14 1.08D-09 XBig12= 2.82D-07 5.61D-05.
     87 vectors produced by pass  4 Test12= 1.15D-14 1.08D-09 XBig12= 5.28D-10 1.80D-06.
     68 vectors produced by pass  5 Test12= 1.15D-14 1.08D-09 XBig12= 4.11D-13 6.87D-08.
      2 vectors produced by pass  6 Test12= 1.15D-14 1.08D-09 XBig12= 3.31D-16 1.84D-09.
 InvSVY:  IOpt=1 It=  1 EMax= 5.55D-16
 Solved reduced A of dimension   509 with    93 vectors.
 End of Minotr F.D. properties file   721 does not exist.
 End of Minotr F.D. properties file   722 does not exist.
 End of Minotr F.D. properties file   788 does not exist.

 **********************************************************************

            Population analysis using the SCF density.

 **********************************************************************

 Orbital symmetries:
       Occupied  (A) (A) (A) (A) (A) (A) (A) (A) (A) (A) (A) (A)
                 (A) (A) (A) (A) (A) (A) (A) (A) (A) (A) (A) (A)
                 (A) (A) (A) (A) (A) (A) (A) (A) (A) (A) (A) (A)
                 (A) (A) (A) (A) (A) (A) (A) (A) (A) (A) (A) (A)
                 (A) (A) (A) (A) (A) (A) (A) (A) (A) (A)
       Virtual   (A) (A) (A) (A) (A) (A) (A) (A) (A) (A) (A) (A)
                 (A) (A) (A) (A) (A) (A) (A) (A) (A) (A) (A) (A)
                 (A) (A) (A) (A) (A) (A) (A) (A) (A) (A) (A) (A)
                 (A) (A) (A) (A) (A) (A) (A) (A) (A) (A) (A) (A)
                 (A) (A) (A) (A) (A) (A) (A) (A) (A) (A) (A) (A)
                 (A) (A) (A) (A) (A) (A) (A) (A) (A) (A) (A) (A)
                 (A) (A) (A) (A) (A) (A) (A) (A) (A) (A) (A) (A)
                 (A) (A) (A) (A) (A) (A) (A) (A) (A) (A) (A) (A)
                 (A) (A) (A) (A) (A) (A) (A) (A) (A) (A) (A) (A)
                 (A) (A) (A) (A) (A) (A) (A) (A) (A) (A) (A) (A)
                 (A) (A) (A) (A) (A) (A) (A) (A) (A) (A) (A) (A)
                 (A) (A) (A) (A) (A) (A) (A) (A) (A) (A) (A) (A)
                 (A) (A) (A) (A) (A) (A) (A) (A) (A) (A) (A) (A)
                 (A) (A) (A) (A) (A) (A) (A) (A) (A) (A) (A) (A)
                 (A) (A) (A) (A) (A) (A) (A) (A) (A) (A) (A) (A)
                 (A) (A) (A) (A)
 The electronic state is 1-A.
 Alpha  occ. eigenvalues --  -19.18742 -19.18707 -19.17434 -19.15978 -19.15817
 Alpha  occ. eigenvalues --  -19.15260 -19.13186 -19.08986 -10.29890 -10.26082
 Alpha  occ. eigenvalues --  -10.25932 -10.24652 -10.24618 -10.24505  -1.07399
 Alpha  occ. eigenvalues --   -1.05692  -1.04279  -1.03064  -1.01800  -1.01147
 Alpha  occ. eigenvalues --   -1.00461  -0.94946  -0.78811  -0.76534  -0.70684
 Alpha  occ. eigenvalues --   -0.65379  -0.63744  -0.57889  -0.56532  -0.55450
 Alpha  occ. eigenvalues --   -0.55120  -0.51733  -0.51397  -0.50301  -0.48529
 Alpha  occ. eigenvalues --   -0.47941  -0.47127  -0.45558  -0.44543  -0.43594
 Alpha  occ. eigenvalues --   -0.42268  -0.41679  -0.41190  -0.39362  -0.38691
 Alpha  occ. eigenvalues --   -0.36818  -0.36255  -0.34982  -0.34539  -0.33189
 Alpha  occ. eigenvalues --   -0.31781  -0.30005  -0.29546  -0.29082  -0.27558
 Alpha  occ. eigenvalues --   -0.26758  -0.26250  -0.24677
 Alpha virt. eigenvalues --    0.01931   0.04262   0.05674   0.06679   0.08166
 Alpha virt. eigenvalues --    0.09551   0.11678   0.12510   0.12853   0.13766
 Alpha virt. eigenvalues --    0.14747   0.15477   0.16578   0.17144   0.18204
 Alpha virt. eigenvalues --    0.20126   0.20364   0.21562   0.22998   0.23665
 Alpha virt. eigenvalues --    0.24700   0.25797   0.27126   0.28365   0.29902
 Alpha virt. eigenvalues --    0.29913   0.32102   0.34138   0.50876   0.51750
 Alpha virt. eigenvalues --    0.53542   0.54299   0.56573   0.56681   0.58894
 Alpha virt. eigenvalues --    0.60180   0.61992   0.62066   0.63943   0.66997
 Alpha virt. eigenvalues --    0.67583   0.69395   0.70778   0.71739   0.74037
 Alpha virt. eigenvalues --    0.75453   0.76748   0.77969   0.78488   0.80415
 Alpha virt. eigenvalues --    0.81995   0.82284   0.84254   0.84739   0.85263
 Alpha virt. eigenvalues --    0.86164   0.86489   0.86866   0.88382   0.90525
 Alpha virt. eigenvalues --    0.90680   0.91500   0.91756   0.94029   0.95690
 Alpha virt. eigenvalues --    0.98170   0.98399   0.99415   1.01522   1.02312
 Alpha virt. eigenvalues --    1.02680   1.03389   1.04664   1.06346   1.07641
 Alpha virt. eigenvalues --    1.08281   1.11425   1.12399   1.14259   1.16485
 Alpha virt. eigenvalues --    1.19361   1.21090   1.23041   1.23685   1.24106
 Alpha virt. eigenvalues --    1.28745   1.31336   1.34309   1.37364   1.40425
 Alpha virt. eigenvalues --    1.42509   1.44511   1.45378   1.46783   1.50209
 Alpha virt. eigenvalues --    1.51380   1.53334   1.55133   1.56239   1.58383
 Alpha virt. eigenvalues --    1.63034   1.63565   1.64261   1.67102   1.67631
 Alpha virt. eigenvalues --    1.70063   1.71583   1.72143   1.74842   1.74995
 Alpha virt. eigenvalues --    1.77439   1.78309   1.78901   1.79584   1.80896
 Alpha virt. eigenvalues --    1.82179   1.82999   1.85378   1.86191   1.87024
 Alpha virt. eigenvalues --    1.88519   1.88602   1.90756   1.91964   1.92925
 Alpha virt. eigenvalues --    1.94752   1.98835   2.00007   2.00519   2.03831
 Alpha virt. eigenvalues --    2.04513   2.07282   2.08426   2.12352   2.13875
 Alpha virt. eigenvalues --    2.15457   2.18420   2.20917   2.21716   2.26951
 Alpha virt. eigenvalues --    2.27976   2.33273   2.34909   2.37485   2.38424
 Alpha virt. eigenvalues --    2.42272   2.43339   2.46205   2.49133   2.50442
 Alpha virt. eigenvalues --    2.52219   2.53156   2.54655   2.57870   2.59011
 Alpha virt. eigenvalues --    2.62389   2.63327   2.64534   2.66072   2.71549
 Alpha virt. eigenvalues --    2.71627   2.74770   2.79823   2.83004   2.88222
 Alpha virt. eigenvalues --    2.92089   2.95754   2.99302   3.06694   3.09374
 Alpha virt. eigenvalues --    3.72550   3.75896   3.77239   3.79341   3.86343
 Alpha virt. eigenvalues --    3.96025   4.05144   4.13720   4.25781   4.32503
 Alpha virt. eigenvalues --    4.47523   4.54212   4.61001   4.84237
          Condensed to atoms (all electrons):
               1          2          3          4          5          6
     1  C    4.993066  -0.020389  -0.031247  -0.003613   0.279457   0.341398
     2  C   -0.020389   5.148628  -0.010012   0.315085  -0.012290   0.260920
     3  O   -0.031247  -0.010012   8.597116   0.071092   0.141105  -0.007775
     4  C   -0.003613   0.315085   0.071092   4.768277  -0.011553  -0.029613
     5  C    0.279457  -0.012290   0.141105  -0.011553   5.034828  -0.027864
     6  C    0.341398   0.260920  -0.007775  -0.029613  -0.027864   4.968686
     7  H    0.000328  -0.069206  -0.041165   0.362802   0.002948   0.005687
     8  H   -0.044549  -0.060105   0.000322   0.003622  -0.004608   0.351258
     9  H    0.003854   0.322963   0.001833  -0.037666   0.000212  -0.046756
    10  H   -0.057256  -0.000888  -0.033853  -0.000769   0.359911  -0.008467
    11  H    0.341482  -0.007475   0.001499   0.002615  -0.045854  -0.042297
    12  C   -0.027585   0.000332  -0.029227   0.000773   0.328672   0.003370
    13  H    0.005084   0.000007   0.003717  -0.000095  -0.047240  -0.000124
    14  H   -0.008351  -0.000028   0.002044  -0.000089  -0.036708   0.000048
    15  O   -0.005030  -0.053406  -0.047340   0.284052   0.001342   0.007658
    16  O   -0.001301   0.000005   0.001389  -0.000018  -0.036272  -0.000008
    17  H   -0.001484   0.000001   0.000004  -0.000001  -0.002045  -0.000005
    18  O    0.000784   0.179784   0.001173  -0.044952   0.003384  -0.042886
    19  H   -0.000082  -0.021477   0.000002   0.006457  -0.000059  -0.001443
    20  O   -0.030407  -0.026310   0.000011   0.000917   0.003829   0.198076
    21  H   -0.010142   0.005632  -0.000015  -0.000211   0.000719  -0.024669
    22  O    0.209476   0.003059   0.001278   0.000100  -0.032186  -0.048709
    23  H   -0.021052  -0.000219   0.000019   0.000012  -0.008120   0.005257
    24  O   -0.000898  -0.000137  -0.099452   0.021467   0.006603   0.000041
    25  H    0.000314   0.004065   0.009812  -0.022373  -0.000890  -0.000356
    26  H    0.002358   0.002060   0.110432  -0.011689  -0.014628  -0.000142
    27  H    0.000024   0.000061   0.003747   0.000592  -0.000196  -0.000004
    28  O   -0.000063  -0.009735  -0.000003  -0.000256  -0.000001  -0.000201
    29  H   -0.000074   0.001490   0.000125  -0.003003   0.000008   0.000363
    30  H    0.000072   0.001133   0.000001  -0.000144   0.000003  -0.002617
               7          8          9         10         11         12
     1  C    0.000328  -0.044549   0.003854  -0.057256   0.341482  -0.027585
     2  C   -0.069206  -0.060105   0.322963  -0.000888  -0.007475   0.000332
     3  O   -0.041165   0.000322   0.001833  -0.033853   0.001499  -0.029227
     4  C    0.362802   0.003622  -0.037666  -0.000769   0.002615   0.000773
     5  C    0.002948  -0.004608   0.000212   0.359911  -0.045854   0.328672
     6  C    0.005687   0.351258  -0.046756  -0.008467  -0.042297   0.003370
     7  H    0.631672  -0.000217  -0.001042  -0.000169   0.000407  -0.000144
     8  H   -0.000217   0.636026   0.000994   0.006600   0.007620  -0.000277
     9  H   -0.001042   0.000994   0.559802   0.000026  -0.000245   0.000010
    10  H   -0.000169   0.006600   0.000026   0.620870   0.006880  -0.051233
    11  H    0.000407   0.007620  -0.000245   0.006880   0.615914  -0.011154
    12  C   -0.000144  -0.000277   0.000010  -0.051233  -0.011154   4.960784
    13  H    0.000005   0.000007  -0.000000  -0.006505  -0.000122   0.363942
    14  H   -0.000011   0.000005  -0.000000   0.005623   0.004975   0.368093
    15  O   -0.045434   0.000052  -0.000497  -0.000118   0.012508  -0.000209
    16  O    0.000000  -0.000009  -0.000000   0.000757   0.000090   0.222058
    17  H   -0.000000   0.000006  -0.000000   0.005305   0.000141  -0.028202
    18  O    0.008929   0.004019  -0.019544   0.002892  -0.000009   0.000050
    19  H   -0.000544   0.003494  -0.005524  -0.000116  -0.000001  -0.000001
    20  O   -0.000086  -0.037012   0.000659   0.000008   0.000906  -0.000052
    21  H    0.000008  -0.002632  -0.000067  -0.000011  -0.000212  -0.000011
    22  O    0.000003   0.001027  -0.000060   0.004747  -0.037121  -0.000999
    23  H   -0.000000  -0.000110   0.000005  -0.000493  -0.002628  -0.003029
    24  O    0.001741  -0.000000   0.000002  -0.000161   0.000491  -0.001066
    25  H   -0.003966   0.000006  -0.000015   0.000047   0.000059   0.000022
    26  H    0.000854  -0.000001  -0.000068   0.001103   0.000162  -0.002877
    27  H    0.000124   0.000000  -0.000001   0.000009  -0.000000   0.000068
    28  O   -0.000062  -0.000044   0.037700  -0.000000  -0.000052  -0.000000
    29  H    0.000363   0.000013  -0.003354   0.000001   0.000313   0.000000
    30  H    0.000002   0.000374  -0.003858   0.000000   0.000383   0.000000
              13         14         15         16         17         18
     1  C    0.005084  -0.008351  -0.005030  -0.001301  -0.001484   0.000784
     2  C    0.000007  -0.000028  -0.053406   0.000005   0.000001   0.179784
     3  O    0.003717   0.002044  -0.047340   0.001389   0.000004   0.001173
     4  C   -0.000095  -0.000089   0.284052  -0.000018  -0.000001  -0.044952
     5  C   -0.047240  -0.036708   0.001342  -0.036272  -0.002045   0.003384
     6  C   -0.000124   0.000048   0.007658  -0.000008  -0.000005  -0.042886
     7  H    0.000005  -0.000011  -0.045434   0.000000  -0.000000   0.008929
     8  H    0.000007   0.000005   0.000052  -0.000009   0.000006   0.004019
     9  H   -0.000000  -0.000000  -0.000497  -0.000000  -0.000000  -0.019544
    10  H   -0.006505   0.005623  -0.000118   0.000757   0.005305   0.002892
    11  H   -0.000122   0.004975   0.012508   0.000090   0.000141  -0.000009
    12  C    0.363942   0.368093  -0.000209   0.222058  -0.028202   0.000050
    13  H    0.599770  -0.037892   0.000016  -0.028787  -0.007169  -0.000000
    14  H   -0.037892   0.537508  -0.000008  -0.032320   0.006675  -0.000001
    15  O    0.000016  -0.000008   8.416017   0.000001  -0.000000   0.001321
    16  O   -0.028787  -0.032320   0.000001   8.223092   0.234758  -0.000000
    17  H   -0.007169   0.006675  -0.000000   0.234758   0.386877  -0.000000
    18  O   -0.000000  -0.000001   0.001321  -0.000000  -0.000000   8.304723
    19  H    0.000000   0.000000  -0.000118   0.000000   0.000000   0.233612
    20  O    0.000000  -0.000001  -0.000354   0.000000   0.000000   0.001138
    21  H    0.000000  -0.000000   0.000037   0.000005  -0.000001  -0.000115
    22  O   -0.000201   0.000207   0.000058  -0.016884   0.003111  -0.000019
    23  H    0.000760  -0.000911  -0.000000   0.050641  -0.003764   0.000003
    24  O   -0.000163   0.004788  -0.101775   0.000010  -0.000001   0.000002
    25  H    0.000009   0.000241   0.125302  -0.000000   0.000000  -0.000056
    26  H    0.001826   0.001029   0.012309   0.000058   0.000010  -0.000016
    27  H    0.000009  -0.000076   0.004176  -0.000000   0.000000  -0.000001
    28  O    0.000000   0.000000  -0.008466   0.000000  -0.000000   0.000063
    29  H   -0.000000  -0.000000   0.034698  -0.000000   0.000000   0.000001
    30  H   -0.000000  -0.000000   0.000936  -0.000000  -0.000000   0.000001
              19         20         21         22         23         24
     1  C   -0.000082  -0.030407  -0.010142   0.209476  -0.021052  -0.000898
     2  C   -0.021477  -0.026310   0.005632   0.003059  -0.000219  -0.000137
     3  O    0.000002   0.000011  -0.000015   0.001278   0.000019  -0.099452
     4  C    0.006457   0.000917  -0.000211   0.000100   0.000012   0.021467
     5  C   -0.000059   0.003829   0.000719  -0.032186  -0.008120   0.006603
     6  C   -0.001443   0.198076  -0.024669  -0.048709   0.005257   0.000041
     7  H   -0.000544  -0.000086   0.000008   0.000003  -0.000000   0.001741
     8  H    0.003494  -0.037012  -0.002632   0.001027  -0.000110  -0.000000
     9  H   -0.005524   0.000659  -0.000067  -0.000060   0.000005   0.000002
    10  H   -0.000116   0.000008  -0.000011   0.004747  -0.000493  -0.000161
    11  H   -0.000001   0.000906  -0.000212  -0.037121  -0.002628   0.000491
    12  C   -0.000001  -0.000052  -0.000011  -0.000999  -0.003029  -0.001066
    13  H    0.000000   0.000000   0.000000  -0.000201   0.000760  -0.000163
    14  H    0.000000  -0.000001  -0.000000   0.000207  -0.000911   0.004788
    15  O   -0.000118  -0.000354   0.000037   0.000058  -0.000000  -0.101775
    16  O    0.000000   0.000000   0.000005  -0.016884   0.050641   0.000010
    17  H    0.000000   0.000000  -0.000001   0.003111  -0.003764  -0.000001
    18  O    0.233612   0.001138  -0.000115  -0.000019   0.000003   0.000002
    19  H    0.383374  -0.000011  -0.000015  -0.000003  -0.000000  -0.000000
    20  O   -0.000011   8.282636   0.232984  -0.003452   0.000014  -0.000000
    21  H   -0.000015   0.232984   0.366770   0.017392  -0.000336   0.000000
    22  O   -0.000003  -0.003452   0.017392   8.357138   0.220967   0.000001
    23  H   -0.000000   0.000014  -0.000336   0.220967   0.343532  -0.000000
    24  O   -0.000000  -0.000000   0.000000   0.000001  -0.000000   8.513349
    25  H    0.000004   0.000009  -0.000002  -0.000005  -0.000000   0.131628
    26  H    0.000004   0.000003   0.000000  -0.000033   0.000002   0.127278
    27  H    0.000000   0.000000   0.000000  -0.000000   0.000000   0.225580
    28  O    0.000009  -0.009328   0.000382   0.000000  -0.000000  -0.000000
    29  H   -0.000003   0.000652  -0.000000   0.000000   0.000000   0.000034
    30  H    0.000003   0.035724  -0.001093  -0.000002   0.000000   0.000000
              25         26         27         28         29         30
     1  C    0.000314   0.002358   0.000024  -0.000063  -0.000074   0.000072
     2  C    0.004065   0.002060   0.000061  -0.009735   0.001490   0.001133
     3  O    0.009812   0.110432   0.003747  -0.000003   0.000125   0.000001
     4  C   -0.022373  -0.011689   0.000592  -0.000256  -0.003003  -0.000144
     5  C   -0.000890  -0.014628  -0.000196  -0.000001   0.000008   0.000003
     6  C   -0.000356  -0.000142  -0.000004  -0.000201   0.000363  -0.002617
     7  H   -0.003966   0.000854   0.000124  -0.000062   0.000363   0.000002
     8  H    0.000006  -0.000001   0.000000  -0.000044   0.000013   0.000374
     9  H   -0.000015  -0.000068  -0.000001   0.037700  -0.003354  -0.003858
    10  H    0.000047   0.001103   0.000009  -0.000000   0.000001   0.000000
    11  H    0.000059   0.000162  -0.000000  -0.000052   0.000313   0.000383
    12  C    0.000022  -0.002877   0.000068  -0.000000   0.000000   0.000000
    13  H    0.000009   0.001826   0.000009   0.000000  -0.000000  -0.000000
    14  H    0.000241   0.001029  -0.000076   0.000000  -0.000000  -0.000000
    15  O    0.125302   0.012309   0.004176  -0.008466   0.034698   0.000936
    16  O   -0.000000   0.000058  -0.000000   0.000000  -0.000000  -0.000000
    17  H    0.000000   0.000010   0.000000  -0.000000   0.000000  -0.000000
    18  O   -0.000056  -0.000016  -0.000001   0.000063   0.000001   0.000001
    19  H    0.000004   0.000004   0.000000   0.000009  -0.000003   0.000003
    20  O    0.000009   0.000003   0.000000  -0.009328   0.000652   0.035724
    21  H   -0.000002   0.000000   0.000000   0.000382  -0.000000  -0.001093
    22  O   -0.000005  -0.000033  -0.000000   0.000000   0.000000  -0.000002
    23  H   -0.000000   0.000002   0.000000  -0.000000   0.000000   0.000000
    24  O    0.131628   0.127278   0.225580  -0.000000   0.000034   0.000000
    25  H    0.312271  -0.021098  -0.003346   0.000027   0.000116  -0.000006
    26  H   -0.021098   0.319025  -0.002344   0.000001  -0.000019  -0.000001
    27  H   -0.003346  -0.002344   0.363321   0.000000  -0.000004  -0.000000
    28  O    0.000027   0.000001   0.000000   8.358240   0.236875   0.235807
    29  H    0.000116  -0.000019  -0.000004   0.236875   0.352233  -0.025816
    30  H   -0.000006  -0.000001  -0.000000   0.235807  -0.025816   0.354852
 Mulliken charges:
               1
     1  C    0.085825
     2  C    0.046455
     3  O   -0.646631
     4  C    0.328181
     5  C    0.117494
     6  C    0.141176
     7  H    0.146171
     8  H    0.134116
     9  H    0.190637
    10  H    0.145258
    11  H    0.150723
    12  C   -0.092104
    13  H    0.153146
    14  H    0.185160
    15  O   -0.637726
    16  O   -0.617266
    17  H    0.405785
    18  O   -0.634278
    19  H    0.402441
    20  O   -0.650554
    21  H    0.415603
    22  O   -0.678888
    23  H    0.419453
    24  O   -0.829360
    25  H    0.468179
    26  H    0.474400
    27  H    0.408262
    28  O   -0.840892
    29  H    0.404988
    30  H    0.404245
 Sum of Mulliken charges =  -0.00000
 Mulliken charges with hydrogens summed into heavy atoms:
               1
     1  C    0.236548
     2  C    0.237092
     3  O   -0.172231
     4  C    0.474352
     5  C    0.262752
     6  C    0.275293
    12  C    0.246202
    15  O   -0.637726
    16  O   -0.211482
    18  O   -0.231837
    20  O   -0.234951
    22  O   -0.259435
    24  O    0.047081
    28  O   -0.031659
 APT charges:
               1
     1  C   -0.105114
     2  C   -0.291495
     3  O   -0.424256
     4  C   -0.268201
     5  C   -0.264640
     6  C   -0.259706
     7  H    0.505335
     8  H    0.403437
     9  H    0.430478
    10  H    0.394198
    11  H    0.276444
    12  C   -0.685748
    13  H    0.528161
    14  H    0.337289
    15  O   -0.481877
    16  O   -0.791620
    17  H    0.709348
    18  O   -0.954742
    19  H    0.808350
    20  O   -0.795889
    21  H    0.657568
    22  O   -0.835251
    23  H    0.628455
    24  O   -1.256464
    25  H    0.368510
    26  H    0.406500
    27  H    0.900610
    28  O   -0.435536
    29  H    0.214891
    30  H    0.280964
 Sum of APT charges =  -0.00000
 APT charges with hydrogens summed into heavy atoms:
               1
     1  C    0.171330
     2  C    0.138982
     3  O   -0.017756
     4  C    0.237134
     5  C    0.129558
     6  C    0.143731
    12  C    0.179703
    15  O   -0.481877
    16  O   -0.082272
    18  O   -0.146392
    20  O   -0.138321
    22  O   -0.206796
    24  O    0.012656
    28  O    0.060318
 Electronic spatial extent (au):  <R**2>=           3021.9654
 Charge=             -0.0000 electrons
 Dipole moment (field-independent basis, Debye):
    X=              5.1113    Y=              0.4985    Z=              2.9736  Tot=              5.9343
 Quadrupole moment (field-independent basis, Debye-Ang):
   XX=            -96.1298   YY=            -71.1061   ZZ=            -86.3567
   XY=              1.7185   XZ=             -4.1483   YZ=             -1.3121
 Traceless Quadrupole moment (field-independent basis, Debye-Ang):
   XX=            -11.5989   YY=             13.4248   ZZ=             -1.8259
   XY=              1.7185   XZ=             -4.1483   YZ=             -1.3121
 Octapole moment (field-independent basis, Debye-Ang**2):
  XXX=             95.0494  YYY=             51.2633  ZZZ=             -5.3103  XYY=             -2.4646
  XXY=            -13.8495  XXZ=             58.2780  XZZ=             -0.3305  YZZ=            -20.0189
  YYZ=              2.4673  XYZ=              0.3243
 Hexadecapole moment (field-independent basis, Debye-Ang**3):
 XXXX=          -2195.4327 YYYY=           -821.6810 ZZZZ=           -564.5076 XXXY=            -28.6463
 XXXZ=            -50.9240 YYYX=             22.1816 YYYZ=             13.0642 ZZZX=            -31.3962
 ZZZY=            -21.8236 XXYY=           -455.3008 XXZZ=           -419.8711 YYZZ=           -252.6997
 XXYZ=            -22.5194 YYXZ=             12.2111 ZZXY=             16.5811
 N-N= 1.122355717711D+03 E-N=-4.216808759022D+03  KE= 8.328215354457D+02
  Exact polarizability:   0.000   0.000   0.000   0.000   0.000   0.000
 Approx polarizability: 139.204  -1.262 137.613   7.183  -4.008 129.441
 Calling FoFJK, ICntrl=    100147 FMM=F ISym2X=0 I1Cent= 0 IOpClX= 0 NMat=1 NMatS=1 NMatT=0.
 ***** Axes restored to original set *****
 -------------------------------------------------------------------
 Center     Atomic                   Forces (Hartrees/Bohr)
 Number     Number              X              Y              Z
 -------------------------------------------------------------------
      1        6          -0.000026178    0.000001352   -0.000012803
      2        6          -0.000017296    0.000004302   -0.000013106
      3        8           0.000003311    0.000016385   -0.000009157
      4        6          -0.000002253   -0.000000888    0.000006253
      5        6          -0.000017004   -0.000014449   -0.000000941
      6        6          -0.000014353   -0.000017252    0.000005415
      7        1          -0.000000131    0.000004766    0.000043424
      8        1           0.000018751    0.000034634    0.000014963
      9        1          -0.000027882   -0.000002321    0.000057292
     10        1          -0.000012090   -0.000003866   -0.000005810
     11        1          -0.000040452    0.000029713   -0.000012903
     12        6           0.000056375   -0.000085904    0.000100739
     13        1          -0.000044100    0.000001332   -0.000059557
     14        1          -0.000006607    0.000023205   -0.000105869
     15        8          -0.000023742    0.000025102    0.000018670
     16        8          -0.000064972    0.000011615   -0.000041242
     17        1           0.000081663   -0.000018095    0.000137540
     18        8           0.000034368   -0.000147573    0.000056020
     19        1           0.000034571    0.000091364   -0.000013320
     20        8           0.000007538   -0.000034639    0.000019906
     21        1          -0.000017922    0.000019102    0.000018934
     22        8          -0.000034789    0.000006997   -0.000036424
     23        1           0.000014374    0.000012711    0.000012452
     24        8           0.000010972    0.000100231    0.000016621
     25        1          -0.000001877    0.000005914    0.000006065
     26        1          -0.000013014   -0.000011628   -0.000011264
     27        1          -0.000006924   -0.000125698    0.000001521
     28        8           0.000268232    0.000140853    0.000284843
     29        1          -0.000108405   -0.000065616   -0.000325016
     30        1          -0.000050163   -0.000001649   -0.000153250
 -------------------------------------------------------------------
 Cartesian Forces:  Max     0.000325016 RMS     0.000072569

 GradGradGradGradGradGradGradGradGradGradGradGradGradGradGradGradGradGrad
 Berny optimization.
 Search for a saddle point.
 Step number   1 out of a maximum of  180
 All quantities printed in internal units (Hartrees-Bohrs-Radians)
 Swapping is turned off.
 Second derivative matrix not updated -- analytic derivatives used.
 ITU=  0
     Eigenvalues ---   -0.12617   0.00019   0.00135   0.00199   0.00214
     Eigenvalues ---    0.00239   0.00357   0.00394   0.00462   0.00512
     Eigenvalues ---    0.00563   0.00626   0.00762   0.00994   0.01138
     Eigenvalues ---    0.01189   0.01406   0.01569   0.01676   0.01955
     Eigenvalues ---    0.02274   0.02549   0.02631   0.02818   0.02987
     Eigenvalues ---    0.03945   0.04037   0.04600   0.04804   0.05152
     Eigenvalues ---    0.05346   0.05648   0.06137   0.06233   0.06843
     Eigenvalues ---    0.07231   0.07672   0.08298   0.08457   0.09157
     Eigenvalues ---    0.09953   0.10788   0.11390   0.11870   0.12548
     Eigenvalues ---    0.13064   0.15126   0.15848   0.16772   0.17852
     Eigenvalues ---    0.18355   0.19332   0.20591   0.21602   0.23482
     Eigenvalues ---    0.24042   0.25927   0.27660   0.31413   0.34309
     Eigenvalues ---    0.38883   0.44038   0.48984   0.55243   0.57816
     Eigenvalues ---    0.62446   0.63197   0.65908   0.69186   0.72007
     Eigenvalues ---    0.77100   0.81475   0.83432   0.85581   0.86808
     Eigenvalues ---    0.87759   0.93045   0.98641   1.00329   1.02908
     Eigenvalues ---    1.04627   1.04877   1.06848   1.09182
 Eigenvectors required to have negative eigenvalues:
                          Y26       X25       Y25       Z26       X4
   1                    0.48887  -0.43284  -0.39402  -0.35587   0.32791
                          X3        X15       Z24       X24       Y15
   1                   -0.24582   0.15708   0.13157   0.12860   0.11023
 RFO step:  Lambda0=1.125716353D-09 Lambda=-1.89971985D-05.
 Linear search not attempted -- option 19 set.
 B after Tr=    -0.000132   -0.000187    0.000271
         Rot=    1.000000   -0.000122   -0.000042    0.000062 Ang=  -0.02 deg.
 Variable       Old X    -DE/DX   Delta X   Delta X   Delta X     New X
                                 (Linear)    (Quad)   (Total)
    X1        1.09633  -0.00003   0.00000  -0.00472  -0.00513   1.09120
    Y1       -1.77613   0.00000   0.00000   0.00108   0.00094  -1.77520
    Z1       -0.72200  -0.00001   0.00000  -0.00363  -0.00388  -0.72588
    X2       -2.78200  -0.00002   0.00000  -0.00030  -0.00032  -2.78231
    Y2       -0.34734   0.00000   0.00000  -0.00028  -0.00059  -0.34792
    Z2        1.89475  -0.00001   0.00000   0.00259   0.00300   1.89775
    X3        1.35098   0.00000   0.00000   0.00111   0.00138   1.35236
    Y3        2.23172   0.00002   0.00000  -0.00112  -0.00186   2.22986
    Z3        1.59868  -0.00001   0.00000  -0.00124  -0.00054   1.59814
    X4       -1.88368  -0.00000   0.00000  -0.00115  -0.00091  -1.88459
    Y4        2.25223  -0.00000   0.00000   0.00050   0.00028   2.25251
    Z4        1.07953   0.00001   0.00000   0.00306   0.00404   1.08357
    X5        2.69059  -0.00002   0.00000  -0.00115  -0.00121   2.68938
    Y5       -0.06822  -0.00001   0.00000  -0.00080  -0.00156  -0.06978
    Z5        1.00708  -0.00000   0.00000  -0.00521  -0.00518   1.00190
    X6       -1.38173  -0.00001   0.00000  -0.00086  -0.00126  -1.38299
    Y6       -2.53969  -0.00002   0.00000  -0.00064  -0.00079  -2.54048
    Z6        0.55254   0.00001   0.00000   0.00246   0.00222   0.55477
    X7       -2.21443  -0.00000   0.00000   0.00196   0.00250  -2.21193
    Y7        3.68650   0.00000   0.00000  -0.00154  -0.00207   3.68442
    Z7        2.54515   0.00004   0.00000   0.00585   0.00720   2.55236
    X8       -0.88502   0.00002   0.00000   0.00442   0.00397  -0.88105
    Y8       -3.91385   0.00003   0.00000   0.00305   0.00247  -3.91137
    Z8        2.03335   0.00001   0.00000   0.00398   0.00336   2.03671
    X9       -4.78600  -0.00003   0.00000  -0.00087  -0.00094  -4.78694
    Y9       -0.43719  -0.00000   0.00000   0.00016   0.00023  -0.43696
    Z9        1.35628   0.00006   0.00000   0.00465   0.00521   1.36149
   X10        3.02372  -0.00001   0.00000   0.00220   0.00217   3.02589
   Y10       -1.06176  -0.00000   0.00000  -0.00221  -0.00345  -1.06522
   Z10        2.80020  -0.00001   0.00000  -0.00654  -0.00678   2.79342
   X11        0.64725  -0.00004   0.00000  -0.00956  -0.00998   0.63727
   Y11       -0.72925   0.00003   0.00000   0.00378   0.00412  -0.72513
   Z11       -2.45828  -0.00001   0.00000  -0.00094  -0.00090  -2.45919
   X12        5.23810   0.00006   0.00000  -0.00280  -0.00287   5.23523
   Y12        0.68620  -0.00009   0.00000  -0.00319  -0.00398   0.68222
   Z12       -0.17760   0.00010   0.00000  -0.00968  -0.00968  -0.18729
   X13        6.24149  -0.00004   0.00000  -0.00690  -0.00670   6.23479
   Y13        1.97384   0.00000   0.00000   0.00993   0.00870   1.98254
   Z13        1.10597  -0.00006   0.00000  -0.01994  -0.01970   1.08627
   X14        4.91297  -0.00001   0.00000  -0.00384  -0.00393   4.90904
   Y14        1.68856   0.00002   0.00000  -0.01838  -0.01869   1.66987
   Z14       -1.95548  -0.00011   0.00000  -0.01850  -0.01823  -1.97372
   X15       -2.26561  -0.00002   0.00000  -0.00259  -0.00247  -2.26807
   Y15        2.86735   0.00003   0.00000   0.00464   0.00504   2.87240
   Z15       -1.27530   0.00002   0.00000   0.00462   0.00579  -1.26952
   X16        6.77320  -0.00006   0.00000   0.00174   0.00136   6.77455
   Y16       -1.44695   0.00001   0.00000  -0.00551  -0.00634  -1.45329
   Z16       -0.81176  -0.00004   0.00000   0.00940   0.00875  -0.80301
   X17        7.27492   0.00008   0.00000   0.00735   0.00700   7.28192
   Y17       -2.27211  -0.00002   0.00000   0.01211   0.01084  -2.26127
   Z17        0.74835   0.00014   0.00000   0.01719   0.01629   0.76464
   X18       -2.44011   0.00003   0.00000   0.00341   0.00361  -2.43650
   Y18       -0.46463  -0.00015   0.00000  -0.00109  -0.00209  -0.46673
   Z18        4.56330   0.00006   0.00000   0.00250   0.00286   4.56616
   X19       -3.46934   0.00003   0.00000  -0.00339  -0.00331  -3.47265
   Y19       -1.84405   0.00009   0.00000   0.00532   0.00429  -1.83976
   Z19        5.19048  -0.00001   0.00000   0.00482   0.00493   5.19541
   X20       -3.02032   0.00001   0.00000  -0.00250  -0.00320  -3.02352
   Y20       -3.70590  -0.00003   0.00000  -0.00669  -0.00620  -3.71210
   Z20       -1.24139   0.00002   0.00000   0.00782   0.00744  -1.23395
   X21       -1.98391  -0.00002   0.00000  -0.00215  -0.00307  -1.98699
   Y21       -4.90787   0.00002   0.00000  -0.00764  -0.00706  -4.91493
   Z21       -2.16899   0.00002   0.00000   0.00948   0.00872  -2.16028
   X22        2.33696  -0.00003   0.00000  -0.00562  -0.00637   2.33059
   Y22       -4.09684   0.00001   0.00000   0.00236   0.00221  -4.09464
   Z22       -1.28823  -0.00004   0.00000  -0.01017  -0.01109  -1.29932
   X23        4.03287   0.00001   0.00000   0.00036  -0.00038   4.03249
   Y23       -3.67537   0.00001   0.00000   0.00074   0.00052  -3.67486
   Z23       -1.87859   0.00001   0.00000   0.00557   0.00461  -1.87398
   X24        1.42015   0.00001   0.00000  -0.00305  -0.00265   1.41750
   Y24        5.43176   0.00010   0.00000   0.00542   0.00545   5.43721
   Z24       -1.60174   0.00002   0.00000   0.00534   0.00682  -1.59491
   X25       -0.57485  -0.00000   0.00000  -0.00344  -0.00316  -0.57800
   Y25        4.55522   0.00001   0.00000   0.00514   0.00546   4.56068
   Z25       -1.77687   0.00001   0.00000   0.00639   0.00783  -1.76905
   X26        1.77537  -0.00001   0.00000  -0.00054  -0.00018   1.77519
   Y26        3.92925  -0.00001   0.00000   0.00067   0.00023   3.92948
   Z26        0.15278  -0.00001   0.00000  -0.00003   0.00105   0.15383
   X27        1.28333  -0.00001   0.00000  -0.00378  -0.00311   1.28022
   Y27        7.15556  -0.00013   0.00000   0.00219   0.00208   7.15764
   Z27       -0.98548   0.00000   0.00000   0.01365   0.01556  -0.96992
   X28       -6.86961   0.00027   0.00000   0.01428   0.01393  -6.85568
   Y28        0.03321   0.00014   0.00000   0.00120   0.00250   0.03571
   Z28       -2.60410   0.00028   0.00000  -0.00536  -0.00451  -2.60861
   X29       -5.55708  -0.00011   0.00000   0.01623   0.01604  -5.54104
   Y29        1.32408  -0.00007   0.00000  -0.00142  -0.00028   1.32380
   Z29       -2.60790  -0.00033   0.00000  -0.02672  -0.02566  -2.63356
   X30       -5.87207  -0.00005   0.00000   0.00971   0.00917  -5.86290
   Y30       -1.51162  -0.00000   0.00000  -0.00158  -0.00040  -1.51203
   Z30       -2.62244  -0.00015   0.00000  -0.00992  -0.00953  -2.63197
         Item               Value     Threshold  Converged?
 Maximum Force            0.000325     0.000450     YES
 RMS     Force            0.000073     0.000300     YES
 Maximum Displacement     0.025660     0.001800     NO 
 RMS     Displacement     0.007163     0.001200     NO 
 Predicted change in Energy=-9.636348D-06
 GradGradGradGradGradGradGradGradGradGradGradGradGradGradGradGradGradGrad

                          Input orientation:                          
 ---------------------------------------------------------------------
 Center     Atomic      Atomic             Coordinates (Angstroms)
 Number     Number       Type             X           Y           Z
 ---------------------------------------------------------------------
      1          6           0        0.577439   -0.939393   -0.384119
      2          6           0       -1.472336   -0.184113    1.004247
      3          8           0        0.715640    1.179989    0.845698
      4          6           0       -0.997283    1.191977    0.573402
      5          6           0        1.423161   -0.036925    0.530182
      6          6           0       -0.731845   -1.344363    0.293570
      7          1           0       -1.170504    1.949714    1.350648
      8          1           0       -0.466231   -2.069810    1.077782
      9          1           0       -2.533141   -0.231227    0.720472
     10          1           0        1.601234   -0.563689    1.478216
     11          1           0        0.337228   -0.383724   -1.301345
     12          6           0        2.770364    0.361017   -0.099108
     13          1           0        3.299311    1.049117    0.574829
     14          1           0        2.597754    0.883656   -1.044445
     15          8           0       -1.200213    1.520007   -0.671800
     16          8           0        3.584939   -0.769046   -0.424935
     17          1           0        3.853428   -1.196615    0.404631
     18          8           0       -1.289341   -0.246982    2.416309
     19          1           0       -1.837647   -0.973560    2.749292
     20          8           0       -1.599979   -1.964356   -0.652978
     21          1           0       -1.051468   -2.600869   -1.143170
     22          8           0        1.233296   -2.166789   -0.687570
     23          1           0        2.133901   -1.944650   -0.991667
     24          8           0        0.750111    2.877250   -0.843993
     25          1           0       -0.305866    2.413406   -0.936139
     26          1           0        0.939392    2.079389    0.081403
     27          1           0        0.677462    3.787660   -0.513260
     28          8           0       -3.627870    0.018898   -1.380417
     29          1           0       -2.932192    0.700525   -1.393622
     30          1           0       -3.102515   -0.800130   -1.392780
 ---------------------------------------------------------------------
                    Distance matrix (angstroms):
                    1          2          3          4          5
     1  C    0.000000
     2  C    2.588356   0.000000
     3  O    2.454247   2.583244   0.000000
     4  C    2.817683   1.518198   1.734472   0.000000
     5  C    1.538064   2.937738   1.442573   2.714888   0.000000
     6  C    1.528885   1.549054   2.961826   2.565499   2.531685
     7  H    3.796269   2.182730   2.098807   1.099219   3.368531
     8  H    2.122321   2.138576   3.465815   3.343003   2.828831
     9  H    3.375993   1.099115   3.544261   2.099047   3.965638
    10  H    2.158148   3.132979   2.055424   3.263946   1.099071
    11  H    1.098987   2.937707   2.682944   2.788984   2.157316
    12  C    2.565388   4.417585   2.405257   3.916366   1.539260
    13  H    3.504617   4.947107   2.601125   4.298968   2.168276
    14  H    2.800216   4.680054   2.683804   3.954337   2.169468
    15  O    3.048189   2.405661   2.467571   1.303576   3.278855
    16  O    3.012597   5.287791   3.694065   5.083212   2.474173
    17  H    3.379407   5.454215   3.960870   5.409551   2.695707
    18  O    3.436088   1.425258   2.919421   2.356313   3.310478
    19  H    3.956271   1.949837   3.844571   3.182808   4.053962
    20  O    2.421566   2.435560   4.182706   3.439432   3.775478
    21  H    2.447448   3.260252   4.623111   4.163561   3.936712
    22  O    1.424335   3.756819   3.717499   4.224552   2.460749
    23  H    1.949931   4.481976   3.892396   4.700232   2.541769
    24  O    3.848124   4.210368   2.395190   2.811145   3.291469
    25  H    3.510871   3.445701   2.395774   2.061228   3.338226
    26  H    3.075836   3.433877   1.201304   2.186384   2.216805
    27  H    4.729874   4.764392   2.940777   3.274626   4.033893
    28  O    4.426687   3.220894   5.016951   3.480447   5.400594
    29  H    4.003241   2.943389   4.307101   2.802603   4.818086
    30  H    3.818226   2.963562   4.848707   3.502337   4.976144
                    6          7          8          9         10
     6  C    0.000000
     7  H    3.487231   0.000000
     8  H    1.100823   4.089869   0.000000
     9  H    2.160089   2.647716   2.789296   0.000000
    10  H    2.730586   3.743795   2.589046   4.216369   0.000000
    11  H    2.146975   3.840737   3.024678   3.514259   3.058768
    12  C    3.915097   4.489565   4.215393   5.399039   2.170229
    13  H    4.696602   4.625172   4.915280   5.973105   2.510123
    14  H    4.223812   4.590504   4.755503   5.539312   3.074358
    15  O    3.058745   2.067807   4.060363   2.604215   4.100300
    16  O    4.413826   5.758350   4.512441   6.247568   2.756672
    17  H    4.588996   6.002851   4.458144   6.466837   2.574015
    18  O    2.453786   2.444428   2.406629   2.103129   3.055445
    19  H    2.718615   3.308597   2.424148   2.269555   3.689111
    20  O    1.426185   4.418021   2.071723   2.400186   4.092875
    21  H    1.935249   5.190482   2.357362   3.359125   4.249541
    22  O    2.345378   5.184417   2.452400   4.462625   2.719547
    23  H    3.197605   5.618862   3.325503   5.258186   2.879429
    24  O    4.616520   3.060316   5.444824   4.784341   4.237584
    25  H    3.976742   2.488374   4.917400   3.833953   4.281265
    26  H    3.815774   2.465656   4.492705   4.219697   3.061859
    27  H    5.382823   3.204244   6.176520   5.289756   4.873763
    28  O    3.612157   4.150351   4.516791   2.382169   5.987881
    29  H    3.445245   3.492139   4.456856   2.344525   5.513406
    30  H    2.959737   4.338283   3.829590   2.261343   5.515775
                   11         12         13         14         15
    11  H    0.000000
    12  C    2.814278   0.000000
    13  H    3.787743   1.098844   0.000000
    14  H    2.604271   1.093895   1.772458   0.000000
    15  O    2.526706   4.175729   4.692711   3.868897   0.000000
    16  O    3.385882   1.430643   2.094476   2.022313   5.310215
    17  H    3.991842   1.962905   2.319337   2.829145   5.837638
    18  O    4.060219   4.814373   5.111423   5.325849   3.559018
    19  H    4.635262   5.579270   5.933621   6.124907   4.281130
    20  O    2.582934   4.981368   5.881460   5.087768   3.507271
    21  H    2.620921   4.946638   5.933228   5.046631   4.150414
    22  O    2.087816   3.016400   4.025434   3.360702   4.417542
    23  H    2.400088   2.553008   3.574176   2.866576   4.818971
    24  O    3.318674   3.311752   3.442897   2.725506   2.382336
    25  H    2.893248   3.791584   4.140242   3.283729   1.291470
    26  H    2.888170   2.517507   2.621859   2.333983   2.336265
    27  H    4.258789   4.036538   3.944318   3.521778   2.948398
    28  O    3.986271   6.534232   7.271188   6.294369   2.940915
    29  H    3.445754   5.857489   6.544306   5.543985   2.047518
    30  H    3.466062   6.124749   6.947990   5.953951   3.085709
                   16         17         18         19         20
    16  O    0.000000
    17  H    0.971123   0.000000
    18  O    5.666023   5.603277   0.000000
    19  H    6.286652   6.159182   0.969244   0.000000
    20  O    5.325800   5.607816   3.530779   3.551565   0.000000
    21  H    5.036636   5.331568   4.274022   4.291559   0.972780
    22  O    2.748252   2.999872   4.436600   4.760936   2.840707
    23  H    1.951600   2.337943   5.120055   5.541750   3.749260
    24  O    4.637600   5.271243   4.954771   5.868299   5.385216
    25  H    5.052494   5.668301   4.391332   5.234530   4.573807
    26  H    3.920316   4.396394   3.978824   4.914273   4.831107
    27  H    5.405996   5.980993   5.359947   6.295970   6.188049
    28  O    7.318361   7.786763   4.467051   4.609161   2.928277
    29  H    6.750629   7.271691   4.255856   4.600471   3.070006
    30  H    6.757198   7.195347   4.254731   4.334367   2.039692
                   21         22         23         24         25
    21  H    0.000000
    22  O    2.369840   0.000000
    23  H    3.255787   0.976171   0.000000
    24  O    5.774511   5.069542   5.018705   0.000000
    25  H    5.073632   4.838284   4.994817   1.157034   0.000000
    26  H    5.231436   4.325243   4.332577   1.236433   1.642445
    27  H    6.648255   5.982875   5.933756   0.971344   1.741934
    28  O    3.682026   5.374774   6.099561   5.255915   4.119073
    29  H    3.807763   5.106005   5.729207   4.312723   3.168729
    30  H    2.740759   4.600471   5.375022   5.354158   4.284458
                   26         27         28         29         30
    26  H    0.000000
    27  H    1.827681   0.000000
    28  O    5.219428   5.787177   0.000000
    29  H    4.366478   4.830636   0.974042   0.000000
    30  H    5.177051   6.009126   0.973117   1.510290   0.000000
 Stoichiometry    C6H16O8
 Framework group  C1[X(C6H16O8)]
 Deg. of freedom    84
 Full point group                 C1      NOp   1
 Largest Abelian subgroup         C1      NOp   1
 Largest concise Abelian subgroup C1      NOp   1
                         Standard orientation:                         
 ---------------------------------------------------------------------
 Center     Atomic      Atomic             Coordinates (Angstroms)
 Number     Number       Type             X           Y           Z
 ---------------------------------------------------------------------
      1          6           0        0.577973   -0.939256   -0.383644
      2          6           0       -1.472404   -0.183838    1.003758
      3          8           0        0.715086    1.180996    0.844795
      4          6           0       -0.997781    1.192147    0.572105
      5          6           0        1.423143   -0.035857    0.530248
      6          6           0       -0.731308   -1.344277    0.294020
      7          1           0       -1.171467    1.950334    1.348809
      8          1           0       -0.465593   -2.069100    1.078774
      9          1           0       -2.533127   -0.231547    0.719776
     10          1           0        1.601205   -0.561922    1.478672
     11          1           0        0.337756   -0.384289   -1.301293
     12          6           0        2.770335    0.362183   -0.099004
     13          1           0        3.298867    1.050934    0.574595
     14          1           0        2.597739    0.884127   -1.044727
     15          8           0       -1.200556    1.519271   -0.673360
     16          8           0        3.585417   -0.767784   -0.423896
     17          1           0        3.853882   -1.194698    0.406015
     18          8           0       -1.289703   -0.245699    2.415903
     19          1           0       -1.837807   -0.972265    2.749246
     20          8           0       -1.598991   -1.965232   -0.652312
     21          1           0       -1.050126   -2.601860   -1.141957
     22          8           0        1.234368   -2.166602   -0.686131
     23          1           0        2.134956   -1.944321   -0.990173
     24          8           0        0.749287    2.877146   -0.846016
     25          1           0       -0.306491    2.412837   -0.938091
     26          1           0        0.938665    2.079974    0.079953
     27          1           0        0.676215    3.787748   -0.515905
     28          8           0       -3.627478    0.016761   -1.381526
     29          1           0       -2.932058    0.698646   -1.395027
     30          1           0       -3.101806   -0.802073   -1.393226
 ---------------------------------------------------------------------
 Rotational constants (GHZ):      0.7690785      0.5038990      0.4125523
 Standard basis: 6-31G(d) (6D, 7F)
 There are   242 symmetry adapted cartesian basis functions of A   symmetry.
 There are   242 symmetry adapted basis functions of A   symmetry.
   242 basis functions,   456 primitive gaussians,   242 cartesian basis functions
    58 alpha electrons       58 beta electrons
       nuclear repulsion energy      1122.3679017061 Hartrees.
 NAtoms=   30 NActive=   30 NUniq=   30 SFac= 1.00D+00 NAtFMM=   60 NAOKFM=F Big=F
 Integral buffers will be    131072 words long.
 Raffenetti 2 integral format.
 Two-electron integral symmetry is turned on.
 One-electron integrals computed using PRISM.
 NBasis=   242 RedAO= T EigKep=  1.27D-03  NBF=   242
 NBsUse=   242 1.00D-06 EigRej= -1.00D+00 NBFU=   242
 Initial guess from the checkpoint file:  "/scratch/10489869.yak.local/Gau-12919.chk"
 B after Tr=     0.000000   -0.000000    0.000000
         Rot=    1.000000    0.000105    0.000053   -0.000082 Ang=   0.02 deg.
 ExpMin= 1.61D-01 ExpMax= 5.48D+03 ExpMxC= 8.25D+02 IAcc=1 IRadAn=         1 AccDes= 0.00D+00
 Harris functional with IExCor=  402 and IRadAn=       1 diagonalized for initial guess.
 HarFok:  IExCor=  402 AccDes= 0.00D+00 IRadAn=         1 IDoV= 1 UseB2=F ITyADJ=14
 ICtDFT=  3500011 ScaDFX=  1.000000  1.000000  1.000000  1.000000
 FoFCou: FMM=F IPFlag=           0 FMFlag=      100000 FMFlg1=           0
         NFxFlg=           0 DoJE=T BraDBF=F KetDBF=T FulRan=T
         wScrn=  0.000000 ICntrl=     500 IOpCl=  0 I1Cent=   200000004 NGrid=           0
         NMat0=    1 NMatS0=      1 NMatT0=    0 NMatD0=    1 NMtDS0=    0 NMtDT0=    0
 Petite list used in FoFCou.
 Requested convergence on RMS density matrix=1.00D-08 within 128 cycles.
 Requested convergence on MAX density matrix=1.00D-06.
 Requested convergence on             energy=1.00D-06.
 No special actions if energy rises.
 Integral accuracy reduced to 1.0D-05 until final iterations.
 Initial convergence to 1.0D-05 achieved.  Increase integral accuracy.
 SCF Done:  E(RB3LYP) =  -839.950236740     A.U. after    9 cycles
            NFock=  9  Conv=0.79D-08     -V/T= 2.0086
 Calling FoFJK, ICntrl=      2127 FMM=F ISym2X=0 I1Cent= 0 IOpClX= 0 NMat=1 NMatS=1 NMatT=0.
 ***** Axes restored to original set *****
 -------------------------------------------------------------------
 Center     Atomic                   Forces (Hartrees/Bohr)
 Number     Number              X              Y              Z
 -------------------------------------------------------------------
      1        6          -0.000006139   -0.000003351   -0.000000570
      2        6          -0.000001713    0.000004206   -0.000002199
      3        8           0.000003328   -0.000001783    0.000000470
      4        6           0.000001550    0.000004913   -0.000004518
      5        6          -0.000001705   -0.000001720    0.000001266
      6        6          -0.000004764    0.000000125   -0.000002786
      7        1           0.000002346    0.000000297   -0.000001119
      8        1          -0.000003814    0.000001989   -0.000003306
      9        1           0.000000265    0.000002765    0.000001472
     10        1          -0.000001622   -0.000001344   -0.000000998
     11        1           0.000000584   -0.000002244    0.000002607
     12        6           0.000014925   -0.000003318   -0.000004852
     13        1          -0.000006979   -0.000020822   -0.000015327
     14        1           0.000008532   -0.000017095    0.000022695
     15        8           0.000009826    0.000003960    0.000004545
     16        8           0.000002202   -0.000014249    0.000050723
     17        1          -0.000018394    0.000019859   -0.000043572
     18        8          -0.000011173   -0.000006994    0.000001792
     19        1           0.000004662    0.000011963   -0.000003971
     20        8          -0.000003614    0.000008438    0.000000078
     21        1          -0.000003069    0.000001796    0.000000482
     22        8           0.000027916    0.000009366   -0.000013042
     23        1          -0.000035214   -0.000013702    0.000013239
     24        8           0.000011142    0.000008049    0.000005892
     25        1           0.000002046    0.000000079    0.000001005
     26        1           0.000001853   -0.000001687    0.000000999
     27        1           0.000005905   -0.000011032   -0.000001808
     28        8           0.000050501    0.000052068   -0.000002338
     29        1          -0.000045093   -0.000036912   -0.000004090
     30        1          -0.000004289    0.000006380   -0.000002769
 -------------------------------------------------------------------
 Cartesian Forces:  Max     0.000052068 RMS     0.000014860

 GradGradGradGradGradGradGradGradGradGradGradGradGradGradGradGradGradGrad
 Berny optimization.
 Search for a saddle point.
 Step number   2 out of a maximum of  180
 All quantities printed in internal units (Hartrees-Bohrs-Radians)
 Swapping is turned off.
 Update second derivatives using D2CorN and points    1    2
 ITU=  0  0
     Eigenvalues ---   -0.12617   0.00019   0.00135   0.00200   0.00213
     Eigenvalues ---    0.00239   0.00357   0.00394   0.00462   0.00512
     Eigenvalues ---    0.00563   0.00625   0.00762   0.00994   0.01138
     Eigenvalues ---    0.01189   0.01406   0.01569   0.01676   0.01955
     Eigenvalues ---    0.02274   0.02548   0.02630   0.02818   0.02987
     Eigenvalues ---    0.03945   0.04037   0.04600   0.04804   0.05152
     Eigenvalues ---    0.05346   0.05649   0.06137   0.06233   0.06842
     Eigenvalues ---    0.07231   0.07672   0.08299   0.08457   0.09157
     Eigenvalues ---    0.09954   0.10788   0.11390   0.11870   0.12547
     Eigenvalues ---    0.13064   0.15125   0.15848   0.16771   0.17851
     Eigenvalues ---    0.18355   0.19334   0.20590   0.21601   0.23482
     Eigenvalues ---    0.24040   0.25926   0.27660   0.31413   0.34308
     Eigenvalues ---    0.38883   0.44038   0.48980   0.55244   0.57815
     Eigenvalues ---    0.62445   0.63196   0.65908   0.69183   0.72008
     Eigenvalues ---    0.77102   0.81475   0.83432   0.85581   0.86808
     Eigenvalues ---    0.87760   0.93048   0.98642   1.00336   1.02912
     Eigenvalues ---    1.04622   1.04884   1.06849   1.09185
 Eigenvectors required to have negative eigenvalues:
                          Y26       X25       Y25       Z26       X4
   1                    0.48888  -0.43285  -0.39401  -0.35587   0.32789
                          X3        X15       Z24       X24       Y15
   1                   -0.24585   0.15707   0.13156   0.12858   0.11022
 RFO step:  Lambda0=2.322878001D-12 Lambda=-2.78371546D-08.
 Linear search not attempted -- option 19 set.
 B after Tr=     0.000003    0.000001    0.000003
         Rot=    1.000000    0.000000    0.000001   -0.000001 Ang=   0.00 deg.
 Variable       Old X    -DE/DX   Delta X   Delta X   Delta X     New X
                                 (Linear)    (Quad)   (Total)
    X1        1.09120  -0.00001   0.00000  -0.00007  -0.00006   1.09114
    Y1       -1.77520  -0.00000   0.00000   0.00001   0.00001  -1.77518
    Z1       -0.72588  -0.00000   0.00000   0.00003   0.00004  -0.72584
    X2       -2.78231  -0.00000   0.00000  -0.00004  -0.00004  -2.78235
    Y2       -0.34792   0.00000   0.00000   0.00008   0.00008  -0.34785
    Z2        1.89775  -0.00000   0.00000   0.00003   0.00003   1.89778
    X3        1.35236   0.00000   0.00000   0.00008   0.00008   1.35244
    Y3        2.22986  -0.00000   0.00000  -0.00003  -0.00003   2.22983
    Z3        1.59814   0.00000   0.00000   0.00011   0.00011   1.59825
    X4       -1.88459   0.00000   0.00000   0.00002   0.00002  -1.88458
    Y4        2.25251   0.00000   0.00000   0.00005   0.00005   2.25256
    Z4        1.08357  -0.00000   0.00000   0.00001   0.00001   1.08358
    X5        2.68938  -0.00000   0.00000   0.00003   0.00004   2.68942
    Y5       -0.06978  -0.00000   0.00000  -0.00001   0.00000  -0.06978
    Z5        1.00190   0.00000   0.00000  -0.00005  -0.00004   1.00186
    X6       -1.38299  -0.00000   0.00000  -0.00000   0.00001  -1.38298
    Y6       -2.54048   0.00000   0.00000   0.00003   0.00003  -2.54045
    Z6        0.55477  -0.00000   0.00000   0.00015   0.00016   0.55492
    X7       -2.21193   0.00000   0.00000   0.00007   0.00006  -2.21187
    Y7        3.68442   0.00000   0.00000   0.00006   0.00006   3.68449
    Z7        2.55236  -0.00000   0.00000  -0.00000  -0.00000   2.55235
    X8       -0.88105  -0.00000   0.00000   0.00007   0.00008  -0.88097
    Y8       -3.91137   0.00000   0.00000   0.00015   0.00015  -3.91122
    Z8        2.03671  -0.00000   0.00000   0.00023   0.00023   2.03695
    X9       -4.78694   0.00000   0.00000  -0.00002  -0.00002  -4.78696
    Y9       -0.43696   0.00000   0.00000   0.00007   0.00006  -0.43689
    Z9        1.36149   0.00000   0.00000  -0.00003  -0.00004   1.36146
   X10        3.02589  -0.00000   0.00000   0.00014   0.00015   3.02604
   Y10       -1.06522  -0.00000   0.00000  -0.00006  -0.00005  -1.06527
   Z10        2.79342  -0.00000   0.00000  -0.00010  -0.00009   2.79333
   X11        0.63727   0.00000   0.00000  -0.00014  -0.00013   0.63714
[...]
 .00199726,-0.00025523,-0.00037764,-0.00065402,-0.00004690,-0.00000054,
 -0.00039764,-0.00075957,0.00126468,0.00000155,-0.00010285,-0.00018606,
 -0.00069564,-0.00086668,-0.00062993,0.00015213,0.00023330,0.00016097,0
 .00040676,-0.00166858,-0.00114253,-0.00040627,0.00014798,0.00039898,0.
 01082321,0.56981691,-0.00204581,0.00032915,-0.00205743,0.00195380,-0.0
 0055186,0.00156375,0.00885713,0.06017289,-0.02533625,-0.01981197,0.001
 52047,-0.01400077,0.00892018,-0.00292949,-0.00811404,-0.00075972,-0.00
 091339,-0.00041060,0.00110215,0.00033778,0.00104233,-0.00000386,-0.000
 00863,0.00013381,0.00020334,0.00082350,-0.00050943,-0.00196833,0.00299
 570,0.00074475,0.00021999,0.00012614,0.00042001,0.00150018,0.00054361,
 -0.00183216,0.00004538,-0.00010795,0.00019892,-0.00048749,0.00015119,0
 .00065610,-0.00268097,-0.00813867,0.02484845,-0.00139462,0.00029073,0.
 00103619,0.00056273,-0.00020432,-0.00002235,0.00020923,-0.00031303,0.0
 0020627,0.00008726,-0.00000143,0.00035557,0.00075741,0.00041887,0.0006
 4930,-0.00015759,-0.00012375,-0.00017163,0.00029375,0.00149432,0.00173
 234,0.00020715,-0.00014477,-0.00057312,-0.00966863,0.11762136,0.169103
 58,0.00161660,-0.00023992,0.00064737,-0.00443904,0.00107639,-0.0047037
 3,-0.02383947,-0.01854926,0.00946736,0.03867990,-0.00391250,0.04678858
 ,-0.00225742,-0.00094760,0.00089062,0.00182157,-0.00173901,-0.00063403
 ,-0.00080315,-0.00140135,-0.00519883,-0.00037507,0.00042177,0.00003399
 ,-0.00093209,-0.00101369,0.00008265,0.00018235,-0.00080973,0.00006088,
 0.00078041,0.00005941,-0.00046150,0.00002861,0.00297098,-0.00208052,-0
 .00029852,-0.00020829,-0.00029894,-0.00057826,0.00084347,0.00102158,-0
 .00178033,0.02865573,-0.04047243,-0.00074305,-0.00150528,0.00071387,0.
 00033850,-0.00006599,0.00000241,0.00054189,0.00361885,-0.00356382,-0.0
 0020089,0.00011881,-0.00070096,-0.00089382,0.00117483,0.00032617,0.000
 25787,0.00004463,-0.00009075,-0.00198706,0.00019071,-0.00002486,0.0006
 8675,0.00054400,0.00016021,-0.06300562,-0.01154164,0.00854215,0.054730
 84,0.00134195,-0.00120494,0.00098095,-0.00357915,0.00181426,-0.0003166
 7,-0.02184075,-0.01323392,0.00494104,0.02489577,-0.01368161,0.04324358
 ,-0.00054113,-0.00302347,0.00090869,0.00050464,-0.00089256,-0.00075438
 ,-0.00029770,0.00016449,-0.00341775,-0.00015762,0.00045975,-0.00003166
 ,-0.00083359,-0.00051502,-0.00039304,-0.00020447,-0.00020906,-0.000077
 92,0.00045245,-0.00046410,-0.00073832,0.00063142,0.00232362,-0.0015056
 1,-0.00030030,-0.00012201,-0.00042767,-0.00010434,0.00080339,0.0007905
 0,0.01592739,-0.00595537,-0.02935709,-0.00120085,-0.00089534,0.0006894
 2,0.00041002,-0.00008150,0.00002148,0.00000984,0.00165183,-0.00235655,
 -0.00012021,0.00015208,-0.00015714,-0.00007826,0.00097736,0.00032175,0
 .00004761,-0.00014400,-0.00008480,-0.00155709,0.00106377,-0.00001001,0
 .00064611,0.00025767,0.00004135,0.03684940,-0.04829917,0.01261518,-0.0
 3896726,0.05440651,0.00021980,-0.00006736,0.00046553,-0.00050612,-0.00
 123700,-0.00169610,0.00268259,0.00051498,-0.00025994,0.01141361,0.0225
 3443,-0.01543362,-0.00082360,0.00144858,0.00062641,-0.00018295,0.00044
 945,0.00005172,-0.00049031,-0.00001223,0.00020389,0.00008594,-0.000068
 73,-0.00006522,0.00019369,-0.00013636,0.00009707,0.00024026,-0.0003614
 5,-0.00007969,-0.00021820,-0.00016696,0.00002128,-0.00032992,-0.000546
 82,0.00041903,-0.00000253,0.00006052,-0.00000632,0.00014993,0.00006358
 ,-0.00007449,-0.01374866,-0.01188848,-0.02829463,0.00043253,0.00001392
 ,-0.00025467,-0.00012485,0.00003618,-0.00000760,0.00025046,0.00012618,
 0.00009533,-0.00008511,0.00007600,-0.00014465,-0.00000724,-0.00032122,
 -0.00019167,0.00000157,-0.00001820,0.00010248,0.00015793,-0.00026093,-
 0.00037755,-0.00005951,-0.00001734,0.00014501,0.00202407,-0.00360212,-
 0.03369775,0.02819050,-0.00215216,0.08607461,-0.00044297,-0.00053455,0
 .00008953,-0.00324929,0.00085182,-0.00002614,-0.04663569,-0.00532829,0
 .01601313,-0.00994315,-0.01517094,0.01247968,0.00327650,0.00691911,-0.
 01031946,0.00001064,0.00017178,-0.00015943,-0.00036341,0.00038819,0.00
 016470,-0.00005028,0.00005071,0.00002619,-0.00020581,-0.00067223,0.000
 33041,-0.00186616,0.00292863,0.00071618,0.00019004,-0.00003367,-0.0001
 2842,-0.00023281,0.00472597,-0.00083236,-0.00068784,-0.00020038,-0.000
 71151,-0.00048107,0.00062262,0.00143382,0.00321871,0.00090294,-0.00122
 997,-0.00024389,-0.00191233,0.00039244,0.00030707,-0.00010455,-0.00012
 080,0.00024941,0.00033837,-0.00041276,-0.00000446,0.00004811,-0.000076
 62,-0.00002975,0.00015798,-0.00000016,0.00001680,-0.00002393,-0.000009
 06,-0.00039425,0.00045406,0.00030468,0.00049037,0.00025375,0.00002465,
 -0.03112726,-0.00200127,-0.00090534,-0.01222869,0.00995018,-0.01955054
 ,0.10260156,-0.00216761,-0.00120989,-0.00195795,0.00346292,-0.00134503
 ,0.00121137,0.02345837,-0.01170342,-0.01106243,-0.04312005,0.00882440,
 -0.01949051,0.00987068,-0.02275703,0.00094662,-0.00171178,-0.00171403,
 -0.00037643,0.00310287,0.00009939,-0.00060292,0.00010165,0.00000831,0.
 00000911,0.00044878,0.00136641,-0.00076249,-0.00243327,0.00363517,-0.0
 0061076,0.00003010,-0.00003233,0.00000708,0.00430892,0.00156916,-0.000
 75522,-0.00018345,-0.00001441,-0.00056851,0.00039103,0.00067964,0.0002
 0980,-0.00790251,-0.02339786,0.02404045,-0.00363713,0.00057132,0.00131
 804,0.00091496,-0.00015596,0.00007361,0.00062664,-0.00030518,-0.000187
 84,0.00012151,0.00005067,0.00059963,0.00143386,0.00078235,0.00087872,-
 0.00031124,-0.00034414,-0.00021561,0.00020748,0.00257913,0.00183808,0.
 00034534,-0.00038281,-0.00076717,-0.02648382,-0.01641061,-0.04129719,0
 .04053678,0.03459285,-0.00161671,-0.00312320,0.03665210,0.00417048,-0.
 00144511,0.00339704,-0.00407699,0.00089980,-0.00155065,0.00116613,-0.0
 0530043,-0.03895385,0.03177695,-0.00919895,0.02452431,-0.01690784,0.00
 108127,0.01159530,0.00119785,0.00161133,0.00054578,-0.00195265,-0.0004
 3727,-0.00050678,0.00002631,0.00003929,-0.00017677,-0.00050060,-0.0013
 6854,0.00079069,0.00269914,-0.00417679,-0.00063611,-0.00045008,-0.0002
 9345,-0.00092635,-0.00169276,-0.00243677,0.00481020,-0.00032790,0.0002
 2451,0.00001295,0.00136439,-0.00094541,-0.00207763,0.00864380,0.018976
 40,-0.02222108,0.00224487,0.00006606,-0.00204506,-0.00085204,0.0004251
 0,0.00003850,-0.00030546,0.00046674,-0.00019806,-0.00002275,-0.0000145
 1,-0.00047046,-0.00110159,-0.00051957,-0.00088274,0.00023572,0.0001875
 4,0.00020272,-0.00053534,-0.00263769,-0.00303872,-0.00046220,0.0001453
 9,0.00081492,0.00674399,-0.00913772,-0.03564273,-0.04113500,-0.0190314
 0,-0.00518597,0.00262857,0.03994758,0.05024379,-0.00001027,-0.00010627
 ,0.00005395,0.00023787,-0.00004255,0.00022461,0.00168945,0.00161423,-0
 .00225117,-0.00171178,-0.00071156,-0.00217300,0.00031138,-0.00055962,0
 .00002073,-0.00001308,-0.00004160,-0.00006465,-0.00017329,-0.00003406,
 0.00048122,-0.00000027,0.00000728,-0.00000008,0.00003970,0.00002432,0.
 00002323,-0.00006117,0.00011933,-0.00001488,-0.00002229,0.00000292,-0.
 00003708,0.00013101,0.00013796,0.00077042,-0.00012150,-0.00000739,-0.0
 0021965,0.00025129,-0.00001387,-0.00031522,-0.00763323,-0.00228270,0.0
 0443998,-0.00022574,-0.00007115,-0.00020500,0.00005628,0.00009895,0.00
 000214,-0.00001703,-0.00000040,0.00000948,0.00001980,-0.00001759,0.000
 03292,-0.00001289,0.00003773,0.00001182,-0.00000235,-0.00001735,-0.000
 00144,-0.00008221,0.00011154,0.00003893,0.00006844,0.00000007,-0.00000
 368,-0.03683357,0.05089992,0.00649827,0.01596022,-0.02100664,-0.010293
 33,-0.00198887,0.00181236,0.00745668,0.03013414,-0.00003713,-0.0000418
 1,-0.00009637,-0.00011309,0.00003973,0.00025062,-0.00021148,0.00091448
 ,0.00249303,-0.00006049,-0.00072265,-0.00019760,0.00039610,0.00005663,
 -0.00015128,0.00000803,-0.00009227,-0.00010747,-0.00012101,-0.00002281
 ,0.00029569,-0.00000826,0.00004394,0.00001347,-0.00001469,0.00005127,-
 0.00007261,-0.00006656,0.00005108,0.00001126,-0.00000164,-0.00006527,-
 0.00002523,0.00003211,-0.00000704,-0.00025478,0.00005316,-0.00000648,0
 .00005760,0.00025416,-0.00022508,0.00003862,0.00002653,0.00218007,-0.0
 0003940,-0.00014891,0.00013539,0.00005322,0.00003432,-0.00002059,0.000
 01388,0.00004421,0.00009058,-0.00015739,-0.00000792,0.00001845,0.00001
 511,0.00007679,0.00012566,0.00007657,-0.00001815,-0.00003215,-0.000012
 62,-0.00006515,0.00019941,0.00012219,0.00002910,-0.00003293,-0.0000377
 9,0.02815893,-0.43600231,-0.14473370,0.00130002,-0.00969378,-0.0026754
 5,0.00041386,-0.01154651,-0.00716520,-0.02990159,0.45462935,-0.0000767
 3,0.00003367,-0.00003701,0.00018613,-0.00012188,-0.00013045,0.00207564
 ,0.00518632,-0.00847168,-0.00160072,0.00115884,0.00050346,0.00031520,-
 0.00058550,-0.00019614,-0.00001731,-0.00001597,0.00012737,0.00030688,-
 0.00016469,-0.00036425,0.00000114,-0.00003797,-0.00001462,0.00002600,0
 .00002212,0.00001542,-0.00011033,0.00017533,0.00001006,0.00003238,0.00
 006239,0.00004139,0.00003861,0.00002832,0.00021142,-0.00004900,-0.0000
 2810,0.00001178,-0.00024013,0.00002851,-0.00001161,0.00008878,-0.00014
 355,0.00062926,0.00009368,-0.00012376,-0.00005919,-0.00000924,0.000028
 87,-0.00001115,0.00000483,-0.00006679,-0.00000444,0.00001605,-0.000006
 09,-0.00000054,-0.00004659,-0.00007170,-0.00009485,0.00000639,0.000011
 14,0.00001655,0.00006821,-0.00010525,-0.00004415,-0.00001442,0.0000169
 2,0.00002241,-0.00022422,-0.16408323,-0.08023987,0.00355080,-0.0026731
 8,-0.00329226,0.00006258,0.00917739,0.01763756,-0.00452813,0.15230871,
 0.07372093,0.00049462,-0.00038463,0.00002981,0.00014708,0.00018620,0.0
 0002386,-0.00188068,-0.00004264,-0.00042742,0.00215861,-0.00051770,0.0
 0423381,0.00022520,-0.00044145,0.00008366,0.00155263,0.00023068,0.0013
 1396,-0.00010031,-0.00018230,-0.00060919,-0.00030957,-0.00000407,-0.00
 040193,-0.00189859,-0.00002843,-0.00077880,-0.00009392,0.00007422,-0.0
 0005864,0.00019958,0.00005786,-0.00015519,0.00033547,0.00000503,-0.000
 14399,-0.00006588,-0.00003934,-0.00000735,0.00002800,0.00001145,-0.000
 01268,-0.00543664,-0.00476546,-0.00379680,-0.00050201,0.00010240,0.000
 08985,0.00017787,-0.00002219,0.00001358,-0.00089626,0.00005005,-0.0020
 4281,-0.00023679,-0.00008262,0.00023981,-0.00243483,0.00457461,-0.0005
 2234,-0.00055098,-0.00009828,-0.00129967,-0.00067173,0.00048521,0.0001
 3280,0.00022478,-0.00003155,-0.00005471,-0.00194835,-0.00136059,0.0003
 8850,0.00238118,0.00210017,-0.00116155,0.00031485,0.00052231,-0.000239
 03,-0.00006593,0.00015029,-0.00009673,0.46465437,0.00001350,-0.0001766
 0,0.00043327,-0.00004614,0.00050072,-0.00023593,-0.00206300,0.00127241
 ,-0.00090261,0.00244638,-0.00301167,0.00525575,0.00046779,-0.00112566,
 -0.00040284,-0.00166206,-0.00255972,-0.00217608,0.00001900,0.00020665,
 -0.00022421,0.00047670,0.00037456,0.00058308,-0.00022512,-0.00184524,-
 0.00043021,-0.00010047,0.00014353,-0.00001384,0.00003303,-0.00008443,-
 0.00011745,0.00010929,0.00008249,0.00009416,0.00011076,0.00004984,0.00
 000036,0.00002069,-0.00002794,-0.00004437,-0.00574703,0.00061849,-0.00
 489123,-0.00007752,0.00028159,0.00011108,-0.00003471,-0.00003632,-0.00
 000611,0.00012288,0.00072308,0.00037833,0.00000627,-0.00005524,-0.0002
 4930,0.00508189,-0.00087162,0.00176698,0.00039590,-0.00001619,0.001160
 15,0.00036077,0.00044453,0.00011795,-0.00016969,-0.00007287,-0.0000268
 8,-0.00135971,-0.00026372,-0.00023474,0.00161574,0.00105088,-0.0005009
 3,0.00029138,-0.00045433,0.00047363,0.00007518,0.00003761,0.00001721,0
 .01491805,0.61157451,0.00058040,0.00070366,-0.00065345,0.00152301,-0.0
 0041346,-0.00057178,-0.00199717,-0.00073280,0.00061659,0.00313094,0.00
 342238,-0.00085593,0.00037108,-0.00072944,0.00002013,-0.00009582,-0.00
 208792,-0.00076693,-0.00013480,-0.00016324,0.00025645,0.00000985,0.000
 15579,0.00020539,-0.00122646,-0.00080022,0.00081547,0.00005552,0.00006
 233,0.00004191,-0.00015334,-0.00018013,0.00007809,0.00032281,0.0000461
 5,-0.00023099,-0.00003444,-0.00002857,0.00001506,-0.00001650,-0.000020
 97,0.00000937,-0.00269230,-0.00276852,0.00336011,-0.00045436,0.0001265
 6,0.00016764,0.00015069,-0.00002015,0.00000002,-0.00305437,0.00054058,
 -0.00328344,0.00042814,-0.00061187,0.00056523,-0.00041455,0.00190216,0
 .00389250,-0.00085635,0.00042878,-0.00120891,-0.00075898,0.00030814,0.
 00071257,0.00004949,0.00004856,-0.00013973,-0.00108581,-0.00122032,0.0
 0082270,0.00148363,0.00137771,-0.00092740,0.00007434,0.00102345,-0.000
 88523,-0.00002257,0.00011522,-0.00015740,-0.00590153,0.00038776,0.0153
 9195,-0.00020549,0.00063973,-0.00032349,0.00065487,0.00006966,-0.00074
 459,0.00282989,-0.00080169,0.00114348,-0.00277365,0.00356533,-0.008306
 74,-0.00041410,0.00103219,0.00015462,-0.00004260,0.00088976,0.00017208
 ,0.00008201,0.00003545,0.00119247,-0.00009026,-0.00022522,-0.00008963,
 0.00074175,-0.00021587,0.00118053,0.00015750,-0.00014828,0.00005476,-0
 .00026153,0.00005528,0.00026991,-0.00029832,-0.00008178,0.00005488,-0.
 00001716,0.00000030,0.00000915,-0.00004002,0.00000583,0.00003500,0.000
 32366,-0.00054860,0.00470592,0.00040465,-0.00022521,-0.00013221,-0.000
 10559,0.00003057,-0.00000937,-0.00043929,-0.00037568,0.00040066,0.0001
 7011,-0.00011751,0.00010152,-0.00142808,-0.00062440,-0.00057148,-0.000
 00048,0.00018367,-0.00000112,0.00016800,-0.00063070,-0.00007613,-0.000
 07598,0.00007305,0.00006273,0.00260474,0.00140275,-0.00024511,-0.00342
 887,-0.00268623,0.00143267,-0.00048019,-0.00022385,-0.00007030,0.00006
 130,-0.00015388,0.00010193,-0.27428996,-0.24419182,0.00579177,0.261093
 67,0.00030621,0.00005377,0.00001302,0.00078995,0.00010409,0.00054839,0
 .00214035,-0.00110746,0.00106994,-0.00122336,0.00332129,-0.00494670,-0
 .00026559,0.00105053,0.00023773,0.00134284,0.00032087,0.00143597,0.000
 06335,-0.00009688,0.00013741,-0.00016402,-0.00005454,-0.00024873,0.000
 09139,-0.00020277,0.00157527,0.00007278,-0.00014926,-0.00002320,0.0000
 6941,0.00009509,0.00002395,-0.00008169,-0.00009084,-0.00003045,-0.0000
 8363,-0.00003351,-0.00000219,-0.00001106,0.00002882,0.00003039,0.00045
 200,-0.00533524,0.00386896,0.00007933,-0.00021677,-0.00010160,0.000021
 64,0.00002759,-0.00000129,-0.00064926,-0.00038453,-0.00071439,0.000019
 00,-0.00010986,0.00021409,-0.00087741,0.00110198,-0.00108018,-0.000024
 81,-0.00006441,-0.00022471,-0.00038730,-0.00017995,-0.00011577,0.00013
 676,0.00008030,0.00006154,0.00074541,0.00007467,0.00018436,-0.00118893
 ,-0.00065492,0.00004300,-0.00023582,0.00019335,-0.00024391,-0.00010451
 ,-0.00002538,-0.00003879,-0.18208731,-0.25506829,0.00246465,0.21771890
 ,0.29148877,-0.00023263,-0.00019262,0.00028018,-0.00101391,0.00016934,
 -0.00083086,0.00240890,-0.00030376,0.00030578,-0.00520260,-0.00025105,
 -0.00501587,-0.00029062,0.00094345,0.00007404,0.00015756,0.00108917,0.
 00070370,0.00009052,0.00004154,-0.00005643,0.00002759,-0.00015990,-0.0
 0014387,0.00080630,0.00157450,-0.00125389,0.00003404,-0.00011768,-0.00
 001998,0.00005301,0.00010346,0.00005214,-0.00023650,-0.00009438,0.0001
 3456,-0.00001372,0.00000606,-0.00001028,-0.00000169,0.00002298,0.00001
 288,0.00336445,0.00173756,-0.00134584,0.00033462,-0.00016606,-0.000147
 28,-0.00008744,0.00002264,-0.00000371,0.00078417,-0.00044365,0.0011486
 8,-0.00003501,0.00016732,-0.00009406,-0.00064768,-0.00010090,-0.001171
 51,0.00007334,-0.00014520,0.00027684,0.00026154,-0.00029146,-0.0003710
 5,-0.00000017,0.00001233,0.00010240,0.00185133,0.00129890,-0.00053870,
 -0.00220298,-0.00210220,0.00144724,-0.00027491,-0.00049106,0.00032606,
 0.00006001,-0.00009134,0.00012816,0.00669252,0.00552441,-0.00884571,-0
 .00646815,-0.00592440,0.01266150,-0.00028779,0.00033318,0.00023116,0.0
 0057166,-0.00046574,-0.00112210,-0.00039772,0.00054090,-0.00014017,0.0
 0012211,-0.00073538,0.00020219,0.00028246,-0.00055992,-0.00037251,-0.0
 0297550,-0.00284818,-0.00335770,0.00008340,0.00018870,0.00008368,0.000
 84347,0.00035112,0.00104445,0.00052859,-0.00031712,0.00020633,0.000020
 11,0.00004886,0.00004391,-0.00023304,-0.00019062,0.00008288,-0.0001275
 0,0.00008670,0.00015777,0.00012067,0.00005594,-0.00000110,-0.00000848,
 -0.00002592,-0.00001529,-0.00128806,0.00109637,-0.00067906,0.00025338,
 0.00010930,0.00002242,-0.00012862,-0.00000452,-0.00001077,-0.00035637,
 0.00048805,0.00066088,0.00029884,-0.00009026,-0.00012632,-0.00057635,0
 .00089493,0.00049013,0.00044645,0.00047553,0.00160933,0.00065310,-0.00
 005853,0.00004535,-0.00026301,0.00000448,0.00003958,0.00011303,0.00035
 942,-0.00021915,-0.00021534,-0.00029137,0.00010886,-0.00002013,-0.0003
 9867,0.00027767,0.00001460,-0.00004767,0.00003833,-0.18151183,0.229112
 07,0.00492770,0.01509943,-0.03666459,-0.00029193,0.16893844,-0.0003962
 1,0.00008482,-0.00085300,-0.00107319,0.00048537,0.00011200,0.00136886,
 -0.00054647,0.00030624,-0.00196402,0.00035801,-0.00254267,-0.00052529,
 0.00073001,0.00043784,0.00057302,0.00399514,0.00208380,0.00001563,-0.0
 0007829,0.00023746,-0.00069696,-0.00047361,-0.00073273,-0.00015072,0.0
 0073235,-0.00123309,0.00006787,-0.00006748,0.00003779,-0.00007003,0.00
 002667,0.00014014,-0.00009428,-0.00008999,-0.00011342,-0.00008852,-0.0
 0004070,0.00000999,-0.00001654,0.00000978,0.00002836,0.00182008,0.0010
 7801,0.00183964,0.00006299,-0.00018693,-0.00007399,0.00002114,0.000023
 89,0.00000828,0.00081161,-0.00061625,0.00049911,-0.00013319,0.00021417
 ,0.00005282,0.00018925,-0.00648207,-0.00116684,-0.00006367,-0.00046059
 ,-0.00063591,-0.00011409,-0.00044255,-0.00006140,0.00010801,0.00002324
 ,-0.00001901,0.00085994,0.00025003,0.00007767,-0.00108167,-0.00064769,
 0.00028362,-0.00012831,0.00016929,-0.00019195,-0.00002295,-0.00003658,
 0.00001071,0.16662003,-0.35169104,-0.00333627,0.02554826,-0.03416650,-
 0.00183796,-0.19144707,0.38784597,-0.00016038,-0.00025469,0.00070108,-
 0.00133496,0.00051072,-0.00102725,0.00033914,0.00057503,-0.00036446,-0
 .00039382,-0.00181915,0.00115619,0.00005467,0.00004504,-0.00024039,-0.
 00178961,0.00019054,-0.00170114,0.00008826,0.00018707,-0.00007622,0.00
 011680,-0.00003145,0.00008551,0.00001227,-0.00143170,-0.00208630,-0.00
 004280,-0.00000527,-0.00002435,0.00007389,0.00009529,-0.00004315,-0.00
 012895,0.00003721,0.00016750,0.00006052,0.00003179,-0.00001315,0.00000
 990,0.00000600,-0.00001184,-0.00025250,0.00076208,-0.00161314,0.000219
 01,0.00000643,-0.00005286,-0.00008934,0.00000143,-0.00000248,0.0009126
 7,0.00005286,0.00130904,-0.00010204,0.00014668,-0.00031727,-0.00036618
 ,-0.00060451,-0.00445456,0.00179016,-0.00058847,0.00207497,0.00051006,
 -0.00000864,-0.00034735,-0.00007943,-0.00001083,0.00011241,0.00021903,
 0.00044275,-0.00036725,-0.00039441,-0.00034410,0.00023992,0.00001662,-
 0.00051816,0.00045834,0.00000547,-0.00004696,0.00005381,0.00446819,-0.
 00584739,-0.00844429,0.00017426,0.00178761,0.00219490,-0.00393652,0.00
 663278,0.01263377\\0.00000600,0.00000339,0.00000056,0.00000175,-0.0000
 0419,0.00000208,-0.00000334,0.00000180,-0.00000047,-0.00000187,-0.0000
 0484,0.00000418,0.00000192,0.00000161,-0.00000137,0.00000478,-0.000000
 09,0.00000281,-0.00000228,-0.00000029,0.00000116,0.00000380,-0.0000020
 1,0.00000331,-0.00000023,-0.00000276,-0.00000143,0.00000160,0.00000137
 ,0.00000105,-0.00000057,0.00000223,-0.00000257,-0.00001488,0.00000321,
 0.00000481,0.00000698,0.00002085,0.00001535,-0.00000854,0.00001710,-0.
 00002266,-0.00000975,-0.00000411,-0.00000428,-0.00000230,0.00001433,-0
 .00005074,0.00001840,-0.00001987,0.00004360,0.00001117,0.00000701,-0.0
 0000175,-0.00000467,-0.00001199,0.00000399,0.00000366,-0.00000840,-0.0
 0000005,0.00000305,-0.00000181,-0.00000049,-0.00002787,-0.00000933,0.0
 0001304,0.00003520,0.00001369,-0.00001323,-0.00001108,-0.00000814,-0.0
 0000585,-0.00000209,-0.00000008,-0.00000100,-0.00000185,0.00000178,-0.
 00000105,-0.00000590,0.00001106,0.00000183,-0.00005038,-0.00005204,0.0
 0000231,0.00004503,0.00003687,0.00000410,0.00000425,-0.00000637,0.0000
 0278\\\@


 GOOD SENSE ABOUT TRIVIALITIES IS BETTER THAN NONSENSE
 ABOUT THINGS THAT MATTER

                                       -- MAX BEERBOHM
 Job cpu time:       0 days  0 hours 59 minutes 19.7 seconds.
 File lengths (MBytes):  RWF=    221 Int=      0 D2E=      0 Chk=      6 Scr=      1
 Normal termination of Gaussian 09 at Wed Jan 25 08:35:00 2017.
