 Entering Gaussian System, Link 0=g09
 Initial command:
 /global/software/gaussian/g09.d01/l1.exe "/home/iawad/Gau-15918.inp" -scrdir="/home/iawad/"
 Entering Link 1 = /global/software/gaussian/g09.d01/l1.exe PID=     15919.
  
 Copyright (c) 1988,1990,1992,1993,1995,1998,2003,2009,2013,
            Gaussian, Inc.  All Rights Reserved.
  
 This is part of the Gaussian(R) 09 program.  It is based on
 the Gaussian(R) 03 system (copyright 2003, Gaussian, Inc.),
 the Gaussian(R) 98 system (copyright 1998, Gaussian, Inc.),
 the Gaussian(R) 94 system (copyright 1995, Gaussian, Inc.),
 the Gaussian 92(TM) system (copyright 1992, Gaussian, Inc.),
 the Gaussian 90(TM) system (copyright 1990, Gaussian, Inc.),
 the Gaussian 88(TM) system (copyright 1988, Gaussian, Inc.),
 the Gaussian 86(TM) system (copyright 1986, Carnegie Mellon
 University), and the Gaussian 82(TM) system (copyright 1983,
 Carnegie Mellon University). Gaussian is a federally registered
 trademark of Gaussian, Inc.
  
 This software contains proprietary and confidential information,
 including trade secrets, belonging to Gaussian, Inc.
  
 This software is provided under written license and may be
 used, copied, transmitted, or stored only in accord with that
 written license.
  
 The following legend is applicable only to US Government
 contracts under FAR:
  
                    RESTRICTED RIGHTS LEGEND
  
 Use, reproduction and disclosure by the US Government is
 subject to restrictions as set forth in subparagraphs (a)
 and (c) of the Commercial Computer Software - Restricted
 Rights clause in FAR 52.227-19.
  
 Gaussian, Inc.
 340 Quinnipiac St., Bldg. 40, Wallingford CT 06492
  
  
 ---------------------------------------------------------------
 Warning -- This program may not be used in any manner that
 competes with the business of Gaussian, Inc. or will provide
 assistance to any competitor of Gaussian, Inc.  The licensee
 of this program is prohibited from giving any competitor of
 Gaussian, Inc. access to this program.  By using this program,
 the user acknowledges that Gaussian, Inc. is engaged in the
 business of creating and licensing software in the field of
 computational chemistry and represents and warrants to the
 licensee that it is not a competitor of Gaussian, Inc. and that
 it will not use this program in any manner prohibited above.
 ---------------------------------------------------------------
  

 Cite this work as:
 Gaussian 09, Revision D.01,
 M. J. Frisch, G. W. Trucks, H. B. Schlegel, G. E. Scuseria, 
 M. A. Robb, J. R. Cheeseman, G. Scalmani, V. Barone, B. Mennucci, 
 G. A. Petersson, H. Nakatsuji, M. Caricato, X. Li, H. P. Hratchian, 
 A. F. Izmaylov, J. Bloino, G. Zheng, J. L. Sonnenberg, M. Hada, 
 M. Ehara, K. Toyota, R. Fukuda, J. Hasegawa, M. Ishida, T. Nakajima, 
 Y. Honda, O. Kitao, H. Nakai, T. Vreven, J. A. Montgomery, Jr., 
 J. E. Peralta, F. Ogliaro, M. Bearpark, J. J. Heyd, E. Brothers, 
 K. N. Kudin, V. N. Staroverov, T. Keith, R. Kobayashi, J. Normand, 
 K. Raghavachari, A. Rendell, J. C. Burant, S. S. Iyengar, J. Tomasi, 
 M. Cossi, N. Rega, J. M. Millam, M. Klene, J. E. Knox, J. B. Cross, 
 V. Bakken, C. Adamo, J. Jaramillo, R. Gomperts, R. E. Stratmann, 
 O. Yazyev, A. J. Austin, R. Cammi, C. Pomelli, J. W. Ochterski, 
 R. L. Martin, K. Morokuma, V. G. Zakrzewski, G. A. Voth, 
 P. Salvador, J. J. Dannenberg, S. Dapprich, A. D. Daniels, 
 O. Farkas, J. B. Foresman, J. V. Ortiz, J. Cioslowski, 
 and D. J. Fox, Gaussian, Inc., Wallingford CT, 2013.
 
 ******************************************
 Gaussian 09:  ES64L-G09RevD.01 24-Apr-2013
                24-Jan-2017 
 ******************************************
 %NPROCS=12
 Will use up to   12 processors via shared memory.
 ------------------------------------------------------
 # opt=(modredundant,MaxCycle=1000) freq B3LYP/6-31G(d)
 ------------------------------------------------------
 1/6=1000,14=-1,18=120,19=15,26=3,38=1/1,3;
 2/9=110,12=2,17=6,18=5,40=1/2;
 3/5=1,6=6,7=1,11=2,16=1,25=1,30=1,71=1,74=-5/1,2,3;
 4//1;
 5/5=2,38=5/2;
 6/7=2,8=2,9=2,10=2,28=1/1;
 7//1,2,3,16;
 1/6=1000,14=-1,18=20,19=15,26=3/3(2);
 2/9=110/2;
 99//99;
 2/9=110/2;
 3/5=1,6=6,7=1,11=2,16=1,25=1,30=1,71=1,74=-5/1,2,3;
 4/5=5,16=3,69=1/1;
 5/5=2,38=5/2;
 7//1,2,3,16;
 1/6=1000,14=-1,18=20,19=15,26=3/3(-5);
 2/9=110/2;
 6/7=2,8=2,9=2,10=2,19=2,28=1/1;
 99/9=1/99;
 -------------------------------------------------------------------
 ./opt_IRC/b3lyp/boats/6/glo_1w_alpha_ircf_boat6_B3LYP_631Gd_opt.out
 -------------------------------------------------------------------
 Symbolic Z-matrix:
 Charge =  0 Multiplicity = 1
 C                    -0.4538    0.8332    0.2511 
 C                     1.5221   -0.7777    0.1034 
 C                     1.0581    0.6973    0.0406 
 C                     0.3705   -1.7559    0.3595 
 H                     0.6864   -2.7885    0.1724 
 H                     2.2286   -0.8809    0.9364 
 H                    -0.7232    0.6163    1.292 
 H                     1.2819    1.0752   -0.9661 
 C                    -0.808    -1.4134   -0.5739 
 O                    -1.1984   -0.0503   -0.5936 
 C                    -0.9387    2.2626   -0.0294 
 H                    -0.4468    2.9855    0.6286 
 H                    -0.7568    2.5368   -1.0737 
 O                    -2.3555    2.3447    0.1883 
 H                    -2.5891    3.2849    0.0864 
 O                    -0.0457   -1.7004    1.732 
 H                    -0.9528   -2.0745    1.7304 
 O                     2.2813   -1.1149   -1.0736 
 H                     1.7133   -0.9841   -1.8545 
 O                     1.7997    1.5233    0.9351 
 H                     2.7482    1.425     0.6805 
 O                    -3.9501   -0.1448   -0.4559 
 H                    -2.7076   -1.6502   -0.4611 
 H                    -3.1709    0.4556   -0.4308 
 H                    -4.5643    0.3361    0.1225 
 O                     4.2587    0.8156   -0.2158 
 H                     5.2192    0.6779   -0.1653 
 H                     3.9494   -0.0096   -0.6436 
 O                    -1.9344   -2.1561   -0.1225 
 H                    -0.587    -1.7129   -1.6033 
 
 Add virtual bond connecting atoms O26        and H21        Dist= 3.51D+00.
 Add virtual bond connecting atoms O10        and H24        Dist= 3.86D+00.
 Add virtual bond connecting atoms H23        and O22        Dist= 3.69D+00.
 The following ModRedundant input section has been read:
 D       4       2       3       1 F                                           
 D       4       9      10       1 F                                           
 

 GradGradGradGradGradGradGradGradGradGradGradGradGradGradGradGradGradGrad
 Berny optimization.
 Initialization pass.
                           ----------------------------
                           !    Initial Parameters    !
                           ! (Angstroms and Degrees)  !
 --------------------------                            --------------------------
 ! Name  Definition              Value          Derivative Info.                !
 --------------------------------------------------------------------------------
 ! R1    R(1,3)                  1.5325         estimate D2E/DX2                !
 ! R2    R(1,7)                  1.0969         estimate D2E/DX2                !
 ! R3    R(1,10)                 1.4313         estimate D2E/DX2                !
 ! R4    R(1,11)                 1.5353         estimate D2E/DX2                !
 ! R5    R(2,3)                  1.5475         estimate D2E/DX2                !
 ! R6    R(2,4)                  1.5325         estimate D2E/DX2                !
 ! R7    R(2,6)                  1.0971         estimate D2E/DX2                !
 ! R8    R(2,18)                 1.4406         estimate D2E/DX2                !
 ! R9    R(3,8)                  1.0983         estimate D2E/DX2                !
 ! R10   R(3,20)                 1.4256         estimate D2E/DX2                !
 ! R11   R(4,5)                  1.0959         estimate D2E/DX2                !
 ! R12   R(4,9)                  1.5419         estimate D2E/DX2                !
 ! R13   R(4,16)                 1.4353         estimate D2E/DX2                !
 ! R14   R(9,10)                 1.418          estimate D2E/DX2                !
 ! R15   R(9,29)                 1.4227         estimate D2E/DX2                !
 ! R16   R(9,30)                 1.0946         estimate D2E/DX2                !
 ! R17   R(10,24)                2.0428         estimate D2E/DX2                !
 ! R18   R(11,12)                1.0943         estimate D2E/DX2                !
 ! R19   R(11,13)                1.0949         estimate D2E/DX2                !
 ! R20   R(11,14)                1.4358         estimate D2E/DX2                !
 ! R21   R(14,15)                0.9741         estimate D2E/DX2                !
 ! R22   R(16,17)                0.9812         estimate D2E/DX2                !
 ! R23   R(18,19)                0.9744         estimate D2E/DX2                !
 ! R24   R(20,21)                0.987          estimate D2E/DX2                !
 ! R25   R(21,26)                1.8591         estimate D2E/DX2                !
 ! R26   R(22,23)                1.9519         estimate D2E/DX2                !
 ! R27   R(22,24)                0.984          estimate D2E/DX2                !
 ! R28   R(22,25)                0.9711         estimate D2E/DX2                !
 ! R29   R(23,29)                0.9841         estimate D2E/DX2                !
 ! R30   R(26,27)                0.9716         estimate D2E/DX2                !
 ! R31   R(26,28)                0.9796         estimate D2E/DX2                !
 ! A1    A(3,1,7)              110.8007         estimate D2E/DX2                !
 ! A2    A(3,1,10)             112.1749         estimate D2E/DX2                !
 ! A3    A(3,1,11)             111.6578         estimate D2E/DX2                !
 ! A4    A(7,1,10)             108.0729         estimate D2E/DX2                !
 ! A5    A(7,1,11)             106.2556         estimate D2E/DX2                !
 ! A6    A(10,1,11)            107.6128         estimate D2E/DX2                !
 ! A7    A(3,2,4)              112.9452         estimate D2E/DX2                !
 ! A8    A(3,2,6)              108.273          estimate D2E/DX2                !
 ! A9    A(3,2,18)             110.3618         estimate D2E/DX2                !
 ! A10   A(4,2,6)              107.2759         estimate D2E/DX2                !
 ! A11   A(4,2,18)             112.5276         estimate D2E/DX2                !
 ! A12   A(6,2,18)             105.0071         estimate D2E/DX2                !
 ! A13   A(1,3,2)              112.0085         estimate D2E/DX2                !
 ! A14   A(1,3,8)              107.2419         estimate D2E/DX2                !
 ! A15   A(1,3,20)             112.0635         estimate D2E/DX2                !
 ! A16   A(2,3,8)              107.7004         estimate D2E/DX2                !
 ! A17   A(2,3,20)             111.7655         estimate D2E/DX2                !
 ! A18   A(8,3,20)             105.6495         estimate D2E/DX2                !
 ! A19   A(2,4,5)              110.8717         estimate D2E/DX2                !
 ! A20   A(2,4,9)              109.3536         estimate D2E/DX2                !
 ! A21   A(2,4,16)             110.6719         estimate D2E/DX2                !
 ! A22   A(5,4,9)              109.042          estimate D2E/DX2                !
 ! A23   A(5,4,16)             106.4556         estimate D2E/DX2                !
 ! A24   A(9,4,16)             110.4051         estimate D2E/DX2                !
 ! A25   A(4,9,10)             115.6174         estimate D2E/DX2                !
 ! A26   A(4,9,29)             107.2838         estimate D2E/DX2                !
 ! A27   A(4,9,30)             110.7445         estimate D2E/DX2                !
 ! A28   A(10,9,29)            106.7527         estimate D2E/DX2                !
 ! A29   A(10,9,30)            107.7899         estimate D2E/DX2                !
 ! A30   A(29,9,30)            108.3841         estimate D2E/DX2                !
 ! A31   A(1,10,9)             116.228          estimate D2E/DX2                !
 ! A32   A(1,10,24)            107.6033         estimate D2E/DX2                !
 ! A33   A(9,10,24)            120.1836         estimate D2E/DX2                !
 ! A34   A(1,11,12)            111.298          estimate D2E/DX2                !
 ! A35   A(1,11,13)            110.7906         estimate D2E/DX2                !
 ! A36   A(1,11,14)            109.7067         estimate D2E/DX2                !
 ! A37   A(12,11,13)           109.4744         estimate D2E/DX2                !
 ! A38   A(12,11,14)           108.3379         estimate D2E/DX2                !
 ! A39   A(13,11,14)           107.1115         estimate D2E/DX2                !
 ! A40   A(11,14,15)           106.0194         estimate D2E/DX2                !
 ! A41   A(4,16,17)            104.5823         estimate D2E/DX2                !
 ! A42   A(2,18,19)            108.4291         estimate D2E/DX2                !
 ! A43   A(3,20,21)            106.2812         estimate D2E/DX2                !
 ! A44   A(20,21,26)           159.6872         estimate D2E/DX2                !
 ! A45   A(23,22,24)            88.085          estimate D2E/DX2                !
 ! A46   A(23,22,25)           141.823          estimate D2E/DX2                !
 ! A47   A(24,22,25)           100.5729         estimate D2E/DX2                !
 ! A48   A(22,23,29)           153.5982         estimate D2E/DX2                !
 ! A49   A(10,24,22)           127.6955         estimate D2E/DX2                !
 ! A50   A(21,26,27)           145.5447         estimate D2E/DX2                !
 ! A51   A(21,26,28)           103.3047         estimate D2E/DX2                !
 ! A52   A(27,26,28)           102.4411         estimate D2E/DX2                !
 ! A53   A(9,29,23)            104.1538         estimate D2E/DX2                !
 ! D1    D(7,1,3,2)             70.7022         estimate D2E/DX2                !
 ! D2    D(7,1,3,8)           -171.3406         estimate D2E/DX2                !
 ! D3    D(7,1,3,20)           -55.8379         estimate D2E/DX2                !
 ! D4    D(10,1,3,2)           -50.1746         estimate D2E/DX2                !
 ! D5    D(10,1,3,8)            67.7826         estimate D2E/DX2                !
 ! D6    D(10,1,3,20)         -176.7147         estimate D2E/DX2                !
 ! D7    D(11,1,3,2)          -171.0664         estimate D2E/DX2                !
 ! D8    D(11,1,3,8)           -53.1092         estimate D2E/DX2                !
 ! D9    D(11,1,3,20)           62.3934         estimate D2E/DX2                !
 ! D10   D(3,1,10,9)            51.0913         estimate D2E/DX2                !
 ! D11   D(3,1,10,24)         -170.8073         estimate D2E/DX2                !
 ! D12   D(7,1,10,9)           -71.3469         estimate D2E/DX2                !
 ! D13   D(7,1,10,24)           66.7545         estimate D2E/DX2                !
 ! D14   D(11,1,10,9)          174.2892         estimate D2E/DX2                !
 ! D15   D(11,1,10,24)         -47.6094         estimate D2E/DX2                !
 ! D16   D(3,1,11,12)          -59.7419         estimate D2E/DX2                !
 ! D17   D(3,1,11,13)           62.3149         estimate D2E/DX2                !
 ! D18   D(3,1,11,14)         -179.6313         estimate D2E/DX2                !
 ! D19   D(7,1,11,12)           61.1746         estimate D2E/DX2                !
 ! D20   D(7,1,11,13)         -176.7686         estimate D2E/DX2                !
 ! D21   D(7,1,11,14)          -58.7148         estimate D2E/DX2                !
 ! D22   D(10,1,11,12)         176.744          estimate D2E/DX2                !
 ! D23   D(10,1,11,13)         -61.1992         estimate D2E/DX2                !
 ! D24   D(10,1,11,14)          56.8546         estimate D2E/DX2                !
 ! D25   D(4,2,3,1)              0.0155         Frozen                          !
 ! D26   D(4,2,3,8)           -117.6682         estimate D2E/DX2                !
 ! D27   D(4,2,3,20)           126.7169         estimate D2E/DX2                !
 ! D28   D(6,2,3,1)           -118.6309         estimate D2E/DX2                !
 ! D29   D(6,2,3,8)            123.6854         estimate D2E/DX2                !
 ! D30   D(6,2,3,20)             8.0706         estimate D2E/DX2                !
 ! D31   D(18,2,3,1)           126.9497         estimate D2E/DX2                !
 ! D32   D(18,2,3,8)             9.266          estimate D2E/DX2                !
 ! D33   D(18,2,3,20)         -106.3489         estimate D2E/DX2                !
 ! D34   D(3,2,4,5)            167.0762         estimate D2E/DX2                !
 ! D35   D(3,2,4,9)             46.8102         estimate D2E/DX2                !
 ! D36   D(3,2,4,16)           -75.026          estimate D2E/DX2                !
 ! D37   D(6,2,4,5)            -73.6992         estimate D2E/DX2                !
 ! D38   D(6,2,4,9)            166.0348         estimate D2E/DX2                !
 ! D39   D(6,2,4,16)            44.1985         estimate D2E/DX2                !
 ! D40   D(18,2,4,5)            41.2979         estimate D2E/DX2                !
 ! D41   D(18,2,4,9)           -78.9681         estimate D2E/DX2                !
 ! D42   D(18,2,4,16)          159.1956         estimate D2E/DX2                !
 ! D43   D(3,2,18,19)          -59.962          estimate D2E/DX2                !
 ! D44   D(4,2,18,19)           67.204          estimate D2E/DX2                !
 ! D45   D(6,2,18,19)         -176.4332         estimate D2E/DX2                !
 ! D46   D(1,3,20,21)         -175.6437         estimate D2E/DX2                !
 ! D47   D(2,3,20,21)           57.6847         estimate D2E/DX2                !
 ! D48   D(8,3,20,21)          -59.1766         estimate D2E/DX2                !
 ! D49   D(2,4,9,10)           -49.5203         estimate D2E/DX2                !
 ! D50   D(2,4,9,29)          -168.4658         estimate D2E/DX2                !
 ! D51   D(2,4,9,30)            73.4317         estimate D2E/DX2                !
 ! D52   D(5,4,9,10)          -170.8999         estimate D2E/DX2                !
 ! D53   D(5,4,9,29)            70.1546         estimate D2E/DX2                !
 ! D54   D(5,4,9,30)           -47.9479         estimate D2E/DX2                !
 ! D55   D(16,4,9,10)           72.4765         estimate D2E/DX2                !
 ! D56   D(16,4,9,29)          -46.469          estimate D2E/DX2                !
 ! D57   D(16,4,9,30)         -164.5715         estimate D2E/DX2                !
 ! D58   D(2,4,16,17)          159.6353         estimate D2E/DX2                !
 ! D59   D(5,4,16,17)          -79.8005         estimate D2E/DX2                !
 ! D60   D(9,4,16,17)           38.4189         estimate D2E/DX2                !
 ! D61   D(4,9,10,1)            -0.0048         Frozen                          !
 ! D62   D(4,9,10,24)         -132.5806         estimate D2E/DX2                !
 ! D63   D(29,9,10,1)          119.2329         estimate D2E/DX2                !
 ! D64   D(29,9,10,24)         -13.3429         estimate D2E/DX2                !
 ! D65   D(30,9,10,1)         -124.5041         estimate D2E/DX2                !
 ! D66   D(30,9,10,24)         102.9201         estimate D2E/DX2                !
 ! D67   D(4,9,29,23)          156.7027         estimate D2E/DX2                !
 ! D68   D(10,9,29,23)          32.1934         estimate D2E/DX2                !
 ! D69   D(30,9,29,23)         -83.6729         estimate D2E/DX2                !
 ! D70   D(1,10,24,22)        -145.1215         estimate D2E/DX2                !
 ! D71   D(9,10,24,22)          -8.991          estimate D2E/DX2                !
 ! D72   D(1,11,14,15)         174.3136         estimate D2E/DX2                !
 ! D73   D(12,11,14,15)         52.6334         estimate D2E/DX2                !
 ! D74   D(13,11,14,15)        -65.3703         estimate D2E/DX2                !
 ! D75   D(3,20,21,26)          -3.2476         estimate D2E/DX2                !
 ! D76   D(20,21,26,27)       -154.5994         estimate D2E/DX2                !
 ! D77   D(20,21,26,28)        -17.2125         estimate D2E/DX2                !
 ! D78   D(24,22,23,29)         49.7162         estimate D2E/DX2                !
 ! D79   D(25,22,23,29)        -55.0278         estimate D2E/DX2                !
 ! D80   D(23,22,24,10)          6.7173         estimate D2E/DX2                !
 ! D81   D(25,22,24,10)        149.2677         estimate D2E/DX2                !
 ! D82   D(22,23,29,9)         -74.2806         estimate D2E/DX2                !
 ! D83   D(21,26,27,28)        137.5679         estimate D2E/DX2                !
 --------------------------------------------------------------------------------
 Trust Radius=3.00D-01 FncErr=1.00D-07 GrdErr=1.00D-06
 Number of steps in this run=    180 maximum allowed number of steps=    180.
 GradGradGradGradGradGradGradGradGradGradGradGradGradGradGradGradGradGrad

                          Input orientation:                          
 ---------------------------------------------------------------------
 Center     Atomic      Atomic             Coordinates (Angstroms)
 Number     Number       Type             X           Y           Z
 ---------------------------------------------------------------------
      1          6           0       -0.453800    0.833200    0.251100
      2          6           0        1.522100   -0.777700    0.103400
      3          6           0        1.058100    0.697300    0.040600
      4          6           0        0.370500   -1.755900    0.359500
      5          1           0        0.686400   -2.788500    0.172400
      6          1           0        2.228600   -0.880900    0.936400
      7          1           0       -0.723200    0.616300    1.292000
      8          1           0        1.281900    1.075200   -0.966100
      9          6           0       -0.808000   -1.413400   -0.573900
     10          8           0       -1.198400   -0.050300   -0.593600
     11          6           0       -0.938700    2.262600   -0.029400
     12          1           0       -0.446800    2.985500    0.628600
     13          1           0       -0.756800    2.536800   -1.073700
     14          8           0       -2.355500    2.344700    0.188300
     15          1           0       -2.589100    3.284900    0.086400
     16          8           0       -0.045700   -1.700400    1.732000
     17          1           0       -0.952800   -2.074500    1.730400
     18          8           0        2.281300   -1.114900   -1.073600
     19          1           0        1.713300   -0.984100   -1.854500
     20          8           0        1.799700    1.523300    0.935100
     21          1           0        2.748200    1.425000    0.680500
     22          8           0       -3.950100   -0.144800   -0.455900
     23          1           0       -2.707600   -1.650200   -0.461100
     24          1           0       -3.170900    0.455600   -0.430800
     25          1           0       -4.564300    0.336100    0.122500
     26          8           0        4.258700    0.815600   -0.215800
     27          1           0        5.219200    0.677900   -0.165300
     28          1           0        3.949400   -0.009600   -0.643600
     29          8           0       -1.934400   -2.156100   -0.122500
     30          1           0       -0.587000   -1.712900   -1.603300
 ---------------------------------------------------------------------
                    Distance matrix (angstroms):
                    1          2          3          4          5
     1  C    0.000000
     2  C    2.553624   0.000000
     3  C    1.532521   1.547535   0.000000
     4  C    2.719312   1.532529   2.567622   0.000000
     5  H    3.797757   2.178640   3.508038   1.095930   0.000000
     6  H    3.256232   1.097124   2.159454   2.133301   2.569244
     7  H    1.096857   2.897823   2.178438   2.773638   3.851381
     8  H    2.133728   2.152850   1.098335   3.256224   4.071729
     9  C    2.419358   2.508429   2.883573   1.541883   2.163584
    10  O    1.431265   2.901041   2.460266   2.505777   3.411300
    11  C    1.535250   3.913642   2.538164   4.244242   5.309923
    12  H    2.185166   4.279495   2.801130   4.818845   5.901808
    13  H    2.179256   4.191045   2.814123   4.663919   5.656360
    14  O    2.430029   4.979194   3.793205   4.926998   5.966838
    15  H    3.255375   5.779877   4.472118   5.851793   6.900905
    16  O    2.962894   2.441661   3.134992   1.435291   2.037715
    17  H    3.300310   3.233257   3.818641   1.931837   2.371526
    18  O    3.609805   1.440631   2.453921   2.473017   2.626244
    19  H    3.525968   1.978012   2.616830   2.701959   2.901501
    20  O    2.454049   2.462395   1.425615   3.623131   4.518049
    21  H    3.284420   2.586166   1.948193   3.984297   4.718344
    22  O    3.698709   5.536998   5.102716   4.682745   5.374109
    23  H    3.428428   4.355488   4.465754   3.187359   3.635421
    24  H    2.826694   4.881664   4.262051   4.249332   5.076101
    25  H    4.142446   6.187502   5.634586   5.365155   6.110275
    26  O    4.735606   3.182683   3.213032   4.696986   5.089358
    27  H    5.690381   3.982401   4.166236   5.450568   5.716314
    28  H    4.571539   2.653257   3.054088   4.106616   4.362947
    29  O    3.356735   3.728057   4.138061   2.388524   2.712100
    30  H    3.152644   2.869796   3.349302   2.184317   2.435482
                    6          7          8          9         10
     6  H    0.000000
     7  H    3.328841   0.000000
     8  H    2.888265   3.054510   0.000000
     9  C    3.433002   2.758343   3.273321   0.000000
    10  O    3.843843   2.055641   2.749072   1.418042   0.000000
    11  C    4.565759   2.121990   2.686706   3.718405   2.394843
    12  H    4.711853   2.475804   3.029970   4.574581   3.357790
    13  H    4.963244   3.047292   2.510807   3.982022   2.668069
    14  O    5.654920   2.621054   4.021809   4.135096   2.772413
    15  H    6.425467   3.472244   4.579866   5.067774   3.676956
    16  O    2.544995   2.453509   4.092215   2.445536   3.075705
    17  H    3.489473   2.735930   4.710160   2.401628   3.091712
    18  O    2.024261   4.197635   2.409750   3.143657   3.670434
    19  H    2.839948   4.289321   2.283873   2.860278   3.307544
    20  O    2.442158   2.704635   2.020760   4.207302   3.715070
    21  H    2.377529   3.616427   2.232417   4.719809   4.401760
    22  O    6.376259   3.747974   5.396529   3.390584   2.756763
    23  H    5.187572   3.485430   4.857874   1.917623   2.203389
    24  H    5.728007   2.997516   4.527458   3.016113   2.042840
    25  H    6.948886   4.024959   5.992443   4.201846   3.462858
    26  O    2.885651   5.208887   3.080857   5.546902   5.538272
    27  H    3.547857   6.118794   4.037507   6.392779   6.472967
    28  H    2.493334   5.096223   2.897646   4.960682   5.148204
    29  O    4.480845   3.339763   4.636545   1.422724   2.279918
    30  H    3.881997   3.718398   3.416477   1.094626   2.039005
                   11         12         13         14         15
    11  C    0.000000
    12  H    1.094310   0.000000
    13  H    1.094914   1.787528   0.000000
    14  O    1.435777   2.060977   2.045822   0.000000
    15  H    1.944821   2.230038   2.294081   0.974130   0.000000
    16  O    4.427793   4.830738   5.131421   4.907242   5.833532
    17  H    4.680548   5.203230   5.400507   4.886202   5.839810
    18  O    4.781868   5.210882   4.750259   5.921245   6.665181
    19  H    4.572216   5.156505   4.371245   5.639953   6.364126
    20  O    2.995940   2.697913   3.405606   4.300941   4.804695
    21  H    3.846916   3.556104   4.074106   5.209209   5.683217
    22  O    3.878918   4.821621   4.215426   3.025781   3.729511
    23  H    4.315713   5.271468   4.659600   4.062625   4.966791
    24  H    2.899843   3.865675   3.251552   2.148688   2.934438
    25  H    4.108461   4.922323   4.557525   2.986235   3.549386
    26  O    5.398289   5.250067   5.371570   6.800668   7.285680
    27  H    6.359990   6.169186   6.324024   7.763977   8.235858
    28  H    5.425279   5.469524   5.368189   6.781338   7.357895
    29  O    4.530452   5.404920   4.931007   4.531128   5.484228
    30  H    4.290158   5.203460   4.285937   4.775096   5.642827
                   16         17         18         19         20
    16  O    0.000000
    17  H    0.981215   0.000000
    18  O    3.691765   4.386645   0.000000
    19  H    4.058343   4.598757   0.974442   0.000000
    20  O    3.799052   4.599231   3.350659   3.751851   0.000000
    21  H    4.321997   5.200595   3.121851   3.647054   0.986983
    22  O    4.738263   4.181801   6.336639   5.893607   6.146352
    23  H    3.449336   2.839371   5.054782   4.682906   5.686495
    24  H    4.369544   3.999020   5.710179   5.287255   5.264269
    25  H    5.211101   4.630256   7.099176   6.712654   6.524589
    26  O    5.352760   6.268980   2.893573   3.521835   2.805725
    27  H    6.080726   7.018758   3.559550   4.231663   3.690334
    28  H    4.946019   5.825054   2.046740   2.723247   3.076245
    29  O    2.685893   2.098436   4.445314   4.204655   5.347897
    30  H    3.378963   3.373147   2.977471   2.426032   4.755292
                   21         22         23         24         25
    21  H    0.000000
    22  O    6.973012   0.000000
    23  H    6.365992   1.951938   0.000000
    24  H    6.100038   0.984003   2.156376   0.000000
    25  H    7.414157   0.971109   2.780883   1.503990   0.000000
    26  O    1.859121   8.268278   7.393895   7.441423   8.842494
    27  H    2.716501   9.210719   8.266904   8.397243   9.793698
    28  H    2.292204   7.902886   6.858609   7.138653   8.555087
    29  O    5.949439   2.866972   0.984085   2.906021   3.631454
    30  H    5.117198   3.884058   2.409460   3.571231   4.795383
                   26         27         28         29         30
    26  O    0.000000
    27  H    0.971634   0.000000
    28  H    0.979609   1.521124   0.000000
    29  O    6.869803   7.694633   6.284752   0.000000
    30  H    5.639085   6.441718   4.939755   2.050532   0.000000
 Stoichiometry    C6H16O8
 Framework group  C1[X(C6H16O8)]
 Deg. of freedom    84
 Full point group                 C1      NOp   1
 Largest Abelian subgroup         C1      NOp   1
 Largest concise Abelian subgroup C1      NOp   1
                         Standard orientation:                         
 ---------------------------------------------------------------------
 Center     Atomic      Atomic             Coordinates (Angstroms)
 Number     Number       Type             X           Y           Z
 ---------------------------------------------------------------------
      1          6           0       -0.408453    0.857924    0.215337
      2          6           0        1.538767   -0.788714    0.081504
      3          6           0        1.098488    0.692116   -0.008841
      4          6           0        0.374185   -1.741614    0.371979
      5          1           0        0.670834   -2.783227    0.204332
      6          1           0        2.252959   -0.885398    0.908706
      7          1           0       -0.669460    0.668507    1.263713
      8          1           0        1.316954    1.043987   -1.026092
      9          6           0       -0.809111   -1.400022   -0.555668
     10          8           0       -1.177158   -0.031334   -0.601260
     11          6           0       -0.872873    2.288735   -0.091398
     12          1           0       -0.361605    3.017584    0.544919
     13          1           0       -0.698441    2.536822   -1.143473
     14          8           0       -2.285539    2.399329    0.140117
     15          1           0       -2.504739    3.340844    0.019990
     16          8           0       -0.025299   -1.648986    1.747439
     17          1           0       -0.938410   -2.007779    1.764188
     18          8           0        2.278771   -1.164384   -1.096072
     19          1           0        1.704103   -1.041287   -1.873337
     20          8           0        1.863815    1.525041    0.858849
     21          1           0        2.807586    1.405289    0.595995
     22          8           0       -3.928286   -0.076665   -0.431010
     23          1           0       -2.710945   -1.602423   -0.416598
     24          1           0       -3.139045    0.511002   -0.427867
     25          1           0       -4.527801    0.427059    0.143356
     26          8           0        4.297459    0.751106   -0.303258
     27          1           0        5.256071    0.598476   -0.260366
     28          1           0        3.969702   -0.078002   -0.709201
     29          8           0       -1.942375   -2.113640   -0.075454
     30          1           0       -0.604887   -1.725743   -1.580559
 ---------------------------------------------------------------------
 Rotational constants (GHZ):      0.8674653      0.4467128      0.3392979
 Standard basis: 6-31G(d) (6D, 7F)
 There are   242 symmetry adapted cartesian basis functions of A   symmetry.
 There are   242 symmetry adapted basis functions of A   symmetry.
   242 basis functions,   456 primitive gaussians,   242 cartesian basis functions
    58 alpha electrons       58 beta electrons
       nuclear repulsion energy      1099.8563309424 Hartrees.
 NAtoms=   30 NActive=   30 NUniq=   30 SFac= 1.00D+00 NAtFMM=   60 NAOKFM=F Big=F
 Integral buffers will be    131072 words long.
 Raffenetti 2 integral format.
 Two-electron integral symmetry is turned on.
 One-electron integrals computed using PRISM.
 NBasis=   242 RedAO= T EigKep=  1.35D-03  NBF=   242
 NBsUse=   242 1.00D-06 EigRej= -1.00D+00 NBFU=   242
 ExpMin= 1.61D-01 ExpMax= 5.48D+03 ExpMxC= 8.25D+02 IAcc=1 IRadAn=         1 AccDes= 0.00D+00
 Harris functional with IExCor=  402 and IRadAn=       1 diagonalized for initial guess.
 HarFok:  IExCor=  402 AccDes= 0.00D+00 IRadAn=         1 IDoV= 1 UseB2=F ITyADJ=14
 ICtDFT=  3500011 ScaDFX=  1.000000  1.000000  1.000000  1.000000
 FoFCou: FMM=F IPFlag=           0 FMFlag=      100000 FMFlg1=           0
         NFxFlg=           0 DoJE=T BraDBF=F KetDBF=T FulRan=T
         wScrn=  0.000000 ICntrl=     500 IOpCl=  0 I1Cent=   200000004 NGrid=           0
         NMat0=    1 NMatS0=      1 NMatT0=    0 NMatD0=    1 NMtDS0=    0 NMtDT0=    0
 Petite list used in FoFCou.
 Requested convergence on RMS density matrix=1.00D-08 within 128 cycles.
 Requested convergence on MAX density matrix=1.00D-06.
 Requested convergence on             energy=1.00D-06.
 No special actions if energy rises.
 Integral accuracy reduced to 1.0D-05 until final iterations.
 Initial convergence to 1.0D-05 achieved.  Increase integral accuracy.
 SCF Done:  E(RB3LYP) =  -839.980971523     A.U. after   13 cycles
            NFock= 13  Conv=0.77D-08     -V/T= 2.0087

 **********************************************************************

            Population analysis using the SCF density.

 **********************************************************************

 Orbital symmetries:
       Occupied  (A) (A) (A) (A) (A) (A) (A) (A) (A) (A) (A) (A)
                 (A) (A) (A) (A) (A) (A) (A) (A) (A) (A) (A) (A)
                 (A) (A) (A) (A) (A) (A) (A) (A) (A) (A) (A) (A)
                 (A) (A) (A) (A) (A) (A) (A) (A) (A) (A) (A) (A)
                 (A) (A) (A) (A) (A) (A) (A) (A) (A) (A)
       Virtual   (A) (A) (A) (A) (A) (A) (A) (A) (A) (A) (A) (A)
                 (A) (A) (A) (A) (A) (A) (A) (A) (A) (A) (A) (A)
                 (A) (A) (A) (A) (A) (A) (A) (A) (A) (A) (A) (A)
                 (A) (A) (A) (A) (A) (A) (A) (A) (A) (A) (A) (A)
                 (A) (A) (A) (A) (A) (A) (A) (A) (A) (A) (A) (A)
                 (A) (A) (A) (A) (A) (A) (A) (A) (A) (A) (A) (A)
                 (A) (A) (A) (A) (A) (A) (A) (A) (A) (A) (A) (A)
                 (A) (A) (A) (A) (A) (A) (A) (A) (A) (A) (A) (A)
                 (A) (A) (A) (A) (A) (A) (A) (A) (A) (A) (A) (A)
                 (A) (A) (A) (A) (A) (A) (A) (A) (A) (A) (A) (A)
                 (A) (A) (A) (A) (A) (A) (A) (A) (A) (A) (A) (A)
                 (A) (A) (A) (A) (A) (A) (A) (A) (A) (A) (A) (A)
                 (A) (A) (A) (A) (A) (A) (A) (A) (A) (A) (A) (A)
                 (A) (A) (A) (A) (A) (A) (A) (A) (A) (A) (A) (A)
                 (A) (A) (A) (A) (A) (A) (A) (A) (A) (A) (A) (A)
                 (A) (A) (A) (A)
 The electronic state is 1-A.
 Alpha  occ. eigenvalues --  -19.17666 -19.16760 -19.16058 -19.15938 -19.14174
 Alpha  occ. eigenvalues --  -19.14045 -19.12837 -19.12540 -10.28959 -10.24692
 Alpha  occ. eigenvalues --  -10.24314 -10.24219 -10.24033 -10.23856  -1.07634
 Alpha  occ. eigenvalues --   -1.04428  -1.02809  -1.01738  -1.01101  -1.00165
 Alpha  occ. eigenvalues --   -0.99085  -0.98133  -0.78031  -0.76885  -0.69027
 Alpha  occ. eigenvalues --   -0.65281  -0.62577  -0.56797  -0.54729  -0.53435
 Alpha  occ. eigenvalues --   -0.52869  -0.52229  -0.51377  -0.49639  -0.49079
 Alpha  occ. eigenvalues --   -0.48074  -0.46304  -0.44488  -0.43355  -0.42502
 Alpha  occ. eigenvalues --   -0.41700  -0.40750  -0.40288  -0.38312  -0.37197
 Alpha  occ. eigenvalues --   -0.36793  -0.35527  -0.34401  -0.34045  -0.31984
 Alpha  occ. eigenvalues --   -0.30963  -0.29914  -0.28516  -0.28328  -0.27711
 Alpha  occ. eigenvalues --   -0.27284  -0.26271  -0.25018
 Alpha virt. eigenvalues --    0.03815   0.05041   0.06495   0.08045   0.09264
 Alpha virt. eigenvalues --    0.10489   0.12837   0.13969   0.14100   0.14807
 Alpha virt. eigenvalues --    0.15208   0.16278   0.17151   0.18364   0.18889
 Alpha virt. eigenvalues --    0.19243   0.20702   0.21363   0.21740   0.22879
 Alpha virt. eigenvalues --    0.24906   0.24949   0.25605   0.26447   0.27898
 Alpha virt. eigenvalues --    0.32299   0.33504   0.34756   0.52060   0.53241
 Alpha virt. eigenvalues --    0.54448   0.54928   0.57825   0.58292   0.59102
 Alpha virt. eigenvalues --    0.61678   0.62174   0.63674   0.65335   0.68490
 Alpha virt. eigenvalues --    0.70030   0.71491   0.73158   0.74921   0.76295
 Alpha virt. eigenvalues --    0.78106   0.78887   0.80432   0.80523   0.81087
 Alpha virt. eigenvalues --    0.82261   0.83431   0.83915   0.85489   0.85606
 Alpha virt. eigenvalues --    0.87152   0.88088   0.88833   0.89277   0.90387
 Alpha virt. eigenvalues --    0.91159   0.91850   0.93229   0.93486   0.94067
 Alpha virt. eigenvalues --    0.95537   0.98271   1.00085   1.00879   1.02168
 Alpha virt. eigenvalues --    1.03471   1.03815   1.05579   1.08797   1.10574
 Alpha virt. eigenvalues --    1.10880   1.13016   1.13271   1.15156   1.16196
 Alpha virt. eigenvalues --    1.17056   1.17743   1.19838   1.23916   1.26185
 Alpha virt. eigenvalues --    1.27930   1.30768   1.31390   1.34357   1.36003
 Alpha virt. eigenvalues --    1.37195   1.39382   1.41470   1.42055   1.48370
 Alpha virt. eigenvalues --    1.49647   1.51417   1.56282   1.56668   1.61864
 Alpha virt. eigenvalues --    1.62045   1.63023   1.65785   1.68607   1.70404
 Alpha virt. eigenvalues --    1.71136   1.72781   1.73161   1.73223   1.74592
 Alpha virt. eigenvalues --    1.75784   1.77618   1.79613   1.80055   1.81546
 Alpha virt. eigenvalues --    1.82070   1.83667   1.84836   1.85879   1.87495
 Alpha virt. eigenvalues --    1.88108   1.90188   1.93227   1.94524   1.95975
 Alpha virt. eigenvalues --    1.98943   1.99847   2.00979   2.03822   2.05565
 Alpha virt. eigenvalues --    2.06711   2.08926   2.10676   2.13322   2.16195
 Alpha virt. eigenvalues --    2.19335   2.22576   2.25012   2.27035   2.29243
 Alpha virt. eigenvalues --    2.31154   2.31738   2.32533   2.36113   2.38822
 Alpha virt. eigenvalues --    2.40945   2.43428   2.44642   2.45589   2.47269
 Alpha virt. eigenvalues --    2.51335   2.52715   2.54962   2.56086   2.57364
 Alpha virt. eigenvalues --    2.59361   2.60694   2.63544   2.64209   2.68311
 Alpha virt. eigenvalues --    2.69032   2.76955   2.80706   2.87446   2.90814
 Alpha virt. eigenvalues --    2.93230   2.97087   2.99784   3.02086   3.04878
 Alpha virt. eigenvalues --    3.67576   3.72270   3.74036   3.88454   3.92120
 Alpha virt. eigenvalues --    3.92383   3.96487   4.16355   4.28339   4.36293
 Alpha virt. eigenvalues --    4.41641   4.54220   4.62088   4.79688
          Condensed to atoms (all electrons):
               1          2          3          4          5          6
     1  C    4.947035  -0.041539   0.298006  -0.001254   0.000599   0.000299
     2  C   -0.041539   5.065973   0.307514   0.291644  -0.045524   0.358546
     3  C    0.298006   0.307514   4.974588  -0.031663   0.004880  -0.048118
     4  C   -0.001254   0.291644  -0.031663   5.056550   0.357383  -0.030709
     5  H    0.000599  -0.045524   0.004880   0.357383   0.615935  -0.004695
     6  H    0.000299   0.358546  -0.048118  -0.030709  -0.004695   0.557627
     7  H    0.346684  -0.009850  -0.041504  -0.000942   0.000149   0.000727
     8  H   -0.047870  -0.071558   0.343292   0.003360  -0.000334   0.005318
     9  C   -0.028531  -0.027191  -0.027918   0.268673  -0.041631   0.005734
    10  O    0.184734  -0.005207  -0.023042  -0.015582   0.002717   0.000090
    11  C    0.343819   0.004837  -0.024612   0.000023   0.000026  -0.000186
    12  H   -0.029608   0.000113  -0.001888  -0.000013   0.000000   0.000005
    13  H   -0.032769  -0.000194  -0.004811   0.000032  -0.000001   0.000004
    14  O   -0.040270  -0.000034   0.001886   0.000002   0.000000   0.000000
    15  H    0.005667   0.000003  -0.000183   0.000000   0.000000   0.000000
    16  O   -0.003771  -0.036308   0.002425   0.194025  -0.038699   0.002977
    17  H    0.000544   0.005407  -0.000001  -0.036034  -0.000171  -0.000388
    18  O    0.002955   0.194244  -0.038626  -0.029093   0.003886  -0.037493
    19  H   -0.000081  -0.028126  -0.005412  -0.006264  -0.000572   0.006446
    20  O   -0.032357  -0.038101   0.214128   0.002562  -0.000087   0.003747
    21  H    0.004078   0.000143  -0.022853   0.000143   0.000001   0.002165
    22  O    0.001145   0.000000  -0.000003  -0.000068   0.000001   0.000000
    23  H   -0.000094  -0.000178   0.000021   0.005478  -0.000182   0.000006
    24  H   -0.004082  -0.000006   0.000262   0.000168  -0.000006   0.000000
    25  H    0.000028   0.000000   0.000002   0.000002   0.000000   0.000000
    26  O    0.000013   0.003146  -0.000457   0.000092   0.000000   0.004011
    27  H    0.000001  -0.000034  -0.000007  -0.000002   0.000000   0.000061
    28  H    0.000017  -0.005384   0.000887   0.000422  -0.000004  -0.002665
    29  O    0.001228   0.002412   0.000094  -0.046445  -0.000199  -0.000061
    30  H    0.005898  -0.002329   0.001165  -0.067288   0.000567  -0.000203
               7          8          9         10         11         12
     1  C    0.346684  -0.047870  -0.028531   0.184734   0.343819  -0.029608
     2  C   -0.009850  -0.071558  -0.027191  -0.005207   0.004837   0.000113
     3  C   -0.041504   0.343292  -0.027918  -0.023042  -0.024612  -0.001888
     4  C   -0.000942   0.003360   0.268673  -0.015582   0.000023  -0.000013
     5  H    0.000149  -0.000334  -0.041631   0.002717   0.000026   0.000000
     6  H    0.000727   0.005318   0.005734   0.000090  -0.000186   0.000005
     7  H    0.592786   0.007392   0.000502  -0.044150  -0.048007  -0.002238
     8  H    0.007392   0.687951   0.002355   0.002911  -0.016040   0.000189
     9  C    0.000502   0.002355   4.716373   0.212734   0.002849  -0.000066
    10  O   -0.044150   0.002911   0.212734   8.364529  -0.039674   0.002999
    11  C   -0.048007  -0.016040   0.002849  -0.039674   4.915427   0.361953
    12  H   -0.002238   0.000189  -0.000066   0.002999   0.361953   0.583062
    13  H    0.006819   0.008194   0.000010  -0.000868   0.345829  -0.045073
    14  O    0.002562  -0.000018  -0.000087   0.000032   0.227324  -0.035640
    15  H   -0.000157  -0.000006   0.000009   0.000006  -0.021601  -0.005256
    16  O    0.013769  -0.000038  -0.020143  -0.002348   0.000415   0.000001
    17  H   -0.000492   0.000009  -0.012066   0.000397  -0.000044  -0.000001
    18  O    0.000003   0.001157   0.001011  -0.000271  -0.000048  -0.000001
    19  H    0.000054   0.006945   0.004489   0.000048  -0.000063   0.000001
    20  O    0.003691  -0.041267   0.000256   0.000895   0.000532   0.007569
    21  H   -0.000182  -0.003221  -0.000036  -0.000059  -0.000058  -0.000017
    22  O    0.000205   0.000000  -0.000624  -0.010490   0.000251  -0.000017
    23  H   -0.000057  -0.000002  -0.022367   0.004576  -0.000041   0.000000
    24  H    0.000006  -0.000001  -0.001072   0.023650  -0.003822   0.000374
    25  H    0.000020   0.000000   0.000028   0.000555  -0.000085   0.000003
    26  O    0.000000   0.000877  -0.000001   0.000000  -0.000001   0.000000
    27  H    0.000000  -0.000041   0.000000   0.000000   0.000000   0.000000
    28  H   -0.000001   0.000166  -0.000015  -0.000001   0.000000   0.000000
    29  O    0.001548   0.000008   0.266766  -0.065785  -0.000125   0.000002
    30  H   -0.000404  -0.000419   0.362512  -0.058115  -0.000254   0.000002
              13         14         15         16         17         18
     1  C   -0.032769  -0.040270   0.005667  -0.003771   0.000544   0.002955
     2  C   -0.000194  -0.000034   0.000003  -0.036308   0.005407   0.194244
     3  C   -0.004811   0.001886  -0.000183   0.002425  -0.000001  -0.038626
     4  C    0.000032   0.000002   0.000000   0.194025  -0.036034  -0.029093
     5  H   -0.000001   0.000000   0.000000  -0.038699  -0.000171   0.003886
     6  H    0.000004   0.000000   0.000000   0.002977  -0.000388  -0.037493
     7  H    0.006819   0.002562  -0.000157   0.013769  -0.000492   0.000003
     8  H    0.008194  -0.000018  -0.000006  -0.000038   0.000009   0.001157
     9  C    0.000010  -0.000087   0.000009  -0.020143  -0.012066   0.001011
    10  O   -0.000868   0.000032   0.000006  -0.002348   0.000397  -0.000271
    11  C    0.345829   0.227324  -0.021601   0.000415  -0.000044  -0.000048
    12  H   -0.045073  -0.035640  -0.005256   0.000001  -0.000001  -0.000001
    13  H    0.642508  -0.044461  -0.002855  -0.000007   0.000000  -0.000008
    14  O   -0.044461   8.267994   0.235348  -0.000001   0.000000   0.000000
    15  H   -0.002855   0.235348   0.388420   0.000000   0.000000   0.000000
    16  O   -0.000007  -0.000001   0.000000   8.313045   0.229421   0.001189
    17  H    0.000000   0.000000   0.000000   0.229421   0.357887  -0.000088
    18  O   -0.000008   0.000000   0.000000   0.001189  -0.000088   8.284648
    19  H    0.000001   0.000000   0.000000   0.000016   0.000009   0.232620
    20  O    0.000088   0.000019   0.000004  -0.000117   0.000009   0.001596
    21  H   -0.000038   0.000000   0.000000  -0.000018   0.000000   0.000192
    22  O    0.000005  -0.006174   0.000367  -0.000001   0.000028   0.000000
    23  H    0.000003   0.000009  -0.000002   0.000229  -0.001281   0.000002
    24  H   -0.000001   0.030189  -0.001138  -0.000021   0.000012   0.000000
    25  H    0.000011   0.002016  -0.000060   0.000000  -0.000002   0.000000
    26  O    0.000000   0.000000   0.000000   0.000000   0.000000  -0.010941
    27  H    0.000000   0.000000   0.000000   0.000000   0.000000   0.000263
    28  H    0.000000   0.000000   0.000000  -0.000006   0.000000   0.039816
    29  O    0.000005  -0.000001   0.000000  -0.013010   0.037381   0.000016
    30  H   -0.000059   0.000002   0.000000   0.003613   0.001510   0.002297
              19         20         21         22         23         24
     1  C   -0.000081  -0.032357   0.004078   0.001145  -0.000094  -0.004082
     2  C   -0.028126  -0.038101   0.000143   0.000000  -0.000178  -0.000006
     3  C   -0.005412   0.214128  -0.022853  -0.000003   0.000021   0.000262
     4  C   -0.006264   0.002562   0.000143  -0.000068   0.005478   0.000168
     5  H   -0.000572  -0.000087   0.000001   0.000001  -0.000182  -0.000006
     6  H    0.006446   0.003747   0.002165   0.000000   0.000006   0.000000
     7  H    0.000054   0.003691  -0.000182   0.000205  -0.000057   0.000006
     8  H    0.006945  -0.041267  -0.003221   0.000000  -0.000002  -0.000001
     9  C    0.004489   0.000256  -0.000036  -0.000624  -0.022367  -0.001072
    10  O    0.000048   0.000895  -0.000059  -0.010490   0.004576   0.023650
    11  C   -0.000063   0.000532  -0.000058   0.000251  -0.000041  -0.003822
    12  H    0.000001   0.007569  -0.000017  -0.000017   0.000000   0.000374
    13  H    0.000001   0.000088  -0.000038   0.000005   0.000003  -0.000001
    14  O    0.000000   0.000019   0.000000  -0.006174   0.000009   0.030189
    15  H    0.000000   0.000004   0.000000   0.000367  -0.000002  -0.001138
    16  O    0.000016  -0.000117  -0.000018  -0.000001   0.000229  -0.000021
    17  H    0.000009   0.000009   0.000000   0.000028  -0.001281   0.000012
    18  O    0.232620   0.001596   0.000192   0.000000   0.000002   0.000000
    19  H    0.383713  -0.000111   0.000001   0.000000   0.000004   0.000000
    20  O   -0.000111   8.345896   0.224755   0.000000   0.000000  -0.000001
    21  H    0.000001   0.224755   0.308577   0.000000   0.000000   0.000000
    22  O    0.000000   0.000000   0.000000   8.351030   0.051163   0.213768
    23  H    0.000004   0.000000   0.000000   0.051163   0.313300  -0.005532
    24  H    0.000000  -0.000001   0.000000   0.213768  -0.005532   0.319532
    25  H    0.000000   0.000000   0.000000   0.241878  -0.001996  -0.018014
    26  O    0.000463  -0.015065   0.048662   0.000000   0.000000   0.000000
    27  H   -0.000005   0.000660  -0.001321   0.000000   0.000000   0.000000
    28  H   -0.001837   0.001679  -0.005067   0.000000   0.000000   0.000000
    29  O   -0.000047   0.000000   0.000000  -0.011210   0.216795   0.001220
    30  H    0.004334  -0.000010  -0.000001  -0.000061  -0.001594   0.000127
              25         26         27         28         29         30
     1  C    0.000028   0.000013   0.000001   0.000017   0.001228   0.005898
     2  C    0.000000   0.003146  -0.000034  -0.005384   0.002412  -0.002329
     3  C    0.000002  -0.000457  -0.000007   0.000887   0.000094   0.001165
     4  C    0.000002   0.000092  -0.000002   0.000422  -0.046445  -0.067288
     5  H    0.000000   0.000000   0.000000  -0.000004  -0.000199   0.000567
     6  H    0.000000   0.004011   0.000061  -0.002665  -0.000061  -0.000203
     7  H    0.000020   0.000000   0.000000  -0.000001   0.001548  -0.000404
     8  H    0.000000   0.000877  -0.000041   0.000166   0.000008  -0.000419
     9  C    0.000028  -0.000001   0.000000  -0.000015   0.266766   0.362512
    10  O    0.000555   0.000000   0.000000  -0.000001  -0.065785  -0.058115
    11  C   -0.000085  -0.000001   0.000000   0.000000  -0.000125  -0.000254
    12  H    0.000003   0.000000   0.000000   0.000000   0.000002   0.000002
    13  H    0.000011   0.000000   0.000000   0.000000   0.000005  -0.000059
    14  O    0.002016   0.000000   0.000000   0.000000  -0.000001   0.000002
    15  H   -0.000060   0.000000   0.000000   0.000000   0.000000   0.000000
    16  O    0.000000   0.000000   0.000000  -0.000006  -0.013010   0.003613
    17  H   -0.000002   0.000000   0.000000   0.000000   0.037381   0.001510
    18  O    0.000000  -0.010941   0.000263   0.039816   0.000016   0.002297
    19  H    0.000000   0.000463  -0.000005  -0.001837  -0.000047   0.004334
    20  O    0.000000  -0.015065   0.000660   0.001679   0.000000  -0.000010
    21  H    0.000000   0.048662  -0.001321  -0.005067   0.000000  -0.000001
    22  O    0.241878   0.000000   0.000000   0.000000  -0.011210  -0.000061
    23  H   -0.001996   0.000000   0.000000   0.000000   0.216795  -0.001594
    24  H   -0.018014   0.000000   0.000000   0.000000   0.001220   0.000127
    25  H    0.387615   0.000000   0.000000   0.000000   0.000650   0.000004
    26  O    0.000000   8.318455   0.241207   0.217881   0.000000   0.000000
    27  H    0.000000   0.241207   0.373719  -0.014428   0.000000   0.000000
    28  H    0.000000   0.217881  -0.014428   0.345178   0.000000  -0.000003
    29  O    0.000650   0.000000   0.000000   0.000000   8.335249  -0.054382
    30  H    0.000004   0.000000   0.000000  -0.000003  -0.054382   0.690501
 Mulliken charges:
               1
     1  C    0.119478
     2  C    0.077579
     3  C    0.121947
     4  C    0.084798
     5  H    0.145962
     6  H    0.176756
     7  H    0.171070
     8  H    0.110695
     9  C    0.337447
    10  O   -0.535284
    11  C   -0.048622
    12  H    0.163546
    13  H    0.127636
    14  O   -0.640699
    15  H    0.401435
    16  O   -0.646635
    17  H    0.417952
    18  O   -0.649324
    19  H    0.403372
    20  O   -0.680970
    21  H    0.444152
    22  O   -0.831191
    23  H    0.441740
    24  H    0.444388
    25  H    0.387345
    26  O   -0.808344
    27  H    0.399926
    28  H    0.423363
    29  O   -0.672107
    30  H    0.112589
 Sum of Mulliken charges =   0.00000
 Mulliken charges with hydrogens summed into heavy atoms:
               1
     1  C    0.290548
     2  C    0.254335
     3  C    0.232642
     4  C    0.230761
     9  C    0.450036
    10  O   -0.535284
    11  C    0.242561
    14  O   -0.239264
    16  O   -0.228684
    18  O   -0.245952
    20  O   -0.236817
    22  O    0.000542
    26  O    0.014944
    29  O   -0.230367
 Electronic spatial extent (au):  <R**2>=           3342.0870
 Charge=              0.0000 electrons
 Dipole moment (field-independent basis, Debye):
    X=              1.9581    Y=              1.9551    Z=             -2.1874  Tot=              3.5272
 Quadrupole moment (field-independent basis, Debye-Ang):
   XX=            -70.2911   YY=            -78.7343   ZZ=            -85.0364
   XY=            -12.2662   XZ=             -8.0230   YZ=              0.0647
 Traceless Quadrupole moment (field-independent basis, Debye-Ang):
   XX=              7.7295   YY=             -0.7137   ZZ=             -7.0158
   XY=            -12.2662   XZ=             -8.0230   YZ=              0.0647
 Octapole moment (field-independent basis, Debye-Ang**2):
  XXX=             91.1117  YYY=             48.1015  ZZZ=            -15.3306  XYY=            -30.6585
  XXY=             23.5957  XXZ=             17.4789  XZZ=             -1.3892  YZZ=             -4.7985
  YYZ=             -4.2279  XYZ=              1.7861
 Hexadecapole moment (field-independent basis, Debye-Ang**3):
 XXXX=          -1520.2898 YYYY=          -1046.8872 ZZZZ=           -323.1465 XXXY=           -102.2742
 XXXZ=           -118.5855 YYYX=           -121.9475 YYYZ=            -13.4430 ZZZX=            -34.0396
 ZZZY=             12.5561 XXYY=           -562.5739 XXZZ=           -452.3464 YYZZ=           -254.5440
 XXYZ=             -2.0928 YYXZ=              0.7940 ZZXY=              6.3357
 N-N= 1.099856330942D+03 E-N=-4.172559012521D+03  KE= 8.327757535020D+02
 Calling FoFJK, ICntrl=      2127 FMM=F ISym2X=0 I1Cent= 0 IOpClX= 0 NMat=1 NMatS=1 NMatT=0.
 ***** Axes restored to original set *****
 -------------------------------------------------------------------
 Center     Atomic                   Forces (Hartrees/Bohr)
 Number     Number              X              Y              Z
 -------------------------------------------------------------------
      1        6          -0.009241469    0.020473823    0.019560483
      2        6           0.003817902   -0.001123259    0.007737287
      3        6           0.012082453    0.007793128   -0.002181060
      4        6          -0.011815020   -0.003480031    0.003940896
      5        1           0.002986954    0.000623602   -0.009078269
      6        1          -0.001951029    0.001495001   -0.002110354
      7        1           0.005134419   -0.001516479    0.000705129
      8        1          -0.003734485   -0.005324528   -0.007504466
      9        6          -0.021170775   -0.016130142    0.010871684
     10        8           0.023660495    0.007397384   -0.008064018
     11        6          -0.007993821   -0.000047167   -0.004507852
     12        1           0.007926995   -0.004687378    0.000210485
     13        1           0.007595999   -0.001035638   -0.003238889
     14        8          -0.001525951   -0.000662478    0.003477288
     15        1          -0.001437877   -0.006203974    0.000202991
     16        8           0.001813853    0.005565032   -0.008544271
     17        1           0.003931738    0.002990787   -0.002436602
     18        8          -0.002053260   -0.005717484    0.000972104
     19        1           0.002822508    0.000680035    0.002874142
     20        8          -0.007685136   -0.003065443    0.002893898
     21        1          -0.006464648    0.001061986    0.001129454
     22        8           0.005056477    0.011571516    0.001207251
     23        1          -0.004526819   -0.003258680    0.008142753
     24        1          -0.004768079   -0.005780793   -0.003777726
     25        1          -0.002369281   -0.006670118   -0.000114948
     26        8           0.006362295   -0.010569452   -0.005926761
     27        1          -0.001696988    0.005457647    0.004145611
     28        1          -0.006997820    0.004701299   -0.000453184
     29        8           0.008518025    0.003496571   -0.005313517
     30        1           0.003722343    0.001965236   -0.004819537
 -------------------------------------------------------------------
 Cartesian Forces:  Max     0.023660495 RMS     0.007091473

 GradGradGradGradGradGradGradGradGradGradGradGradGradGradGradGradGradGrad
 Berny optimization.
 FormGI is forming the generalized inverse of G from B-inverse, IUseBI=4.
 Internal  Forces:  Max     0.015941401 RMS     0.004151446
 Search for a local minimum.
 Step number   1 out of a maximum of  180
 All quantities printed in internal units (Hartrees-Bohrs-Radians)
 Mixed Optimization -- RFO/linear search
 Second derivative matrix not updated -- first step.
 ITU=  0
     Eigenvalues ---    0.00230   0.00300   0.00528   0.00788   0.01049
     Eigenvalues ---    0.01154   0.01201   0.01219   0.01225   0.01308
     Eigenvalues ---    0.01353   0.01599   0.01853   0.02192   0.02806
     Eigenvalues ---    0.03910   0.04361   0.04377   0.04612   0.04688
     Eigenvalues ---    0.04839   0.05093   0.05122   0.05489   0.05574
     Eigenvalues ---    0.05669   0.06014   0.06206   0.06562   0.06986
     Eigenvalues ---    0.07125   0.07326   0.08160   0.09260   0.09575
     Eigenvalues ---    0.11468   0.12156   0.12852   0.13733   0.13936
     Eigenvalues ---    0.15562   0.16000   0.16000   0.16000   0.16000
     Eigenvalues ---    0.16000   0.16192   0.16808   0.17341   0.18445
     Eigenvalues ---    0.19005   0.19342   0.22049   0.25000   0.25855
     Eigenvalues ---    0.26492   0.27507   0.28944   0.28989   0.33867
     Eigenvalues ---    0.34002   0.34032   0.34136   0.34251   0.34283
     Eigenvalues ---    0.34319   0.36366   0.38905   0.39499   0.40170
     Eigenvalues ---    0.40238   0.40888   0.41626   0.47977   0.49652
     Eigenvalues ---    0.50052   0.51149   0.51461   0.52480   0.52542
     Eigenvalues ---    0.53045   0.531511000.000001000.000001000.00000
     Eigenvalues --- 1000.000001000.000001000.000001000.000001000.00000
     Eigenvalues --- 1000.000001000.000001000.000001000.000001000.00000
     Eigenvalues --- 1000.000001000.000001000.000001000.000001000.00000
     Eigenvalues --- 1000.000001000.000001000.000001000.000001000.00000
     Eigenvalues --- 1000.000001000.000001000.000001000.000001000.00000
     Eigenvalues --- 1000.000001000.000001000.000001000.000001000.00000
     Eigenvalues --- 1000.000001000.000001000.000001000.000001000.00000
     Eigenvalues --- 1000.000001000.000001000.000001000.000001000.00000
     Eigenvalues --- 1000.000001000.000001000.000001000.000001000.00000
     Eigenvalues --- 1000.000001000.000001000.000001000.000001000.00000
     Eigenvalues --- 1000.000001000.000001000.000001000.000001000.00000
     Eigenvalues --- 1000.000001000.000001000.000001000.000001000.00000
     Eigenvalues --- 1000.000001000.000001000.000001000.000001000.00000
     Eigenvalues --- 1000.000001000.000001000.000001000.000001000.00000
     Eigenvalues --- 1000.000001000.000001000.000001000.000001000.00000
     Eigenvalues --- 1000.000001000.000001000.000001000.000001000.00000
     Eigenvalues --- 1000.000001000.00000
 RFO step:  Lambda=-1.78254596D-02 EMin= 2.30000000D-03
 Linear search not attempted -- first point.
 Iteration  1 RMS(Cart)=  0.10791860 RMS(Int)=  0.01088597
 Iteration  2 RMS(Cart)=  0.01901280 RMS(Int)=  0.00058774
 Iteration  3 RMS(Cart)=  0.00057521 RMS(Int)=  0.00047033
 Iteration  4 RMS(Cart)=  0.00000104 RMS(Int)=  0.00047033
 Iteration  5 RMS(Cart)=  0.00000000 RMS(Int)=  0.00047033
 Iteration  1 RMS(Cart)=  0.00001980 RMS(Int)=  0.00001575
 Iteration  2 RMS(Cart)=  0.00001444 RMS(Int)=  0.00001721
 Iteration  3 RMS(Cart)=  0.00001054 RMS(Int)=  0.00001982
 Iteration  4 RMS(Cart)=  0.00000770 RMS(Int)=  0.00002228
 Iteration  5 RMS(Cart)=  0.00000564 RMS(Int)=  0.00002429
 Iteration  6 RMS(Cart)=  0.00000413 RMS(Int)=  0.00002586
 Iteration  7 RMS(Cart)=  0.00000303 RMS(Int)=  0.00002705
 Iteration  8 RMS(Cart)=  0.00000223 RMS(Int)=  0.00002794
 Iteration  9 RMS(Cart)=  0.00000165 RMS(Int)=  0.00002862
 Iteration 10 RMS(Cart)=  0.00000122 RMS(Int)=  0.00002912
 Iteration 11 RMS(Cart)=  0.00000090 RMS(Int)=  0.00002950
 Variable       Old X    -DE/DX   Delta X   Delta X   Delta X     New X
                                 (Linear)    (Quad)   (Total)
    R1        2.89605  -0.00535   0.00000  -0.01546  -0.01546   2.88058
    R2        2.07276  -0.00029   0.00000  -0.00082  -0.00082   2.07194
    R3        2.70470   0.00283   0.00000   0.00478   0.00473   2.70942
    R4        2.90120  -0.01250   0.00000  -0.04067  -0.04067   2.86053
    R5        2.92442   0.00508   0.00000   0.01900   0.01891   2.94333
    R6        2.89606  -0.00030   0.00000  -0.00139  -0.00145   2.89461
    R7        2.07326  -0.00300   0.00000  -0.00838  -0.00838   2.06488
    R8        2.72240  -0.00156   0.00000  -0.00378  -0.00378   2.71862
    R9        2.07555   0.00429   0.00000   0.01202   0.01202   2.08757
   R10        2.69402  -0.00886   0.00000  -0.02042  -0.02042   2.67360
   R11        2.07101   0.00182   0.00000   0.00507   0.00507   2.07608
   R12        2.91374  -0.00691   0.00000  -0.02196  -0.02183   2.89191
   R13        2.71231  -0.01183   0.00000  -0.02815  -0.02815   2.68415
   R14        2.67971   0.00310   0.00000   0.00643   0.00682   2.68653
   R15        2.68856  -0.00624   0.00000  -0.01317  -0.01313   2.67543
   R16        2.06854   0.00474   0.00000   0.01315   0.01315   2.08170
   R17        3.86041   0.00447   0.00000   0.07232   0.07251   3.93292
   R18        2.06795   0.00059   0.00000   0.00165   0.00165   2.06959
   R19        2.06909   0.00409   0.00000   0.01136   0.01136   2.08045
   R20        2.71323   0.00308   0.00000   0.00735   0.00735   2.72057
   R21        1.84084  -0.00566   0.00000  -0.01042  -0.01042   1.83042
   R22        1.85423  -0.00477   0.00000  -0.00901  -0.00901   1.84522
   R23        1.84143  -0.00386   0.00000  -0.00711  -0.00711   1.83432
   R24        1.86513  -0.00823   0.00000  -0.01587  -0.01587   1.84926
   R25        3.51323  -0.00067   0.00000  -0.00928  -0.00928   3.50395
   R26        3.68863  -0.00101   0.00000  -0.01702  -0.01732   3.67131
   R27        1.85950  -0.00192   0.00000  -0.00494  -0.00502   1.85448
   R28        1.83513  -0.00187   0.00000  -0.00340  -0.00340   1.83173
   R29        1.85965  -0.00199   0.00000  -0.00329  -0.00352   1.85613
   R30        1.83612  -0.00223   0.00000  -0.00407  -0.00407   1.83205
   R31        1.85119  -0.00155   0.00000  -0.00291  -0.00291   1.84829
    A1        1.93384  -0.00250   0.00000  -0.02670  -0.02669   1.90715
    A2        1.95782  -0.00347   0.00000  -0.01563  -0.01551   1.94232
    A3        1.94880   0.00383   0.00000   0.01084   0.01037   1.95917
    A4        1.88623   0.00334   0.00000   0.02397   0.02375   1.90997
    A5        1.85451   0.00153   0.00000   0.03128   0.03148   1.88600
    A6        1.87820  -0.00246   0.00000  -0.02062  -0.02055   1.85765
    A7        1.97127  -0.00221   0.00000  -0.00124  -0.00126   1.97001
    A8        1.88972  -0.00036   0.00000  -0.01795  -0.01792   1.87180
    A9        1.92618   0.00566   0.00000   0.04371   0.04368   1.96986
   A10        1.87232   0.00320   0.00000  -0.00602  -0.00629   1.86603
   A11        1.96398  -0.00457   0.00000  -0.00802  -0.00854   1.95544
   A12        1.83272  -0.00162   0.00000  -0.01403  -0.01384   1.81888
   A13        1.95492   0.00089   0.00000  -0.00498  -0.00484   1.95008
   A14        1.87172   0.00167   0.00000  -0.01382  -0.01378   1.85795
   A15        1.95588  -0.00851   0.00000  -0.04173  -0.04157   1.91430
   A16        1.87973  -0.00300   0.00000  -0.02161  -0.02251   1.85722
   A17        1.95068   0.00446   0.00000   0.01899   0.01846   1.96913
   A18        1.84393   0.00482   0.00000   0.06670   0.06678   1.91071
   A19        1.93508  -0.00292   0.00000  -0.02317  -0.02314   1.91194
   A20        1.90858   0.00659   0.00000   0.00865   0.00861   1.91719
   A21        1.93159  -0.00560   0.00000  -0.03263  -0.03253   1.89906
   A22        1.90314  -0.00218   0.00000  -0.01929  -0.01962   1.88352
   A23        1.85800   0.00666   0.00000   0.07186   0.07201   1.93001
   A24        1.92693  -0.00266   0.00000  -0.00456  -0.00477   1.92216
   A25        2.01791  -0.00688   0.00000  -0.03376  -0.03371   1.98420
   A26        1.87246  -0.00015   0.00000  -0.01560  -0.01556   1.85689
   A27        1.93286   0.00112   0.00000   0.00477   0.00452   1.93738
   A28        1.86319   0.00482   0.00000   0.02728   0.02701   1.89019
   A29        1.88129   0.00053   0.00000  -0.00547  -0.00597   1.87532
   A30        1.89166   0.00111   0.00000   0.02768   0.02761   1.91927
   A31        2.02856   0.00653   0.00000   0.03432   0.03432   2.06288
   A32        1.87803  -0.00045   0.00000   0.00453   0.00457   1.88260
   A33        2.09760  -0.00716   0.00000  -0.04320  -0.04297   2.05463
   A34        1.94252  -0.00469   0.00000  -0.05004  -0.05003   1.89249
   A35        1.93366  -0.00105   0.00000  -0.01914  -0.01880   1.91486
   A36        1.91474  -0.01289   0.00000  -0.05027  -0.04999   1.86475
   A37        1.91069   0.00026   0.00000  -0.00151  -0.00454   1.90615
   A38        1.89085   0.00996   0.00000   0.06022   0.05825   1.94910
   A39        1.86945   0.00919   0.00000   0.06700   0.06609   1.93554
   A40        1.85039   0.00508   0.00000   0.02857   0.02857   1.87896
   A41        1.82531  -0.00412   0.00000  -0.02317  -0.02317   1.80213
   A42        1.89244   0.00039   0.00000   0.00217   0.00217   1.89462
   A43        1.85496  -0.01594   0.00000  -0.08965  -0.08965   1.76531
   A44        2.78707  -0.01085   0.00000  -0.04051  -0.04051   2.74656
   A45        1.53737  -0.00058   0.00000   0.00874   0.00853   1.54590
   A46        2.47528  -0.00311   0.00000  -0.02333  -0.02381   2.45147
   A47        1.75533   0.00381   0.00000   0.04346   0.04429   1.79962
   A48        2.68080   0.00122   0.00000   0.00961   0.00931   2.69011
   A49        2.22871   0.00242   0.00000   0.00635   0.00612   2.23483
   A50        2.54023  -0.00431   0.00000  -0.01919  -0.01921   2.52102
   A51        1.80301  -0.00475   0.00000  -0.02131  -0.02137   1.78164
   A52        1.78793   0.00892   0.00000   0.05778   0.05779   1.84573
   A53        1.81783  -0.00062   0.00000   0.01328   0.01322   1.83105
    D1        1.23399   0.00005   0.00000   0.01322   0.01377   1.24776
    D2       -2.99046  -0.00206   0.00000  -0.02452  -0.02433  -3.01478
    D3       -0.97456   0.00018   0.00000   0.02521   0.02536  -0.94920
    D4       -0.87571  -0.00009   0.00000   0.01202   0.01226  -0.86346
    D5        1.18303  -0.00220   0.00000  -0.02572  -0.02584   1.15719
    D6       -3.08425   0.00003   0.00000   0.02401   0.02384  -3.06041
    D7       -2.98567   0.00280   0.00000   0.04195   0.04220  -2.94347
    D8       -0.92693   0.00069   0.00000   0.00421   0.00411  -0.92282
    D9        1.08897   0.00292   0.00000   0.05394   0.05379   1.14276
   D10        0.89171   0.00132   0.00000   0.00350   0.00342   0.89513
   D11       -2.98115  -0.00334   0.00000  -0.02181  -0.02170  -3.00285
   D12       -1.24524   0.00439   0.00000   0.03064   0.03082  -1.21442
   D13        1.16509  -0.00026   0.00000   0.00533   0.00570   1.17078
   D14        3.04192   0.00219   0.00000  -0.00728  -0.00716   3.03477
   D15       -0.83094  -0.00246   0.00000  -0.03259  -0.03227  -0.86321
   D16       -1.04269   0.00054   0.00000   0.02419   0.02423  -1.01846
   D17        1.08760  -0.00311   0.00000  -0.02572  -0.02558   1.06202
   D18       -3.13516  -0.00046   0.00000   0.01385   0.01344  -3.12171
   D19        1.06770   0.00068   0.00000   0.01778   0.01807   1.08577
   D20       -3.08519  -0.00297   0.00000  -0.03213  -0.03173  -3.11693
   D21       -1.02477  -0.00032   0.00000   0.00745   0.00729  -1.01748
   D22        3.08476   0.00411   0.00000   0.05096   0.05098   3.13574
   D23       -1.06813   0.00046   0.00000   0.00105   0.00117  -1.06696
   D24        0.99230   0.00311   0.00000   0.04063   0.04019   1.03249
   D25        0.00027   0.00614   0.00000   0.00000   0.00001   0.00028
   D26       -2.05370   0.00546   0.00000   0.03321   0.03289  -2.02081
   D27        2.21163  -0.00100   0.00000  -0.04478  -0.04485   2.16678
   D28       -2.07050   0.00374   0.00000   0.02014   0.02016  -2.05034
   D29        2.15872   0.00307   0.00000   0.05335   0.05304   2.21176
   D30        0.14086  -0.00340   0.00000  -0.02464  -0.02470   0.11616
   D31        2.21569   0.00286   0.00000   0.02364   0.02397   2.23966
   D32        0.16172   0.00219   0.00000   0.05685   0.05685   0.21857
   D33       -1.85614  -0.00428   0.00000  -0.02114  -0.02088  -1.87702
   D34        2.91603  -0.00169   0.00000  -0.01035  -0.01047   2.90556
   D35        0.81699  -0.00140   0.00000   0.02258   0.02255   0.83955
   D36       -1.30945   0.00119   0.00000   0.04369   0.04362  -1.26583
   D37       -1.28629  -0.00135   0.00000  -0.03726  -0.03731  -1.32361
   D38        2.89785  -0.00106   0.00000  -0.00433  -0.00429   2.89356
   D39        0.77141   0.00154   0.00000   0.01678   0.01677   0.78818
   D40        0.72078  -0.00383   0.00000  -0.06214  -0.06209   0.65869
   D41       -1.37825  -0.00354   0.00000  -0.02921  -0.02907  -1.40732
   D42        2.77849  -0.00095   0.00000  -0.00810  -0.00800   2.77048
   D43       -1.04653   0.00191   0.00000   0.01472   0.01451  -1.03202
   D44        1.17293  -0.00007   0.00000   0.04186   0.04199   1.21492
   D45       -3.07934   0.00048   0.00000   0.02226   0.02233  -3.05701
   D46       -3.06556   0.00103   0.00000   0.05071   0.05127  -3.01429
   D47        1.00679   0.00306   0.00000   0.07553   0.07607   1.08286
   D48       -1.03283   0.00150   0.00000   0.05222   0.05112  -0.98171
   D49       -0.86429   0.00232   0.00000  -0.01086  -0.01077  -0.87506
   D50       -2.94028   0.00057   0.00000  -0.01334  -0.01360  -2.95388
   D51        1.28162  -0.00129   0.00000  -0.04005  -0.04004   1.24159
   D52       -2.98277   0.00319   0.00000   0.02422   0.02422  -2.95855
   D53        1.22443   0.00145   0.00000   0.02174   0.02138   1.24581
   D54       -0.83685  -0.00042   0.00000  -0.00497  -0.00506  -0.84190
   D55        1.26495  -0.00205   0.00000  -0.04882  -0.04865   1.21630
   D56       -0.81104  -0.00380   0.00000  -0.05130  -0.05148  -0.86252
   D57       -2.87232  -0.00567   0.00000  -0.07801  -0.07792  -2.95024
   D58        2.78616   0.00084   0.00000  -0.03608  -0.03555   2.75062
   D59       -1.39278  -0.00179   0.00000  -0.03854  -0.03912  -1.43190
   D60        0.67054  -0.00196   0.00000  -0.02227  -0.02223   0.64830
   D61       -0.00008  -0.00296   0.00000   0.00000   0.00000  -0.00008
   D62       -2.31397  -0.00170   0.00000   0.00179   0.00225  -2.31172
   D63        2.08101  -0.00391   0.00000  -0.02089  -0.02138   2.05963
   D64       -0.23288  -0.00265   0.00000  -0.01910  -0.01913  -0.25201
   D65       -2.17301   0.00008   0.00000   0.02235   0.02198  -2.15103
   D66        1.79629   0.00134   0.00000   0.02414   0.02423   1.82052
   D67        2.73498  -0.00365   0.00000  -0.02906  -0.02893   2.70605
   D68        0.56188   0.00186   0.00000   0.00444   0.00490   0.56678
   D69       -1.46037  -0.00180   0.00000  -0.01698  -0.01732  -1.47768
   D70       -2.53285  -0.00037   0.00000   0.02281   0.02274  -2.51010
   D71       -0.15692   0.00175   0.00000   0.03610   0.03614  -0.12078
   D72        3.04235  -0.00088   0.00000   0.00408   0.00388   3.04623
   D73        0.91863   0.00651   0.00000   0.05840   0.06094   0.97956
   D74       -1.14093  -0.00398   0.00000  -0.00756  -0.00989  -1.15082
   D75       -0.05668   0.00586   0.00000   0.19651   0.19651   0.13983
   D76       -2.69827   0.00077   0.00000   0.09622   0.09637  -2.60190
   D77       -0.30041   0.00437   0.00000   0.15913   0.15898  -0.14143
   D78        0.86771  -0.00004   0.00000  -0.02571  -0.02602   0.84169
   D79       -0.96042  -0.00463   0.00000  -0.10164  -0.10101  -1.06143
   D80        0.11724   0.00003   0.00000  -0.01482  -0.01531   0.10193
   D81        2.60521  -0.00262   0.00000  -0.02846  -0.02777   2.57744
   D82       -1.29644  -0.00027   0.00000   0.03741   0.03784  -1.25860
   D83        2.40101   0.00076   0.00000   0.04625   0.04641   2.44742
         Item               Value     Threshold  Converged?
 Maximum Force            0.015941     0.000450     NO 
 RMS     Force            0.003992     0.000300     NO 
 Maximum Displacement     0.647970     0.001800     NO 
 RMS     Displacement     0.118739     0.001200     NO 
 Predicted change in Energy=-1.100903D-02
 GradGradGradGradGradGradGradGradGradGradGradGradGradGradGradGradGradGrad

                          Input orientation:                          
 ---------------------------------------------------------------------
 Center     Atomic      Atomic             Coordinates (Angstroms)
 Number     Number       Type             X           Y           Z
 ---------------------------------------------------------------------
      1          6           0       -0.408525    0.849842    0.292358
      2          6           0        1.526644   -0.808194    0.175279
      3          6           0        1.097444    0.688048    0.120652
      4          6           0        0.344691   -1.759299    0.386636
      5          1           0        0.660692   -2.790460    0.177341
      6          1           0        2.186656   -0.924594    1.038299
      7          1           0       -0.679690    0.631782    1.332101
      8          1           0        1.336336    1.044296   -0.897372
      9          6           0       -0.785436   -1.407152   -0.583276
     10          8           0       -1.129436   -0.027751   -0.582743
     11          6           0       -0.874643    2.253554   -0.029658
     12          1           0       -0.346638    2.952972    0.627188
     13          1           0       -0.637948    2.492108   -1.078040
     14          8           0       -2.296317    2.282901    0.195328
     15          1           0       -2.593668    3.197129    0.077073
     16          8           0       -0.106628   -1.637870    1.727933
     17          1           0       -1.027831   -1.958670    1.684090
     18          8           0        2.339310   -1.197911   -0.946041
     19          1           0        1.835048   -1.044365   -1.761127
     20          8           0        1.774094    1.488123    1.071287
     21          1           0        2.701887    1.388011    0.776661
     22          8           0       -3.921005   -0.136164   -0.497115
     23          1           0       -2.689003   -1.638339   -0.494725
     24          1           0       -3.147462    0.466713   -0.462234
     25          1           0       -4.567066    0.301629    0.077777
     26          8           0        4.101716    0.870587   -0.323727
     27          1           0        5.030495    0.593159   -0.340781
     28          1           0        3.646127    0.313985   -0.986491
     29          8           0       -1.916966   -2.147659   -0.164099
     30          1           0       -0.518579   -1.680613   -1.616475
 ---------------------------------------------------------------------
                    Distance matrix (angstroms):
                    1          2          3          4          5
     1  C    0.000000
     2  C    2.551014   0.000000
     3  C    1.524338   1.557542   0.000000
     4  C    2.717322   1.531759   2.574275   0.000000
     5  H    3.795820   2.163159   3.506278   1.098615   0.000000
     6  H    3.231101   1.092689   2.151528   2.124673   2.559546
     7  H    1.096424   2.877443   2.151507   2.767766   3.852510
     8  H    2.120805   2.149074   1.104697   3.239164   4.039413
     9  C    2.450065   2.505967   2.903552   1.530334   2.140879
    10  O    1.433765   2.870271   2.442566   2.472045   3.378587
    11  C    1.513726   3.896470   2.522405   4.214625   5.276569
    12  H    2.130516   4.226084   2.733466   4.768784   5.848426
    13  H    2.151201   4.141047   2.775443   4.602751   5.582829
    14  O    2.372094   4.916331   3.750566   4.832277   5.872242
    15  H    3.214180   5.747107   4.463373   5.770265   6.815580
    16  O    2.888031   2.401390   3.072952   1.420392   2.078842
    17  H    3.195026   3.182051   3.737144   1.899197   2.411074
    18  O    3.643833   1.438633   2.497380   2.463674   2.572150
    19  H    3.583077   1.974983   2.662031   2.710200   2.861052
    20  O    2.403739   2.477324   1.414808   3.613543   4.510552
    21  H    3.193563   2.562455   1.869367   3.951463   4.688847
    22  O    3.732691   5.529975   5.123065   4.648843   5.337802
    23  H    3.465706   4.348532   4.486418   3.161443   3.605483
    24  H    2.866700   4.886623   4.290452   4.227392   5.051759
    25  H    4.200005   6.194717   5.677837   5.335557   6.074568
    26  O    4.552172   3.114210   3.042440   4.640706   5.049255
    27  H    5.481760   3.808816   3.961163   5.293388   5.550901
    28  H    4.285185   2.664808   2.803832   4.133215   4.461491
    29  O    3.386555   3.710498   4.148371   2.359920   2.678450
    30  H    3.171586   2.855597   3.352566   2.182631   2.416653
                    6          7          8          9         10
     6  H    0.000000
     7  H    3.274838   0.000000
     8  H    2.889013   3.033988   0.000000
     9  C    3.419897   2.799482   3.257326   0.000000
    10  O    3.798496   2.074580   2.707085   1.421649   0.000000
    11  C    4.540122   2.126626   2.665269   3.703406   2.361180
    12  H    4.649958   2.448622   2.966434   4.546257   3.310803
    13  H    4.912345   3.044887   2.454913   3.933291   2.614684
    14  O    5.576349   2.575253   3.990527   4.062694   2.702983
    15  H    6.384673   3.437937   4.585757   4.990508   3.602663
    16  O    2.498702   2.374111   4.020993   2.419855   2.996305
    17  H    3.437918   2.637335   4.612053   2.346033   2.979480
    18  O    2.008884   4.201437   2.456790   3.152684   3.678785
    19  H    2.823962   4.324516   2.314582   2.895839   3.348173
    20  O    2.447957   2.611973   2.065002   4.203735   3.669357
    21  H    2.383707   3.509339   2.187523   4.671594   4.304812
    22  O    6.346861   3.800249   5.403085   3.384469   2.794985
    23  H    5.160586   3.539503   4.854072   1.919598   2.243656
[...]
 .00050848,-0.00006108,-0.00058258,-0.00018381,-0.00016442,0.00052265,-
 0.00016550,0.00052638,-0.00020528,-0.00039334,0.00003888,0.00014658,0.
 00017711,-0.00003802,-0.00022351,-0.00058075,-0.00004818,-0.00011073,0
 .00006149,-0.00007943,-0.22778909,-0.26173556,0.00694693,0.00077686,-0
 .00820451,-0.00058420,0.22403052,0.26371626,-0.00096947,0.00074052,0.0
 0116296,0.00005184,0.00004504,0.00008092,-0.00010231,-0.00017853,-0.00
 028750,-0.00003805,0.00041658,0.00040401,-0.00008246,0.00000940,-0.000
 12835,-0.00001005,-0.00001426,-0.00000761,-0.00049638,-0.00008159,-0.0
 0054208,0.00013053,0.00000863,-0.00006853,-0.00100500,-0.00106344,0.00
 042290,-0.00019725,0.00031424,-0.00193931,-0.00070606,0.00116156,0.000
 85017,0.00038553,-0.00006883,-0.00018150,0.00063746,0.00025528,-0.0002
 8851,-0.00077578,-0.00086528,-0.00421644,0.00132061,0.00156699,0.00053
 777,0.00024395,-0.00018860,-0.00037226,-0.00019276,0.00025919,0.000066
 63,0.00006121,-0.00006494,-0.00010556,0.00002903,0.00001485,0.00003985
 ,-0.00013288,-0.00006289,-0.00006168,-0.00005521,-0.00001668,-0.000013
 62,-0.01132769,-0.03686783,-0.04877117,-0.00130167,0.00089483,0.001264
 65,-0.02151079,-0.00259504,0.05733486,-0.00050930,-0.00006835,0.000390
 67,-0.00010541,0.00002711,0.00013799,-0.00017308,-0.00011543,-0.000175
 25,-0.00015460,0.00020274,0.00021687,0.00003271,-0.00004178,-0.0000583
 6,0.00002938,-0.00000040,0.00000235,-0.00017857,-0.00004007,-0.0002096
 5,0.00007384,0.00001091,-0.00003674,-0.00085899,-0.00045251,0.00054072
 ,-0.00059616,0.00005076,-0.00075051,-0.00050164,0.00013101,0.00013386,
 0.00010980,0.00002812,-0.00002069,0.00012882,0.00003775,-0.00011166,0.
 00033122,0.00039635,-0.00049953,0.00037553,0.00018233,-0.00008187,0.00
 034906,-0.00022771,-0.00014365,-0.00035466,0.00037759,-0.00008585,0.00
 019327,-0.00002713,-0.00014190,-0.00005339,0.00001018,0.00005689,0.000
 16084,0.00007365,0.00005214,-0.00011098,-0.00001703,0.00001749,-0.0971
 5896,-0.01749605,0.15728363,-0.00123013,0.00035899,0.00350957,-0.01230
 007,0.00399745,0.03475433,0.11158946,0.00019272,0.00030608,0.00014983,
 0.00006336,0.00010379,0.00000108,-0.00007683,0.00000365,-0.00001964,0.
 00007197,0.00001116,-0.00012739,-0.00001080,-0.00001332,0.00001954,0.0
 0000572,-0.00001357,0.00000175,-0.00003889,0.00005073,-0.00004928,0.00
 000553,-0.00000922,0.00000592,0.00000112,0.00063259,-0.00017443,-0.000
 29405,-0.00015477,-0.00000758,-0.00083017,0.00045437,0.00016410,0.0001
 8316,-0.00000848,-0.00004144,0.00023068,0.00000440,-0.00009821,0.00139
 047,-0.00044515,-0.00073086,-0.00024877,-0.00013406,0.00009332,-0.0001
 0261,-0.00009167,0.00018884,0.00029610,-0.00000657,-0.00009664,-0.0000
 3935,-0.00011230,0.00001033,0.00001510,0.00004644,-0.00000019,0.000047
 68,-0.00010778,0.00000112,-0.00003659,0.00002773,-0.00000216,0.0027463
 9,-0.03830260,-0.05455794,-0.00046034,0.00270092,-0.00521896,-0.016132
 27,0.00263308,0.03686073,0.01246743,0.03435213,0.00003494,-0.00000649,
 0.00023221,-0.00002619,-0.00000795,-0.00002072,0.00001241,0.00002192,-
 0.00000877,-0.00006547,-0.00000615,0.00015306,0.00001062,-0.00001252,-
 0.00002641,-0.00001749,-0.00000400,0.00000205,-0.00002817,-0.00000839,
 -0.00003379,0.00001854,-0.00000232,-0.00001647,0.00024673,0.00015578,-
 0.00007060,-0.00028866,-0.00003198,-0.00000191,0.00031865,-0.00014111,
 -0.00006717,-0.00009405,-0.00001263,0.00001550,-0.00003815,0.00001711,
 -0.00000112,-0.00066565,-0.00035175,-0.00022775,0.00010710,0.00008020,
 0.00005566,0.00005400,-0.00004138,-0.00019572,-0.00007317,0.00010418,0
 .00018025,0.00001514,0.00001081,-0.00002125,0.00000433,0.00000009,0.00
 000213,-0.00002105,0.00001263,-0.00003231,-0.00000165,-0.00000503,0.00
 000472,0.19777421,-0.01416639,-0.41870205,0.00130593,-0.00168379,-0.00
 006016,-0.00419264,-0.00642861,-0.00413967,-0.19304549,0.02158353,0.42
 326759,0.00098630,0.00019245,0.00017666,0.00123684,-0.00048674,-0.0015
 4721,0.00288050,0.00266189,0.00356183,0.00037223,0.00051003,-0.0007553
 1,-0.00013294,-0.00016453,-0.00000638,-0.00051204,0.00040150,-0.000489
 57,-0.00011632,0.00005969,-0.00007451,0.00002702,-0.00045002,-0.000228
 65,0.00078887,0.00059131,0.00031424,-0.00106699,-0.00062269,-0.0004013
 2,0.00051731,-0.00045754,0.00016527,0.00006928,-0.00022994,0.00001456,
 -0.00007762,-0.00000351,-0.00007726,-0.00083084,0.00031195,-0.00000616
 ,0.00003192,-0.00005076,-0.00000522,-0.00060140,-0.00038860,0.00055224
 ,0.00012338,0.00009907,-0.00004182,-0.00581311,-0.00725193,-0.00291757
 ,-0.00057587,-0.00040595,0.00099159,-0.01245804,0.00371791,0.00528534,
 -0.00442403,-0.00539753,-0.00344000,-0.00052957,0.00010316,-0.00005390
 ,0.00042038,-0.00014328,0.00004260,0.00036277,-0.00002557,0.00003614,0
 .00015051,0.00001671,0.00000272,0.38335918,-0.00017844,0.00023520,-0.0
 0010971,0.00225285,-0.00219404,-0.00269477,-0.00064551,-0.00314510,-0.
 00195154,0.00006674,0.00079643,-0.00030155,0.00008706,0.00024958,-0.00
 001557,-0.00003151,0.00024091,-0.00071841,0.00000763,-0.00004784,0.000
 07472,0.00010597,0.00020629,0.00012005,0.00068284,-0.00103856,0.000067
 53,0.00023797,0.00097375,0.00036913,-0.00033853,-0.00022375,-0.0000223
 2,-0.00003234,0.00015281,0.00006076,-0.00000035,-0.00000003,-0.0000172
 0,0.00013633,0.00020589,0.00002891,-0.00004857,-0.00000928,-0.00002071
 ,-0.00086170,0.00002856,0.00050850,0.00009378,-0.00007953,0.00011422,-
 0.00877210,-0.00122435,-0.00266836,-0.00164421,-0.00174617,0.00087291,
 0.00720501,0.00338343,-0.00096777,-0.00448679,-0.00336265,0.00069754,-
 0.00015004,0.00021093,-0.00000705,0.00019747,-0.00027463,-0.00001560,0
 .00002570,-0.00014038,-0.00000859,0.00003385,-0.00003430,0.00000220,-0
 .00182763,0.43750516,-0.00037622,0.00017451,0.00075764,0.00095947,-0.0
 0027555,-0.00473062,-0.00191017,-0.00214471,-0.00493282,0.00010720,0.0
 0008998,0.00102042,0.00011732,0.00026087,0.00000332,0.00014316,-0.0007
 3998,0.00122061,-0.00031813,-0.00002704,0.00006438,0.00051161,-0.00005
 135,0.00168510,0.00014061,-0.00036332,-0.00058261,0.00067909,0.0005706
 9,0.00044836,-0.00026443,0.00003624,-0.00027983,-0.00005333,0.00021163
 ,0.00000347,0.00006941,-0.00000435,0.00012663,0.00027918,-0.00002647,0
 .00012989,-0.00001673,-0.00000082,-0.00005567,-0.00032913,0.00001484,0
 .00027840,-0.00007336,-0.00004798,0.00009886,-0.00652947,-0.00415599,0
 .00290793,0.00068346,0.00018664,0.00023658,0.00875738,-0.00147234,0.00
 291732,-0.00455171,0.00355375,-0.00683120,0.00013149,0.00000785,0.0000
 4626,-0.00006943,-0.00001221,-0.00002785,-0.00010425,-0.00001847,-0.00
 003896,-0.00004116,-0.00000950,-0.00000924,0.30098664,0.03696333,0.285
 62212,-0.00014443,-0.00001808,0.00016767,-0.00050582,0.00029849,-0.000
 76348,-0.00000167,0.00033226,-0.00047985,-0.00000083,-0.00027743,0.000
 39057,0.00000762,0.00002777,0.00000140,-0.00019904,-0.00037160,0.00054
 576,-0.00005507,0.00000420,-0.00001985,-0.00001273,-0.00009216,0.00029
 324,-0.00021220,0.00008020,-0.00019277,0.00019859,-0.00001071,0.000038
 49,-0.00005944,0.00010652,-0.00003222,-0.00000947,0.00001962,-0.000009
 89,0.00001567,-0.00000221,0.00002027,0.00014213,-0.00007779,0.00000309
 ,-0.00000544,0.00000756,-0.00000276,0.00018722,0.00005043,-0.00009652,
 -0.00005554,-0.00000764,0.00001105,-0.00004819,-0.00078771,0.00036826,
 0.00024985,0.00008321,-0.00004691,0.00007470,-0.00051311,0.00125489,-0
 .00181042,0.00147841,-0.00223966,0.00013152,-0.00005198,0.00001628,-0.
 00011173,0.00007626,-0.00000569,-0.00007631,0.00002319,-0.00000912,-0.
 00003784,0.00000123,-0.00000269,-0.24699279,0.11879718,-0.20262078,0.2
 6388889,-0.00002324,-0.00002556,0.00001373,0.00004386,0.00012581,-0.00
 048715,-0.00024937,0.00004271,0.00006792,-0.00003413,-0.00000022,0.000
 18144,-0.00000850,-0.00001837,-0.00001088,-0.00013312,0.00001936,0.000
 25161,0.00000842,0.00000721,0.00000553,-0.00012893,-0.00009495,-0.0000
 4678,-0.00010562,0.00006726,-0.00006754,0.00006063,-0.00007528,-0.0000
 0207,-0.00002014,0.00005662,0.00001815,-0.00000355,0.00000018,-0.00000
 283,0.00000101,0.00000021,-0.00000447,0.00005859,-0.00004763,-0.000020
 44,0.00000134,0.00000966,0.00000937,0.00008923,-0.00002530,-0.00006853
 ,-0.00003360,0.00000766,0.00000862,-0.00104785,-0.00195546,0.00025116,
 0.00024915,0.00012011,-0.00000924,0.00042833,0.00003432,-0.00086202,0.
 00011715,-0.00031243,0.00225149,0.00005924,-0.00003723,0.00000313,-0.0
 0005726,0.00004641,0.00000225,-0.00003087,0.00002040,0.00000020,-0.000
 01572,0.00000519,0.00000008,0.16454485,-0.13532456,0.12804162,-0.13551
 315,0.12224055,-0.00005735,-0.00001327,-0.00004422,0.00000264,-0.00005
 830,0.00071268,-0.00021772,-0.00027200,-0.00008520,-0.00010467,0.00002
 862,-0.00000384,0.00001053,-0.00001546,-0.00000746,0.00008319,0.000143
 20,-0.00006321,0.00004877,-0.00000222,0.00000442,-0.00014596,0.0000428
 7,-0.00011073,-0.00001661,-0.00003518,0.00009237,0.00000027,-0.0000003
 9,-0.00002726,-0.00000366,0.00000684,0.00002553,-0.00000309,0.00000015
 ,0.00000391,-0.00000358,0.00000149,-0.00001509,0.00000967,-0.00000417,
 -0.00002384,0.00000165,0.00000422,0.00001339,0.00000364,0.00000703,-0.
 00010964,0.00001632,0.00000043,0.00000908,0.00022552,-0.00048687,-0.00
 014174,0.00008427,0.00006157,0.00001089,0.00197520,0.00005089,-0.00191
 773,-0.00080720,0.00003790,0.00379697,-0.00000575,0.00000509,-0.000012
 50,0.00000268,-0.00000592,0.00000649,0.00000041,-0.00000215,0.00000932
 ,0.00000459,-0.00000130,0.00000438,-0.20101341,0.08930437,-0.17237224,
 0.21541981,-0.10543637,0.18312374,-0.00043409,-0.00042170,-0.00039376,
 -0.00663936,-0.00054624,0.00760554,0.00000746,0.00212352,0.00208228,-0
 .00029510,-0.00075621,0.00009966,0.00000069,-0.00012725,0.00001376,0.0
 0016718,-0.00024349,-0.00037775,0.00024268,-0.00000859,-0.00007922,-0.
 00059916,0.00062118,-0.00086386,-0.00102822,0.00027547,0.00003344,0.00
 028732,-0.00032440,-0.00011906,0.00000834,0.00050609,-0.00002251,0.000
 01124,-0.00007243,-0.00005516,0.00001829,-0.00000060,0.00001988,0.0003
 6540,-0.00034654,-0.00004242,0.00001988,0.00002647,0.00002509,0.001143
 30,0.00030414,-0.00081791,-0.00009448,-0.00001036,-0.00010694,0.002471
 53,0.00418705,-0.00055635,0.00009157,0.00003121,-0.00182885,-0.0038051
 8,-0.00187306,-0.00092706,0.00637923,0.00170047,0.00033277,0.00039670,
 -0.00018609,0.00003066,-0.00037421,0.00024850,-0.00001958,-0.00022656,
 0.00010086,-0.00001197,-0.00010704,0.00000874,-0.00000115,-0.11614528,
 -0.11023077,-0.09650451,-0.01489982,-0.02841231,-0.01548381,0.13202000
 ,0.00025942,-0.00013951,0.00066555,-0.00304360,0.00267025,0.00600068,0
 .00205813,0.00203848,-0.00060199,-0.00001145,-0.00097265,-0.00056268,-
 0.00017592,-0.00030664,0.00002767,-0.00014303,0.00014846,-0.00027599,-
 0.00019631,0.00005798,-0.00003830,0.00030331,-0.00039655,0.00058929,-0
 .00072024,0.00081223,0.00015534,-0.00005855,-0.00086735,-0.00031018,0.
 00023412,0.00013903,-0.00003506,0.00002436,-0.00010750,-0.00004115,0.0
 0001463,-0.00000179,0.00003488,-0.00009936,-0.00014810,-0.00000637,0.0
 0002998,0.00000252,0.00000350,0.00108807,0.00015074,-0.00056822,-0.000
 06983,0.00008499,-0.00018111,0.00271533,-0.00512091,0.00008973,0.00273
 504,0.00195814,-0.00125914,-0.00235784,-0.00087146,-0.00003409,0.00207
 760,-0.00214595,-0.00239194,0.00014944,-0.00018265,0.00000702,-0.00019
 812,0.00023107,0.00000932,-0.00003506,0.00012209,0.00000818,-0.0000331
 9,0.00002773,-0.00000198,-0.15495074,-0.29574701,-0.16098416,0.0163340
 7,0.01513859,0.01663334,0.13348528,0.28375942,0.00028077,0.00014259,-0
 .00003711,0.00216331,0.00259119,0.00441494,0.00212166,0.00032824,0.001
 80281,0.00014768,-0.00046993,-0.00141523,-0.00018556,-0.00022427,0.000
 02326,0.00031003,0.00072511,-0.00155193,0.00003734,0.00001207,-0.00003
 819,-0.00025569,0.00019498,-0.00050562,-0.00023037,0.00009962,0.000437
 58,-0.00017587,-0.00031072,-0.00025173,0.00006063,-0.00003993,0.000152
 08,0.00003007,-0.00008510,-0.00001289,-0.00002075,0.00000916,-0.000048
 88,-0.00011905,0.00001669,-0.00007071,0.00000181,0.00000487,0.00002702
 ,0.00049939,0.00018556,-0.00025559,0.00004943,0.00002700,-0.00013716,0
 .00351738,0.00229913,-0.00769610,-0.00256497,-0.00174021,-0.00029646,-
 0.00224879,0.00031977,-0.00056139,0.00152053,-0.00344431,-0.00214411,-
 0.00003047,-0.00001407,-0.00002596,-0.00000077,0.00000774,0.00001415,0
 .00002984,0.00001958,0.00002460,0.00001182,0.00000464,0.00000415,-0.10
 106248,-0.11985242,-0.10811307,-0.01206852,-0.02409838,-0.01278904,0.1
 0824866,0.14337757,0.12933926,0.00103224,0.00046806,0.00452020,-0.0022
 7636,0.00433394,-0.00868708,0.00055702,0.00172805,0.00066751,-0.047831
 26,-0.02345412,0.00661681,0.00115548,-0.00020663,0.00043841,-0.0026177
 5,-0.00203591,0.00071824,-0.00038105,-0.00025066,-0.00056607,0.0000825
 3,-0.00030841,0.00001655,-0.18671686,-0.04796696,0.04558098,0.00779026
 ,-0.02412837,-0.00358515,-0.00301506,0.00036490,-0.00044781,0.00062116
 ,-0.00042631,-0.00008277,0.00028738,0.00011282,-0.00011493,0.00311616,
 0.00042600,0.00009069,-0.00018745,-0.00007050,-0.00010499,-0.00286851,
 -0.00192187,0.00062299,-0.00277760,0.00085666,0.00204623,-0.00132799,-
 0.00075001,0.00125351,0.00114381,0.00070602,-0.00051243,-0.00063642,-0
 .00163153,-0.00079261,0.00045484,0.00050043,-0.00011015,-0.01148097,0.
 01898772,0.00003526,-0.25833668,0.18940077,-0.04661738,-0.00491912,-0.
 00265742,0.00109693,0.00072924,0.00066409,-0.00131059,-0.00108856,-0.0
 0067875,0.00021274,0.00034211,0.00015302,-0.00002364,0.00106510,0.0005
 8436,-0.00007213,0.52703358,0.00215400,0.00208076,0.01224270,0.0012838
 0,-0.00146345,0.00262054,0.00145735,-0.00205917,-0.00085229,-0.0001499
 1,0.00861287,-0.00550132,-0.00157017,0.00131302,-0.00097063,0.00062240
 ,0.00050367,-0.00007530,0.00031909,-0.00004022,-0.00091487,-0.00000601
 ,0.00012051,-0.00010452,-0.01668678,-0.10465083,0.02630767,-0.03803358
 ,-0.05835434,0.00795371,-0.00177853,-0.00107849,-0.00158123,0.00046467
 ,-0.00100343,-0.00011115,-0.00003827,0.00029724,-0.00003187,0.00025824
 ,-0.00024954,-0.00014103,-0.00020694,0.00005891,0.00002395,-0.00018438
 ,0.00458988,0.00197116,-0.00033662,-0.00486138,-0.00206556,-0.00017484
 ,0.00106417,0.00027494,-0.00002131,-0.00054885,-0.00013682,-0.00208219
 ,0.00052694,-0.00023791,0.00038301,-0.00034790,-0.00031274,0.01113033,
 -0.00531688,-0.00105453,0.14943349,-0.17308329,0.05310025,-0.00068557,
 0.00193146,-0.00042239,0.00010430,-0.00183494,0.00092767,-0.00029850,0
 .00026480,0.00012565,0.00000863,-0.00001817,0.00000763,0.00002820,-0.0
 0018787,-0.00001942,-0.09881462,0.33021544,-0.00040543,-0.00086834,-0.
 00402369,-0.00103166,0.00068642,-0.00296194,-0.00002749,0.00081843,-0.
 00011434,-0.01138039,-0.00469176,-0.00121944,-0.00031451,0.00025681,0.
 00061368,-0.00019969,-0.00022369,0.00033873,0.00022068,0.00066904,0.00
 063811,-0.00007781,-0.00019638,0.00028544,0.03738945,0.02922371,-0.094
 67828,-0.00116752,0.01120589,0.01492514,0.00056611,0.00032148,0.000374
 65,-0.00014602,0.00023139,0.00000729,0.00000322,-0.00020228,0.00013770
 ,-0.00022868,-0.00000793,0.00026958,0.00000210,-0.00005465,-0.00005755
 ,-0.01348482,-0.00248808,0.00121018,0.00266237,-0.00236333,0.00408164,
 -0.00005178,0.00019777,0.00149658,-0.00105865,-0.00058037,0.00016016,0
 .00041063,-0.00015506,0.00033619,0.00004042,0.00014005,-0.00002987,0.0
 0021860,-0.00210234,0.00521050,-0.03140185,0.04821167,-0.02821018,0.00
 037678,0.00037445,-0.00085593,-0.00150911,0.00193911,-0.00029868,-0.00
 002947,0.00001223,0.00019923,0.00004705,0.00001183,-0.00005426,-0.0000
 6018,-0.00007092,-0.00014023,-0.01555559,-0.09731465,0.10935427,-0.002
 00416,-0.00012604,-0.00023855,0.00100823,-0.00011814,0.00048294,-0.000
 32057,-0.00001921,0.00020607,0.01038026,-0.00541987,-0.01980218,0.0007
 1685,0.00037355,0.00096234,0.00016302,0.00002665,-0.00009411,0.0001162
 1,0.00044285,0.00016847,-0.00006491,-0.00013060,-0.00002869,-0.0633153
 7,0.01133700,0.02978713,0.00625766,0.00976268,0.00714235,0.00018987,0.
 00021357,0.00042969,-0.00006017,0.00015779,-0.00005428,0.00001977,-0.0
 0003122,-0.00005598,0.00007672,0.00005073,-0.00003844,0.00002422,0.000
 00821,0.00001853,-0.00280580,0.00155508,-0.00644530,-0.00212836,-0.000
 62285,-0.00047231,-0.00081537,-0.00000702,0.00058956,-0.00060821,-0.00
 024318,-0.00010253,0.00015179,-0.00013088,-0.00004420,-0.00000761,0.00
 002486,0.00001342,-0.00073242,0.00094025,-0.00036106,0.00143902,-0.001
 36940,0.00223189,-0.00004683,-0.00021991,0.00017737,0.00017716,-0.0001
 3752,-0.00003305,0.00003891,-0.00000314,-0.00001594,0.00000050,0.00000
 253,-0.00000271,-0.00004741,0.00000009,0.00000505,-0.01894926,-0.00657
 926,0.03619324,0.07114627,0.00684956,0.00072077,-0.00062990,0.00026028
 ,-0.00045256,-0.00030416,0.00077160,-0.00016967,-0.00006198,-0.0010293
 1,0.00464923,0.00766600,-0.00088584,0.00035742,-0.00008380,0.00005501,
 0.00012469,0.00005704,-0.00075173,-0.00118910,-0.00096717,-0.00020836,
 0.00000250,0.00020326,0.01298621,-0.05335502,-0.04894350,0.00594433,-0
 .03378611,-0.03130243,-0.00077994,-0.00021007,-0.00097403,0.00021108,-
 0.00042245,0.00014529,0.00003948,0.00004157,0.00013887,0.00024630,-0.0
 0006613,0.00007341,-0.00010231,-0.00003164,-0.00004045,0.00186848,0.00
 104386,0.00161277,-0.00073166,-0.00017260,-0.00078583,0.00022410,0.000
 50902,-0.00001267,-0.00060855,-0.00016030,0.00013395,-0.00053477,0.000
 17070,0.00008217,0.00012715,-0.00010632,-0.00010665,0.00004335,0.00071
 689,-0.00007111,0.00058249,-0.00102246,0.00199006,-0.00075157,-0.00010
 750,-0.00005731,0.00004482,-0.00009126,-0.00000373,-0.00005505,0.00013
 846,0.00009665,-0.00000565,-0.00000710,-0.00000203,-0.00008715,-0.0001
 4579,-0.00006676,-0.01398476,0.00351910,0.01701950,-0.00973759,0.07950
 188,0.00151923,0.00111809,0.00089206,0.00101196,-0.00014866,-0.0021132
 1,0.00019480,-0.00008577,-0.00064254,0.00598078,-0.00657140,-0.0168349
 9,-0.00028564,0.00088255,0.00055536,-0.00021136,-0.00007541,0.00012084
 ,-0.00012298,0.00009307,0.00006035,-0.00000088,-0.00017792,0.00035957,
 0.03486401,-0.05123751,-0.27331754,-0.00135074,-0.00693181,0.00514921,
 -0.00015327,-0.00000385,-0.00025566,0.00003896,-0.00011939,0.00001798,
 0.00001427,-0.00001307,0.00007756,-0.00003818,-0.00007682,0.00006026,-
 0.00003245,-0.00000676,-0.00002532,-0.00390662,0.00159949,-0.00284937,
 0.00086434,-0.00049553,0.00147254,0.00054563,0.00097693,0.00169645,-0.
 00149983,-0.00096903,0.00050933,-0.00034591,-0.00002061,0.00023279,0.0
 0010800,-0.00003118,-0.00013165,0.00060450,-0.00064107,0.00031082,-0.0
 0134534,0.00115142,-0.00120624,-0.00011298,0.00025067,-0.00017995,-0.0
 0020151,0.00011168,0.00001210,0.00002043,0.00017513,0.00020759,0.00001
 288,-0.00000140,-0.00003514,-0.00021967,-0.00023878,-0.00014846,0.0146
 6627,0.00629238,-0.00699469,-0.05061870,0.05519455,0.29299992\\0.00388
 038,0.00076418,-0.01150724,-0.00141841,-0.00068417,-0.01104746,0.00140
 890,0.00068127,0.01094543,-0.00328039,-0.00062847,0.01093434,0.0000029
 2,0.00000082,-0.00000349,-0.00000016,0.00000147,-0.00000083,-0.0000010
 6,-0.00000198,0.00000141,0.00000032,0.00000325,0.00000317,0.00817159,0
 .00202494,-0.00923764,-0.00874898,-0.00215866,0.00990094,-0.00000840,0
 .00000193,0.00000440,-0.00000058,-0.00000095,0.00000162,-0.00000048,0.
 00000036,0.00000002,-0.00000163,-0.00000623,-0.00000387,-0.00000005,-0
 .00000018,0.00000586,-0.00000179,-0.00000253,-0.00000090,-0.00000135,-
 0.00000206,0.00000065,0.00000318,0.00000156,0.00000167,0.00000132,0.00
 000457,0.00000053,0.00000414,0.00000344,0.00001008,-0.00000677,0.00000
 849,0.00000162,0.00000301,-0.00000356,0.00000004,0.00000384,0.00000793
 ,-0.00002203,-0.00001251,-0.00000466,-0.00000641,0.00000502,-0.0000067
 1,0.00000325,-0.00001138,-0.00000587,0.00000477,0.00000230,0.00000294,
 -0.00000230,0.00000348,0.00000052,-0.00000121,0.00000299,-0.00000340,0
 .00001539,0.00000055,0.00000179,-0.00000179\\\@


 Sacred cows make the best hamburger.
                               -- Mark Twain
 Job cpu time:       0 days  0 hours 45 minutes 50.5 seconds.
 File lengths (MBytes):  RWF=    334 Int=      0 D2E=      0 Chk=      7 Scr=      2
 Normal termination of Gaussian 09 at Tue Jan 24 19:16:09 2017.
