 Entering Gaussian System, Link 0=g09
 Initial command:
 /global/software/gaussian/g09.e01/l1.exe "/scratch/10502107.yak.local/Gau-6506.inp" -scrdir="/scratch/10502107.yak.local/"
 Entering Link 1 = /global/software/gaussian/g09.e01/l1.exe PID=      6507.
  
 Copyright (c) 1988,1990,1992,1993,1995,1998,2003,2009,2015,
            Gaussian, Inc.  All Rights Reserved.
  
 This is part of the Gaussian(R) 09 program.  It is based on
 the Gaussian(R) 03 system (copyright 2003, Gaussian, Inc.),
 the Gaussian(R) 98 system (copyright 1998, Gaussian, Inc.),
 the Gaussian(R) 94 system (copyright 1995, Gaussian, Inc.),
 the Gaussian 92(TM) system (copyright 1992, Gaussian, Inc.),
 the Gaussian 90(TM) system (copyright 1990, Gaussian, Inc.),
 the Gaussian 88(TM) system (copyright 1988, Gaussian, Inc.),
 the Gaussian 86(TM) system (copyright 1986, Carnegie Mellon
 University), and the Gaussian 82(TM) system (copyright 1983,
 Carnegie Mellon University). Gaussian is a federally registered
 trademark of Gaussian, Inc.
  
 This software contains proprietary and confidential information,
 including trade secrets, belonging to Gaussian, Inc.
  
 This software is provided under written license and may be
 used, copied, transmitted, or stored only in accord with that
 written license.
  
 The following legend is applicable only to US Government
 contracts under FAR:
  
                    RESTRICTED RIGHTS LEGEND
  
 Use, reproduction and disclosure by the US Government is
 subject to restrictions as set forth in subparagraphs (a)
 and (c) of the Commercial Computer Software - Restricted
 Rights clause in FAR 52.227-19.
  
 Gaussian, Inc.
 340 Quinnipiac St., Bldg. 40, Wallingford CT 06492
  
  
 ---------------------------------------------------------------
 Warning -- This program may not be used in any manner that
 competes with the business of Gaussian, Inc. or will provide
 assistance to any competitor of Gaussian, Inc.  The licensee
 of this program is prohibited from giving any competitor of
 Gaussian, Inc. access to this program.  By using this program,
 the user acknowledges that Gaussian, Inc. is engaged in the
 business of creating and licensing software in the field of
 computational chemistry and represents and warrants to the
 licensee that it is not a competitor of Gaussian, Inc. and that
 it will not use this program in any manner prohibited above.
 ---------------------------------------------------------------
  

 Cite this work as:
 Gaussian 09, Revision E.01,
 M. J. Frisch, G. W. Trucks, H. B. Schlegel, G. E. Scuseria, 
 M. A. Robb, J. R. Cheeseman, G. Scalmani, V. Barone, B. Mennucci, 
 G. A. Petersson, H. Nakatsuji, M. Caricato, X. Li, H. P. Hratchian, 
 A. F. Izmaylov, J. Bloino, G. Zheng, J. L. Sonnenberg, M. Hada, 
 M. Ehara, K. Toyota, R. Fukuda, J. Hasegawa, M. Ishida, T. Nakajima, 
 Y. Honda, O. Kitao, H. Nakai, T. Vreven, J. A. Montgomery, Jr., 
 J. E. Peralta, F. Ogliaro, M. Bearpark, J. J. Heyd, E. Brothers, 
 K. N. Kudin, V. N. Staroverov, T. Keith, R. Kobayashi, J. Normand, 
 K. Raghavachari, A. Rendell, J. C. Burant, S. S. Iyengar, J. Tomasi, 
 M. Cossi, N. Rega, J. M. Millam, M. Klene, J. E. Knox, J. B. Cross, 
 V. Bakken, C. Adamo, J. Jaramillo, R. Gomperts, R. E. Stratmann, 
 O. Yazyev, A. J. Austin, R. Cammi, C. Pomelli, J. W. Ochterski, 
 R. L. Martin, K. Morokuma, V. G. Zakrzewski, G. A. Voth, 
 P. Salvador, J. J. Dannenberg, S. Dapprich, A. D. Daniels, 
 O. Farkas, J. B. Foresman, J. V. Ortiz, J. Cioslowski, 
 and D. J. Fox, Gaussian, Inc., Wallingford CT, 2013.
 
 ******************************************
 Gaussian 09:  ES64L-G09RevE.01 30-Nov-2015
                31-Jan-2017 
 ******************************************
 %NPROCS=4
 Will use up to    4 processors via shared memory.
 --------------------------------------------------
 # b3lyp/6-31g(d) irc=(calcfc,forward,maxpoints=20)
 --------------------------------------------------
 1/10=4,14=-1,18=10,22=1,26=3,38=1,42=20,44=3/1,23;
 2/12=2,17=6,18=5,29=1,40=1/2;
 3/5=1,6=6,7=1,11=2,16=1,25=1,30=1,71=2,74=-5,140=1/1,2,3;
 4//1;
 5/5=2,38=5/2;
 8/6=4,10=90,11=11/1;
 11/6=1,8=1,9=11,15=111,16=1/1,2,10;
 10/6=1,13=1/2;
 6/7=2,8=2,9=2,10=2,28=1/1;
 7/10=1,18=20,25=1/1,2,3,16;
 1/10=4,14=-1,18=10,22=1,26=3,42=20,44=3/23(2);
 2/29=1/2;
 99/5=20/99;
 2/29=1/2;
 3/5=1,6=6,7=1,11=2,16=1,25=1,30=1,71=2,74=-5,140=1/1,2,3;
 4/5=5,16=3,69=1/1;
 5/5=2,38=5/2;
 8/6=4,10=90,11=11/1;
 11/6=1,8=1,9=11,15=111,16=1/1,2,10;
 10/6=1,13=1/2;
 7/10=1,18=20,25=1/1,2,3,16;
 1/14=-1,18=10,22=1,26=3,42=20,44=3/23(-8);
 2/29=1/2;
 6/7=2,8=2,9=2,10=2,19=2,28=1/1;
 99/5=20,9=1/99;
 ------------------------------------------
 ./2/glo_2w_beta_boat2_b3lyp_631Gd_iopt.out
 ------------------------------------------
 Symbolic Z-matrix:
 Charge =  0 Multiplicity = 1
 C                    -0.26192  -0.93619  -1.05534 
 O                     0.49394   0.19506  -0.57884 
 H                     2.96197   0.6582   -0.19841 
 H                     1.66997  -2.02139   1.92576 
 O                     2.0195   -2.21556   1.04358 
 H                     2.6289   -1.47289   0.79816 
 O                     3.32828  -0.24294  -0.3142 
 H                     2.77383  -0.59163  -1.03329 
 C                    -1.51881   1.19278   0.4775 
 C                    -0.24364   1.40864  -0.39629 
 H                    -1.52388   1.92218   1.29554 
 H                    -0.56492   1.78911  -1.37952 
 O                    -2.72225   1.40503  -0.24074 
 H                    -2.90629   0.58657  -0.74094 
 C                     0.72508   2.38818   0.27262 
 O                     2.02203   2.41941  -0.31823 
 H                     0.88894   2.08301   1.31024 
 H                     0.26855   3.38854   0.28512 
 H                     1.92924   2.65441  -1.25555 
 H                     1.03588  -2.22036  -0.42565 
 C                    -1.37759  -1.28281  -0.02692 
 H                    -1.15857  -2.2607    0.41893 
 C                    -1.44887  -0.22211   1.09287 
 H                    -2.34694  -0.38673   1.69878 
 O                    -2.60248  -1.33815  -0.77828 
 H                    -3.28896  -1.72745  -0.2128 
 O                    -0.33582  -0.35315   1.97262 
 H                     0.44713  -0.31194   1.39347 
 O                     0.63121  -1.95768  -1.29277 
 H                    -0.73569  -0.67608  -2.01168 
 
 IRC-IRC-IRC-IRC-IRC-IRC-IRC-IRC-IRC-IRC-IRC-IRC-IRC-IRC-IRC-IRC-IRC-IRC
 ------------------------------------------------------------------------
 INPUT DATA FOR L123
 ------------------------------------------------------------------------
 GENERAL PARAMETERS:
 Rxn path following direction = Forward
 Maximum points per path      =  20
 Step size                    =   0.100 bohr
 Integration scheme           = HPC                                 
    Redo corrector integration= Yes                                 
    DWI Weight Power          =  2
    DWI will use Hessian update vectors when possible.
    Max correction cycles     =  20
 Initial Hessian              = CalcFC
 Hessian evaluation           = All updating
 Hessian updating method      = Bofill                              
 ------------------------------------------------------------------------
 IRC-IRC-IRC-IRC-IRC-IRC-IRC-IRC-IRC-IRC-IRC-IRC-IRC-IRC-IRC-IRC-IRC-IRC
                          Input orientation:                          
 ---------------------------------------------------------------------
 Center     Atomic      Atomic             Coordinates (Angstroms)
 Number     Number       Type             X           Y           Z
 ---------------------------------------------------------------------
      1          6           0       -0.261920   -0.936190   -1.055340
      2          8           0        0.493940    0.195060   -0.578840
      3          1           0        2.961970    0.658200   -0.198410
      4          1           0        1.669970   -2.021390    1.925760
      5          8           0        2.019500   -2.215560    1.043580
      6          1           0        2.628900   -1.472890    0.798160
      7          8           0        3.328280   -0.242940   -0.314200
      8          1           0        2.773830   -0.591630   -1.033290
      9          6           0       -1.518810    1.192780    0.477500
     10          6           0       -0.243640    1.408640   -0.396290
     11          1           0       -1.523880    1.922180    1.295540
     12          1           0       -0.564920    1.789110   -1.379520
     13          8           0       -2.722250    1.405030   -0.240740
     14          1           0       -2.906290    0.586570   -0.740940
     15          6           0        0.725080    2.388180    0.272620
     16          8           0        2.022030    2.419410   -0.318230
     17          1           0        0.888940    2.083010    1.310240
     18          1           0        0.268550    3.388540    0.285120
     19          1           0        1.929240    2.654410   -1.255550
     20          1           0        1.035880   -2.220360   -0.425650
     21          6           0       -1.377590   -1.282810   -0.026920
     22          1           0       -1.158570   -2.260700    0.418930
     23          6           0       -1.448870   -0.222110    1.092870
     24          1           0       -2.346940   -0.386730    1.698780
     25          8           0       -2.602480   -1.338150   -0.778280
     26          1           0       -3.288960   -1.727450   -0.212800
     27          8           0       -0.335820   -0.353150    1.972620
     28          1           0        0.447130   -0.311940    1.393470
     29          8           0        0.631210   -1.957680   -1.292770
     30          1           0       -0.735690   -0.676080   -2.011680
 ---------------------------------------------------------------------
                    Distance matrix (angstroms):
                    1          2          3          4          5
     1  C    0.000000
     2  O    1.441563   0.000000
     3  H    3.697279   2.539763   0.000000
     4  H    3.714406   3.545239   3.655347   0.000000
     5  O    3.353674   3.281870   3.269447   0.968563   0.000000
     6  H    3.475680   3.039118   2.376054   1.578569   0.991543
     7  O    3.730874   2.880167   0.979614   3.306100   2.729048
     8  H    3.055321   2.454242   1.514759   3.466799   2.742180
     9  C    2.908932   2.482431   4.562896   4.753595   4.945388
    10  C    2.435756   1.431826   3.298220   4.562776   4.508864
    11  H    3.910174   3.250822   4.894117   5.113668   5.453432
    12  H    2.761188   2.074432   3.887535   5.517202   5.346777
    13  O    3.492579   3.452856   5.733228   5.977096   6.102650
    14  H    3.067627   3.426532   5.893721   5.903804   5.941368
    15  C    3.713365   2.363934   2.866771   4.803124   4.843999
    16  O    4.125507   2.711219   1.999926   4.988000   4.830888
    17  H    4.004499   2.699815   2.933183   4.223147   4.452749
    18  H    4.558675   3.315953   3.865627   5.824347   5.920053
    19  H    4.211137   2.926846   2.483733   5.661366   5.386163
    20  H    1.931292   2.480206   3.470961   2.443520   1.768097
    21  C    1.556442   2.447721   4.756964   3.694060   3.681876
    22  H    2.175266   3.123634   5.087233   3.213790   3.239190
    23  C    2.556084   2.596759   4.679515   3.695711   4.000733
    24  H    3.497770   3.687361   5.733736   4.342718   4.779090
    25  O    2.390932   3.460972   5.940098   5.102203   5.044970
    26  H    3.240206   4.259150   6.690714   5.408403   5.476905
    27  O    3.084467   2.738427   4.075735   2.609294   3.143122
    28  H    2.624711   2.036970   3.130443   2.168154   2.493700
    29  O    1.377496   2.272186   3.670544   3.382605   2.729905
    30  H    1.098500   2.079400   4.329081   4.806297   4.392685
                    6          7          8          9         10
     6  H    0.000000
     7  O    1.799793   0.000000
     8  H    2.037605   0.972672   0.000000
     9  C    4.940862   5.116870   4.888084   0.000000
    10  C    4.240450   3.936123   3.675864   1.560821   0.000000
    11  H    5.386972   5.551798   5.496635   1.096011   2.182894
    12  H    5.058006   4.518976   4.115222   2.171184   1.102143
    13  O    6.164134   6.271373   5.900990   1.417458   2.483489
    14  H    6.103158   6.303972   5.808389   1.943499   2.807897
    15  C    4.336886   3.747506   3.844743   2.550686   1.531456
    16  O    4.094462   2.965538   3.184788   3.830843   2.482138
    17  H    3.991755   3.741554   4.024754   2.698745   2.156330
    18  H    5.428440   4.786312   4.884300   2.837786   2.155612
    19  H    4.662816   3.352326   3.361474   4.126606   2.647957
    20  H    2.143393   3.029473   2.458141   4.357941   3.848074
    21  C    4.094979   4.827947   4.327216   2.530401   2.943838
    22  H    3.887080   4.973998   4.512040   3.472712   3.868557
    23  C    4.275455   4.980105   4.742183   1.544502   2.515854
    24  H    5.172025   6.023362   5.807622   2.161522   3.469372
    25  O    5.465405   6.048865   5.433878   3.026042   3.640728
    26  H    6.008986   6.782471   6.222597   3.483919   4.375237
    27  O    3.379754   4.320569   4.331546   2.454536   2.953665
    28  H    2.542109   3.349914   3.373562   2.639717   2.576975
    29  O    2.932196   3.342472   2.554260   4.204978   3.591817
    30  H    4.455398   4.425483   3.644326   3.209662   2.682845
                   11         12         13         14         15
    11  H    0.000000
    12  H    2.844865   0.000000
    13  O    2.015860   2.469496   0.000000
    14  H    2.800386   2.708487   0.976702   0.000000
    15  C    2.514228   2.180035   3.621354   4.178511   0.000000
    16  O    3.927463   2.866343   4.852130   5.275066   1.425538
    17  H    2.418219   3.071627   3.988219   4.566229   1.093908
    18  H    2.526651   2.454358   3.627082   4.356999   1.099680
    19  H    4.355256   2.642905   4.922108   5.284235   1.963717
    20  H    5.164833   4.421343   5.225054   4.849636   4.671490
    21  C    3.470196   3.453498   3.013024   2.518200   4.241122
    22  H    4.289333   4.470772   4.039534   3.536491   5.018130
    23  C    2.155152   3.307429   2.459186   2.478083   3.494636
    24  H    2.484169   4.169629   2.667021   2.685595   4.378512
    25  O    4.011715   3.780595   2.797915   1.948908   5.105152
    26  H    4.325552   4.598676   3.183453   2.404175   5.769451
    27  O    2.654628   3.984797   3.699352   3.854062   3.395644
    28  H    2.980900   3.623276   3.957726   4.075347   2.936700
    29  O    5.137808   3.934042   4.864183   4.392224   4.620147
    30  H    4.279007   2.550676   3.378412   2.814351   4.091646
                   16         17         18         19         20
    16  O    0.000000
    17  H    2.012206   0.000000
    18  H    2.092352   1.772051   0.000000
    19  H    0.970775   2.827013   2.381282   0.000000
    20  H    4.744628   4.642618   5.705589   5.024959   0.000000
    21  C    5.034750   4.272458   4.962727   5.286431   2.619699
    22  H    5.706404   4.884112   5.828249   6.041255   2.351713
    23  C    4.584319   3.290317   4.079067   5.020067   3.531698
    24  H    5.570516   4.089193   4.805402   6.021820   4.395324
    25  O    5.976370   5.315662   5.631628   6.058449   3.760360
    26  H    6.739004   5.856117   6.251172   6.893304   4.358039
    27  O    4.300528   2.806004   4.148875   4.959536   3.334626
    28  H    3.587548   2.436782   3.867025   4.244195   2.701461
    29  O    4.695000   4.813446   5.585994   4.791413   0.992298
    30  H    4.478264   4.613800   4.775450   4.331945   2.835269
                   21         22         23         24         25
    21  C    0.000000
    22  H    1.096823   0.000000
    23  C    1.544051   2.166638   0.000000
    24  H    2.172703   2.561641   1.095790   0.000000
    25  O    1.438040   2.090284   2.465272   2.665769   0.000000
    26  H    1.971190   2.285170   2.712334   2.517751   0.970864
    27  O    2.438793   2.594151   1.424785   2.029956   3.698030
    28  H    2.507927   2.706597   1.921782   2.811696   3.881975
    29  O    2.468421   2.495005   3.609739   4.504068   3.332457
    30  H    2.172425   2.932186   3.217599   4.055535   2.333349
                   26         27         28         29         30
    26  H    0.000000
    27  O    3.922473   0.000000
    28  H    4.306059   0.974743   0.000000
    29  O    4.072723   3.764630   3.155666   0.000000
    30  H    3.295533   4.017316   3.623080   2.006924   0.000000
 Symmetry turned off by external request.
 Stoichiometry    C6H16O8
 Framework group  C1[X(C6H16O8)]
 Deg. of freedom    84
 Full point group                 C1      NOp   1
 Rotational constants (GHZ):      0.7545293      0.5787777      0.4280225
 Standard basis: 6-31G(d) (6D, 7F)
   242 basis functions,   456 primitive gaussians,   242 cartesian basis functions
    58 alpha electrons       58 beta electrons
       nuclear repulsion energy      1136.1538014261 Hartrees.
 NAtoms=   30 NActive=   30 NUniq=   30 SFac= 1.00D+00 NAtFMM=   60 NAOKFM=F Big=F
 Integral buffers will be    131072 words long.
 Raffenetti 2 integral format.
 Two-electron integral symmetry is turned off.
 One-electron integrals computed using PRISM.
 NBasis=   242 RedAO= T EigKep=  1.68D-03  NBF=   242
 NBsUse=   242 1.00D-06 EigRej= -1.00D+00 NBFU=   242
 ExpMin= 1.61D-01 ExpMax= 5.48D+03 ExpMxC= 8.25D+02 IAcc=1 IRadAn=         1 AccDes= 0.00D+00
 Harris functional with IExCor=  402 and IRadAn=       1 diagonalized for initial guess.
 HarFok:  IExCor=  402 AccDes= 0.00D+00 IRadAn=         1 IDoV= 1 UseB2=F ITyADJ=14
 ICtDFT=  3500011 ScaDFX=  1.000000  1.000000  1.000000  1.000000
 FoFCou: FMM=F IPFlag=           0 FMFlag=      100000 FMFlg1=           0
         NFxFlg=           0 DoJE=T BraDBF=F KetDBF=T FulRan=T
         wScrn=  0.000000 ICntrl=     500 IOpCl=  0 I1Cent=   200000004 NGrid=           0
         NMat0=    1 NMatS0=      1 NMatT0=    0 NMatD0=    1 NMtDS0=    0 NMtDT0=    0
 Symmetry not used in FoFCou.
 Requested convergence on RMS density matrix=1.00D-08 within 128 cycles.
 Requested convergence on MAX density matrix=1.00D-06.
 Requested convergence on             energy=1.00D-06.
 No special actions if energy rises.
 Integral accuracy reduced to 1.0D-05 until final iterations.
 Initial convergence to 1.0D-05 achieved.  Increase integral accuracy.
 SCF Done:  E(RB3LYP) =  -840.000018473     A.U. after   13 cycles
            NFock= 13  Conv=0.99D-08     -V/T= 2.0086
 DoSCS=F DFT=T ScalE2(SS,OS)=  1.000000  1.000000
 Range of M.O.s used for correlation:     1   242
 NBasis=   242 NAE=    58 NBE=    58 NFC=     0 NFV=     0
 NROrb=    242 NOA=    58 NOB=    58 NVA=   184 NVB=   184
 Symmetrizing basis deriv contribution to polar:
 IMax=3 JMax=2 DiffMx= 0.00D+00
 G2DrvN: will do    31 centers at a time, making    1 passes.
 Calling FoFCou, ICntrl=  3107 FMM=F I1Cent=   0 AccDes= 0.00D+00.
 End of G2Drv F.D. properties file   721 does not exist.
 End of G2Drv F.D. properties file   722 does not exist.
 End of G2Drv F.D. properties file   788 does not exist.
          IDoAtm=111111111111111111111111111111
          Differentiating once with respect to nuclear coordinates.
          There are    93 degrees of freedom in the 1st order CPHF.  IDoFFX=6 NUNeed=     0.
     87 vectors produced by pass  0 Test12= 1.15D-14 1.08D-09 XBig12= 1.22D-01 4.59D-02.
 AX will form    87 AO Fock derivatives at one time.
     87 vectors produced by pass  1 Test12= 1.15D-14 1.08D-09 XBig12= 2.35D-02 1.76D-02.
     87 vectors produced by pass  2 Test12= 1.15D-14 1.08D-09 XBig12= 2.00D-04 1.34D-03.
     87 vectors produced by pass  3 Test12= 1.15D-14 1.08D-09 XBig12= 4.92D-07 8.07D-05.
     87 vectors produced by pass  4 Test12= 1.15D-14 1.08D-09 XBig12= 6.94D-10 2.28D-06.
     68 vectors produced by pass  5 Test12= 1.15D-14 1.08D-09 XBig12= 5.92D-13 6.45D-08.
      3 vectors produced by pass  6 Test12= 1.15D-14 1.08D-09 XBig12= 5.30D-16 2.15D-09.
 InvSVY:  IOpt=1 It=  1 EMax= 5.55D-16
 Solved reduced A of dimension   506 with    93 vectors.
 End of Minotr F.D. properties file   721 does not exist.
 End of Minotr F.D. properties file   722 does not exist.
 End of Minotr F.D. properties file   788 does not exist.

 **********************************************************************

            Population analysis using the SCF density.

 **********************************************************************

 Alpha  occ. eigenvalues --  -19.18704 -19.18096 -19.17567 -19.16094 -19.14985
 Alpha  occ. eigenvalues --  -19.14925 -19.14643 -19.13989 -10.29880 -10.25772
 Alpha  occ. eigenvalues --  -10.25675 -10.25654 -10.25388 -10.24980  -1.08739
 Alpha  occ. eigenvalues --   -1.05542  -1.04785  -1.03693  -1.02216  -1.01278
 Alpha  occ. eigenvalues --   -1.00448  -0.99186  -0.78910  -0.77644  -0.70319
 Alpha  occ. eigenvalues --   -0.66055  -0.64623  -0.59912  -0.56230  -0.55238
 Alpha  occ. eigenvalues --   -0.54282  -0.53000  -0.52473  -0.51316  -0.50445
 Alpha  occ. eigenvalues --   -0.47990  -0.46829  -0.45773  -0.45553  -0.43645
 Alpha  occ. eigenvalues --   -0.41447  -0.41309  -0.39987  -0.39615  -0.39050
 Alpha  occ. eigenvalues --   -0.38289  -0.36686  -0.35924  -0.35056  -0.33931
 Alpha  occ. eigenvalues --   -0.32034  -0.31613  -0.30693  -0.29770  -0.29452
 Alpha  occ. eigenvalues --   -0.28731  -0.27016  -0.25761
 Alpha virt. eigenvalues --    0.03207   0.04453   0.06331   0.08468   0.10043
 Alpha virt. eigenvalues --    0.10705   0.11056   0.11931   0.12647   0.13060
 Alpha virt. eigenvalues --    0.14518   0.14813   0.15879   0.16657   0.18419
 Alpha virt. eigenvalues --    0.19738   0.20332   0.21019   0.21955   0.22213
 Alpha virt. eigenvalues --    0.22908   0.24826   0.25481   0.26144   0.29774
 Alpha virt. eigenvalues --    0.31160   0.32575   0.34103   0.50981   0.52808
 Alpha virt. eigenvalues --    0.53564   0.54825   0.56491   0.56950   0.57327
 Alpha virt. eigenvalues --    0.59947   0.60321   0.61771   0.64619   0.65285
 Alpha virt. eigenvalues --    0.66981   0.69140   0.72434   0.74195   0.74686
 Alpha virt. eigenvalues --    0.76370   0.77185   0.78571   0.79202   0.80743
 Alpha virt. eigenvalues --    0.80974   0.81613   0.82419   0.82686   0.83957
 Alpha virt. eigenvalues --    0.85142   0.86068   0.86631   0.87952   0.88966
 Alpha virt. eigenvalues --    0.89601   0.90946   0.91751   0.93800   0.95221
 Alpha virt. eigenvalues --    0.96588   0.97611   0.98300   1.00217   1.01400
 Alpha virt. eigenvalues --    1.03632   1.04480   1.04957   1.05597   1.08284
 Alpha virt. eigenvalues --    1.09327   1.11261   1.12974   1.14793   1.17400
 Alpha virt. eigenvalues --    1.17696   1.20033   1.21214   1.24213   1.26271
 Alpha virt. eigenvalues --    1.27133   1.28734   1.29614   1.31829   1.35561
 Alpha virt. eigenvalues --    1.37543   1.40976   1.46027   1.47410   1.48978
 Alpha virt. eigenvalues --    1.50982   1.51866   1.54727   1.58224   1.58830
 Alpha virt. eigenvalues --    1.61767   1.63318   1.64938   1.67671   1.69696
 Alpha virt. eigenvalues --    1.70061   1.71624   1.72542   1.73532   1.73876
 Alpha virt. eigenvalues --    1.74220   1.75093   1.76293   1.78356   1.78834
 Alpha virt. eigenvalues --    1.80664   1.81545   1.83339   1.84750   1.85144
 Alpha virt. eigenvalues --    1.86882   1.88284   1.89342   1.91246   1.96457
 Alpha virt. eigenvalues --    1.97745   1.98505   2.01333   2.03575   2.04325
 Alpha virt. eigenvalues --    2.07202   2.07965   2.11091   2.12361   2.14272
 Alpha virt. eigenvalues --    2.16843   2.18562   2.21268   2.24366   2.27799
 Alpha virt. eigenvalues --    2.28711   2.31234   2.33980   2.34990   2.36748
 Alpha virt. eigenvalues --    2.41381   2.41743   2.44690   2.45559   2.48543
 Alpha virt. eigenvalues --    2.50914   2.51582   2.54899   2.57173   2.58082
 Alpha virt. eigenvalues --    2.59353   2.61106   2.61905   2.64393   2.68580
 Alpha virt. eigenvalues --    2.70588   2.75215   2.80809   2.84854   2.89287
 Alpha virt. eigenvalues --    2.91241   2.95912   2.98550   3.01458   3.04790
 Alpha virt. eigenvalues --    3.70710   3.74170   3.76633   3.85428   3.88502
 Alpha virt. eigenvalues --    3.95871   4.07943   4.11626   4.24972   4.37908
 Alpha virt. eigenvalues --    4.44650   4.57657   4.73459   4.78991
          Condensed to atoms (all electrons):
               1          2          3          4          5          6
     1  C    4.657931   0.170698   0.000034  -0.000052   0.002995  -0.000265
     2  O    0.170698   8.413622   0.004287  -0.000263  -0.001125   0.000685
     3  H    0.000034   0.004287   0.320612  -0.000078   0.001129  -0.002509
     4  H   -0.000052  -0.000263  -0.000078   0.364873   0.235496  -0.010305
     5  O    0.002995  -0.001125   0.001129   0.235496   8.358383   0.193459
     6  H   -0.000265   0.000685  -0.002509  -0.010305   0.193459   0.321546
     7  O   -0.000395  -0.002707   0.228418   0.000836  -0.027540   0.077349
     8  H    0.000538   0.006780  -0.022092  -0.000022   0.003922  -0.009693
     9  C   -0.019965  -0.036724   0.000013   0.000074   0.000029  -0.000007
    10  C   -0.009424   0.177410  -0.001356  -0.000016  -0.000075  -0.000034
    11  H    0.000294   0.003435   0.000001  -0.000002   0.000000  -0.000000
    12  H   -0.004253  -0.040918  -0.000024  -0.000000  -0.000003   0.000002
    13  O    0.000442   0.001159  -0.000000  -0.000000   0.000000  -0.000000
    14  H   -0.001172   0.000232  -0.000000   0.000000  -0.000000   0.000000
    15  C    0.003181  -0.044501  -0.003854   0.000014  -0.000002   0.000045
    16  O    0.000064  -0.000450   0.049150   0.000000  -0.000001   0.000002
    17  H   -0.000188  -0.002373  -0.001248  -0.000042  -0.000035   0.000038
    18  H   -0.000051   0.003310   0.000468  -0.000000  -0.000000   0.000001
    19  H   -0.000086   0.000535  -0.002912  -0.000000   0.000000  -0.000005
    20  H   -0.022945   0.002093  -0.000039  -0.004276   0.070849  -0.005787
    21  C    0.279434  -0.049833  -0.000017   0.000096   0.000421  -0.000082
    22  H   -0.041568   0.002999  -0.000001   0.000593   0.000861  -0.000046
    23  C   -0.040607   0.009180   0.000027  -0.000354  -0.000816   0.000053
    24  H    0.004527   0.000112   0.000000  -0.000031  -0.000009   0.000000
    25  O   -0.029850   0.000950  -0.000000   0.000001   0.000002  -0.000000
    26  H    0.005873  -0.000154   0.000000  -0.000000  -0.000000   0.000000
    27  O    0.003917  -0.019230  -0.000007   0.009508  -0.004481  -0.000003
    28  H    0.003452   0.034096   0.000364  -0.000017   0.019674   0.001031
    29  O    0.313407  -0.058134  -0.000107   0.001351  -0.026424   0.002917
    30  H    0.377139  -0.041646   0.000020   0.000006  -0.000045   0.000020
               7          8          9         10         11         12
     1  C   -0.000395   0.000538  -0.019965  -0.009424   0.000294  -0.004253
     2  O   -0.002707   0.006780  -0.036724   0.177410   0.003435  -0.040918
     3  H    0.228418  -0.022092   0.000013  -0.001356   0.000001  -0.000024
     4  H    0.000836  -0.000022   0.000074  -0.000016  -0.000002  -0.000000
     5  O   -0.027540   0.003922   0.000029  -0.000075   0.000000  -0.000003
     6  H    0.077349  -0.009693  -0.000007  -0.000034  -0.000000   0.000002
     7  O    8.320870   0.232487  -0.000007  -0.000137  -0.000000  -0.000001
     8  H    0.232487   0.370319   0.000025   0.000393  -0.000001  -0.000032
     9  C   -0.000007   0.000025   5.031654   0.252476   0.376730  -0.057462
    10  C   -0.000137   0.000393   0.252476   5.089740  -0.068236   0.350789
    11  H   -0.000000  -0.000001   0.376730  -0.068236   0.598153   0.004380
    12  H   -0.000001  -0.000032  -0.057462   0.350789   0.004380   0.623116
    13  O    0.000000  -0.000000   0.237124  -0.041037  -0.041865   0.005380
    14  H   -0.000000  -0.000000  -0.031073  -0.002081   0.005797   0.001121
    15  C    0.001359  -0.000418  -0.015258   0.322508  -0.001234  -0.037584
    16  O   -0.011563   0.000778   0.002486  -0.034818   0.000110  -0.002269
    17  H    0.000264  -0.000021  -0.006829  -0.036079   0.003530   0.005249
    18  H   -0.000021   0.000004   0.000865  -0.045694   0.003168  -0.002600
    19  H    0.000961   0.000177   0.000084  -0.002676   0.000008   0.003781
    20  H    0.001893  -0.001651   0.000018  -0.000174  -0.000002   0.000019
    21  C   -0.000027   0.000386  -0.015920  -0.024881   0.005627  -0.001841
    22  H    0.000003  -0.000023   0.005776   0.000085  -0.000175   0.000033
    23  C   -0.000001  -0.000033   0.286765  -0.029840  -0.036731   0.004596
    24  H   -0.000000   0.000001  -0.051300   0.006624  -0.006537  -0.000203
    25  O    0.000000  -0.000001   0.000276   0.000401  -0.000191  -0.000005
    26  H   -0.000000   0.000000  -0.000709   0.000031  -0.000011  -0.000015
    27  O   -0.000040   0.000003  -0.038840   0.007771   0.001789  -0.000202
    28  H    0.000925  -0.000016  -0.009592  -0.001464  -0.000062   0.000632
    29  O   -0.002256   0.017039   0.000083   0.003099   0.000004  -0.000048
    30  H   -0.000005  -0.000220  -0.001571  -0.005467   0.000055   0.009728
              13         14         15         16         17         18
     1  C    0.000442  -0.001172   0.003181   0.000064  -0.000188  -0.000051
     2  O    0.001159   0.000232  -0.044501  -0.000450  -0.002373   0.003310
     3  H   -0.000000  -0.000000  -0.003854   0.049150  -0.001248   0.000468
     4  H   -0.000000   0.000000   0.000014   0.000000  -0.000042  -0.000000
     5  O    0.000000  -0.000000  -0.000002  -0.000001  -0.000035  -0.000000
     6  H   -0.000000   0.000000   0.000045   0.000002   0.000038   0.000001
     7  O    0.000000  -0.000000   0.001359  -0.011563   0.000264  -0.000021
     8  H   -0.000000  -0.000000  -0.000418   0.000778  -0.000021   0.000004
     9  C    0.237124  -0.031073  -0.015258   0.002486  -0.006829   0.000865
    10  C   -0.041037  -0.002081   0.322508  -0.034818  -0.036079  -0.045694
    11  H   -0.041865   0.005797  -0.001234   0.000110   0.003530   0.003168
    12  H    0.005380   0.001121  -0.037584  -0.002269   0.005249  -0.002600
    13  O    8.300254   0.225014   0.002002  -0.000009   0.000070  -0.000044
    14  H    0.225014   0.353617  -0.000005   0.000001   0.000001   0.000004
    15  C    0.002002  -0.000005   4.910560   0.235290   0.369122   0.358856
    16  O   -0.000009   0.000001   0.235290   8.207566  -0.038353  -0.030930
    17  H    0.000070   0.000001   0.369122  -0.038353   0.557135  -0.035407
    18  H   -0.000044   0.000004   0.358856  -0.030930  -0.035407   0.600540
    19  H   -0.000001  -0.000000  -0.028773   0.234971   0.006692  -0.004527
    20  H   -0.000000   0.000003   0.000024  -0.000003  -0.000005   0.000000
    21  C    0.002364  -0.004224   0.000155  -0.000021   0.000186  -0.000028
    22  H   -0.000181   0.000773   0.000019  -0.000000  -0.000006  -0.000000
    23  C   -0.026817  -0.011458  -0.002626   0.000002  -0.000034   0.000366
    24  H    0.004816  -0.000542  -0.000114   0.000001  -0.000067   0.000011
    25  O   -0.017162   0.051974  -0.000005   0.000000  -0.000002  -0.000000
    26  H    0.001513  -0.002611  -0.000001   0.000000  -0.000000   0.000000
    27  O    0.001537   0.000060  -0.003478   0.000010   0.007588   0.000073
    28  H    0.000020   0.000040   0.000345  -0.000079   0.002023   0.000043
    29  O    0.000002   0.000010  -0.000147   0.000001   0.000002   0.000001
    30  H    0.000402   0.001491  -0.000002  -0.000023   0.000014   0.000018
              19         20         21         22         23         24
     1  C   -0.000086  -0.022945   0.279434  -0.041568  -0.040607   0.004527
     2  O    0.000535   0.002093  -0.049833   0.002999   0.009180   0.000112
     3  H   -0.002912  -0.000039  -0.000017  -0.000001   0.000027   0.000000
     4  H   -0.000000  -0.004276   0.000096   0.000593  -0.000354  -0.000031
     5  O    0.000000   0.070849   0.000421   0.000861  -0.000816  -0.000009
     6  H   -0.000005  -0.005787  -0.000082  -0.000046   0.000053   0.000000
     7  O    0.000961   0.001893  -0.000027   0.000003  -0.000001  -0.000000
     8  H    0.000177  -0.001651   0.000386  -0.000023  -0.000033   0.000001
     9  C    0.000084   0.000018  -0.015920   0.005776   0.286765  -0.051300
    10  C   -0.002676  -0.000174  -0.024881   0.000085  -0.029840   0.006624
    11  H    0.000008  -0.000002   0.005627  -0.000175  -0.036731  -0.006537
    12  H    0.003781   0.000019  -0.001841   0.000033   0.004596  -0.000203
    13  O   -0.000001  -0.000000   0.002364  -0.000181  -0.026817   0.004816
    14  H   -0.000000   0.000003  -0.004224   0.000773  -0.011458  -0.000542
    15  C   -0.028773   0.000024   0.000155   0.000019  -0.002626  -0.000114
    16  O    0.234971  -0.000003  -0.000021  -0.000000   0.000002   0.000001
    17  H    0.006692  -0.000005   0.000186  -0.000006  -0.000034  -0.000067
    18  H   -0.004527   0.000000  -0.000028  -0.000000   0.000366   0.000011
    19  H    0.387784  -0.000001   0.000007  -0.000000  -0.000008  -0.000000
    20  H   -0.000001   0.310960  -0.008874   0.005000  -0.000178  -0.000025
    21  C    0.000007  -0.008874   5.210355   0.359029   0.279213  -0.047215
    22  H   -0.000000   0.005000   0.359029   0.585030  -0.048995  -0.004866
    23  C   -0.000008  -0.000178   0.279213  -0.048995   5.013072   0.370301
    24  H   -0.000000  -0.000025  -0.047215  -0.004866   0.370301   0.605092
    25  O   -0.000000   0.000001   0.156273  -0.025888  -0.032420   0.000712
    26  H    0.000000  -0.000003  -0.019333  -0.006790  -0.001632   0.004631
    27  O   -0.000003   0.000061  -0.034068   0.004253   0.212880  -0.033338
    28  H    0.000015   0.001170  -0.011158   0.000122  -0.030582   0.006099
    29  O    0.000001   0.202088  -0.032579   0.000003   0.001621  -0.000069
    30  H    0.000001   0.005433  -0.078645   0.004466   0.002724  -0.000281
              25         26         27         28         29         30
     1  C   -0.029850   0.005873   0.003917   0.003452   0.313407   0.377139
     2  O    0.000950  -0.000154  -0.019230   0.034096  -0.058134  -0.041646
     3  H   -0.000000   0.000000  -0.000007   0.000364  -0.000107   0.000020
     4  H    0.000001  -0.000000   0.009508  -0.000017   0.001351   0.000006
     5  O    0.000002  -0.000000  -0.004481   0.019674  -0.026424  -0.000045
     6  H   -0.000000   0.000000  -0.000003   0.001031   0.002917   0.000020
     7  O    0.000000  -0.000000  -0.000040   0.000925  -0.002256  -0.000005
     8  H   -0.000001   0.000000   0.000003  -0.000016   0.017039  -0.000220
     9  C    0.000276  -0.000709  -0.038840  -0.009592   0.000083  -0.001571
    10  C    0.000401   0.000031   0.007771  -0.001464   0.003099  -0.005467
    11  H   -0.000191  -0.000011   0.001789  -0.000062   0.000004   0.000055
    12  H   -0.000005  -0.000015  -0.000202   0.000632  -0.000048   0.009728
    13  O   -0.017162   0.001513   0.001537   0.000020   0.000002   0.000402
    14  H    0.051974  -0.002611   0.000060   0.000040   0.000010   0.001491
    15  C   -0.000005  -0.000001  -0.003478   0.000345  -0.000147  -0.000002
    16  O    0.000000   0.000000   0.000010  -0.000079   0.000001  -0.000023
    17  H   -0.000002  -0.000000   0.007588   0.002023   0.000002   0.000014
    18  H   -0.000000   0.000000   0.000073   0.000043   0.000001   0.000018
    19  H   -0.000000   0.000000  -0.000003   0.000015   0.000001   0.000001
    20  H    0.000001  -0.000003   0.000061   0.001170   0.202088   0.005433
    21  C    0.156273  -0.019333  -0.034068  -0.011158  -0.032579  -0.078645
    22  H   -0.025888  -0.006790   0.004253   0.000122   0.000003   0.004466
    23  C   -0.032420  -0.001632   0.212880  -0.030582   0.001621   0.002724
    24  H    0.000712   0.004631  -0.033338   0.006099  -0.000069  -0.000281
    25  O    8.288157   0.231645   0.001657   0.000050   0.001095   0.005877
    26  H    0.231645   0.378755   0.000007   0.000014  -0.000198  -0.000420
    27  O    0.001657   0.000007   8.335773   0.200918  -0.000116  -0.000161
    28  H    0.000050   0.000014   0.200918   0.379961  -0.000954   0.000652
    29  O    0.001095  -0.000198  -0.000116  -0.000954   8.267750  -0.040158
    30  H    0.005877  -0.000420  -0.000161   0.000652  -0.040158   0.608479
 Mulliken charges:
               1
     1  C    0.346895
     2  O   -0.533526
     3  H    0.429717
     4  H    0.402609
     5  O   -0.826667
     6  H    0.431585
     7  O   -0.820668
     8  H    0.401370
     9  C    0.090780
    10  C    0.092161
    11  H    0.151961
    12  H    0.138632
    13  O   -0.654984
    14  H    0.413027
    15  C   -0.065478
    16  O   -0.611914
    17  H    0.168774
    18  H    0.151574
    19  H    0.403973
    20  H    0.444349
    21  C    0.035200
    22  H    0.159494
    23  C    0.082331
    24  H    0.141671
    25  O   -0.633548
    26  H    0.409407
    27  O   -0.653838
    28  H    0.402278
    29  O   -0.649284
    30  H    0.152117
 Sum of Mulliken charges =  -0.00000
 Mulliken charges with hydrogens summed into heavy atoms:
               1
     1  C    0.499012
     2  O   -0.533526
     5  O    0.007528
     7  O    0.010419
     9  C    0.242741
    10  C    0.230794
    13  O   -0.241956
    15  C    0.254871
    16  O   -0.207940
    21  C    0.194694
    23  C    0.224002
    25  O   -0.224141
    27  O   -0.251560
    29  O   -0.204936
 APT charges:
               1
     1  C   -0.264856
     2  O   -0.362794
     3  H    0.335504
     4  H    0.510627
     5  O   -0.859499
     6  H    0.395846
     7  O   -0.628098
     8  H    0.325773
     9  C   -0.361391
    10  C   -0.267881
    11  H    0.492921
    12  H    0.407943
    13  O   -0.590738
    14  H    0.462427
    15  C   -0.719640
    16  O   -0.753683
    17  H    0.314451
    18  H    0.574511
    19  H    0.664795
    20  H    0.460054
    21  C   -0.233919
    22  H    0.441530
    23  C   -0.444115
    24  H    0.567037
    25  O   -1.007715
    26  H    0.841181
    27  O   -0.521556
    28  H    0.316567
    29  O   -0.530750
    30  H    0.435468
 Sum of APT charges =  -0.00000
 APT charges with hydrogens summed into heavy atoms:
               1
     1  C    0.170612
     2  O   -0.362794
     5  O    0.046974
     7  O    0.033180
     9  C    0.131530
    10  C    0.140062
    13  O   -0.128311
    15  C    0.169323
    16  O   -0.088888
    21  C    0.207612
    23  C    0.122922
    25  O   -0.166534
    27  O   -0.204989
    29  O   -0.070696
 Electronic spatial extent (au):  <R**2>=           2863.4717
 Charge=             -0.0000 electrons
 Dipole moment (field-independent basis, Debye):
    X=             -2.7063    Y=              1.6392    Z=              0.2625  Tot=              3.1749
 Quadrupole moment (field-independent basis, Debye-Ang):
   XX=            -92.5342   YY=            -84.0881   ZZ=            -83.0465
   XY=             12.1411   XZ=             -2.4617   YZ=             -7.0868
 Traceless Quadrupole moment (field-independent basis, Debye-Ang):
   XX=             -5.9779   YY=              2.4682   ZZ=              3.5098
   XY=             12.1411   XZ=             -2.4617   YZ=             -7.0868
 Octapole moment (field-independent basis, Debye-Ang**2):
  XXX=            -47.2423  YYY=             14.6250  ZZZ=             -8.9125  XYY=             -4.7326
  XXY=            -28.8248  XXZ=              6.2129  XZZ=             17.9723  YZZ=              9.9432
  YYZ=              1.2634  XYZ=             -4.5140
 Hexadecapole moment (field-independent basis, Debye-Ang**3):
 XXXX=          -1749.9681 YYYY=          -1227.1764 ZZZZ=           -503.5532 XXXY=            128.1889
 XXXZ=            -11.8989 YYYX=             64.8400 YYYZ=            -44.2327 ZZZX=             15.9669
 ZZZY=            -39.2295 XXYY=           -506.1756 XXZZ=           -322.6650 YYZZ=           -273.2928
 XXYZ=            -20.4778 YYXZ=            -36.2492 ZZXY=              0.4123
 N-N= 1.136153801426D+03 E-N=-4.243839692499D+03  KE= 8.328685892882D+02
  Exact polarizability:   0.000   0.000   0.000   0.000   0.000   0.000
 Approx polarizability: 134.027  -2.558 128.613   3.761  -0.721 127.765
 Calling FoFJK, ICntrl=    100147 FMM=F ISym2X=0 I1Cent= 0 IOpClX= 0 NMat=1 NMatS=1 NMatT=0.
 -------------------------------------------------------------------
 Center     Atomic                   Forces (Hartrees/Bohr)
 Number     Number              X              Y              Z
 -------------------------------------------------------------------
      1        6          -0.000002256   -0.000002870    0.000006216
      2        8           0.000005798   -0.000008812   -0.000000759
      3        1          -0.000011653   -0.000020992   -0.000002937
      4        1          -0.000007464    0.000006034    0.000020592
      5        8          -0.000009195   -0.000008023    0.000015344
      6        1          -0.000003409    0.000001323    0.000013504
      7        8           0.000004176    0.000006404   -0.000002045
      8        1           0.000005454    0.000004259    0.000039037
      9        6          -0.000001031    0.000009548   -0.000014812
     10        6           0.000005171   -0.000000125   -0.000016713
     11        1          -0.000001298    0.000005658   -0.000008443
     12        1           0.000005175   -0.000002997   -0.000004230
     13        8           0.000006624    0.000008160   -0.000023937
     14        1           0.000001043   -0.000003928   -0.000009861
     15        6           0.000006189    0.000001080   -0.000011567
     16        8           0.000008614   -0.000011619    0.000002985
     17        1          -0.000002067    0.000003271   -0.000004294
     18        1           0.000003934   -0.000001306   -0.000010093
     19        1           0.000005988   -0.000004620   -0.000014052
     20        1          -0.000004448   -0.000002802    0.000003587
     21        6           0.000000639    0.000005027    0.000008289
     22        1          -0.000002321    0.000001846    0.000004203
     23        6          -0.000005957    0.000009315   -0.000008912
     24        1          -0.000004530    0.000006688   -0.000001076
     25        8          -0.000005329   -0.000001335   -0.000004175
     26        1          -0.000000499    0.000001675   -0.000000919
     27        8          -0.000003372    0.000015695    0.000001037
     28        1          -0.000005046    0.000006052    0.000001409
     29        8           0.000009227   -0.000016642    0.000024586
     30        1           0.000001843   -0.000005964   -0.000001964
 -------------------------------------------------------------------
 Cartesian Forces:  Max     0.000039037 RMS     0.000009228
 IRC-IRC-IRC-IRC-IRC-IRC-IRC-IRC-IRC-IRC-IRC-IRC-IRC-IRC-IRC-IRC-IRC-IRC
          ******** Start new reaction path calculation ********
 Supplied step size of   0.1000 bohr.
    Integration on MW PES will use step size of   0.1534 sqrt(amu)*bohr.
 Point Number:   0          Path Number:   1
 Calculating another point on the path.
 IRC-IRC-IRC-IRC-IRC-IRC-IRC-IRC-IRC-IRC-IRC-IRC-IRC-IRC-IRC-IRC-IRC-IRC
                          Input orientation:                          
 ---------------------------------------------------------------------
 Center     Atomic      Atomic             Coordinates (Angstroms)
 Number     Number       Type             X           Y           Z
 ---------------------------------------------------------------------
      1          6           0       -0.250817   -0.929047   -1.046496
      2          8           0        0.503817    0.203678   -0.569599
      3          1           0        2.970550    0.662733   -0.187237
      4          1           0        1.643765   -2.005862    1.917039
      5          8           0        2.026561   -2.219515    1.052076
      6          1           0        2.634388   -1.474819    0.809574
      7          8           0        3.335642   -0.238959   -0.301601
      8          1           0        2.782689   -0.587288   -1.021987
      9          6           0       -1.510029    1.199313    0.486483
     10          6           0       -0.235548    1.416526   -0.388423
     11          1           0       -1.515264    1.928774    1.304487
     12          1           0       -0.557946    1.794979   -1.371992
     13          8           0       -2.714149    1.410034   -0.230721
     14          1           0       -2.897516    0.591421   -0.730953
     15          6           0        0.732404    2.398441    0.278573
     16          8           0        2.029972    2.427696   -0.310698
     17          1           0        0.895264    2.097119    1.317537
     18          1           0        0.275583    3.398722    0.287469
     19          1           0        1.938527    2.660429   -1.248719
     20          1           0        1.049427   -2.212845   -0.417769
     21          6           0       -1.366097   -1.276412   -0.017891
     22          1           0       -1.146517   -2.254229    0.427777
     23          6           0       -1.437285   -0.215587    1.101823
     24          1           0       -2.333075   -0.381803    1.710512
     25          8           0       -2.591245   -1.332195   -0.768813
     26          1           0       -3.276986   -1.723656   -0.203929
     27          8           0       -0.320666   -0.344352    1.978227
     28          1           0        0.459093   -0.283265    1.396037
     29          8           0        0.643140   -1.949095   -1.284620
     30          1           0       -0.725056   -0.668360   -2.002430
 ---------------------------------------------------------------------
                    Distance matrix (angstroms):
                    1          2          3          4          5
     1  C    0.000000
     2  O    1.442210   0.000000
     3  H    3.694495   2.538052   0.000000
     4  H    3.678520   3.516379   3.648251   0.000000
     5  O    3.354960   3.289444   3.276334   0.969712   0.000000
     6  H    3.473797   3.042828   2.382386   1.577916   0.991379
     7  O    3.727436   2.878713   0.979499   3.302538   2.732899
     8  H    3.052795   2.454290   1.514810   3.456497   2.745475
     9  C    2.909563   2.482372   4.562610   4.718692   4.951338
    10  C    2.436188   1.431952   3.299659   4.534282   4.518071
    11  H    3.910638   3.250360   4.893938   5.082917   5.460452
    12  H    2.760543   2.074467   3.890490   5.487409   5.354619
    13  O    3.493536   3.453322   5.733773   5.939077   6.106842
    14  H    3.068617   3.427163   5.893634   5.863530   5.943660
    15  C    3.714123   2.364029   2.870359   4.786756   4.857845
    16  O    4.124454   2.709693   2.003753   4.976787   4.842906
    17  H    4.007472   2.701783   2.937452   4.213563   4.470306
    18  H    4.559182   3.315865   3.869603   5.808351   5.934233
    19  H    4.209330   2.924931   2.486485   5.646520   5.395856
    20  H    1.932374   2.482001   3.465950   2.418142   1.765016
    21  C    1.556451   2.447780   4.753469   3.651756   3.680271
    22  H    2.175285   3.124047   5.083026   3.172580   3.234096
    23  C    2.555779   2.595633   4.675696   3.655481   4.002054
    24  H    3.498052   3.686414   5.728957   4.300637   4.776730
    25  O    2.391075   3.460924   5.937300   5.059935   5.042530
    26  H    3.240219   4.259436   6.687812   5.365812   5.472754
    27  O    3.081509   2.733409   4.066394   2.573587   3.143798
    28  H    2.624304   2.025546   3.115941   2.154584   2.514822
    29  O    1.377084   2.272685   3.666433   3.354862   2.728943
    30  H    1.098485   2.079322   4.327151   4.771002   4.394028
                    6          7          8          9         10
     6  H    0.000000
     7  O    1.803834   0.000000
     8  H    2.040666   0.972649   0.000000
     9  C    4.942829   5.115685   4.888236   0.000000
    10  C    4.246364   3.937204   3.677830   1.561071   0.000000
    11  H    5.389712   5.550664   5.496858   1.096024   2.183120
    12  H    5.063774   4.521357   4.117954   2.171453   1.102078
    13  O    6.165341   6.270899   5.901747   1.417283   2.483621
    14  H    6.102830   6.302868   5.808510   1.943400   2.807882
    15  C    4.347602   3.750910   3.848337   2.551400   1.531656
    16  O    4.104870   2.969159   3.187890   3.830931   2.482154
    17  H    4.005162   3.746240   4.030110   2.698544   2.156905
    18  H    5.439481   4.789957   4.887589   2.839967   2.155732
    19  H    4.671303   3.354909   3.363284   4.127750   2.648397
    20  H    2.136154   3.022665   2.451879   4.360196   3.850242
    21  C    4.089981   4.823189   4.323832   2.530677   2.944037
    22  H    3.879238   4.968205   4.507679   3.473117   3.869172
    23  C    4.271955   4.975036   4.738873   1.544628   2.515710
    24  H    5.165468   6.016923   5.803431   2.162309   3.469745
    25  O    5.460667   6.044952   5.431220   3.025447   3.639982
    26  H    6.002786   6.777958   6.219341   3.484617   4.375514
    27  O    3.372840   4.310141   4.323322   2.454136   2.951096
    28  H    2.548656   3.340430   3.367249   2.627311   2.560491
    29  O    2.928422   3.337733   2.549738   4.205404   3.592029
    30  H    4.454616   4.423401   3.643091   3.209217   2.681676
                   11         12         13         14         15
    11  H    0.000000
    12  H    2.845680   0.000000
    13  O    2.015757   2.469796   0.000000
    14  H    2.800384   2.707965   0.976721   0.000000
    15  C    2.514975   2.180260   3.621472   4.178611   0.000000
    16  O    3.927652   2.867751   4.852702   5.275288   1.425405
    17  H    2.416435   3.071916   3.987110   4.566029   1.093967
    18  H    2.530258   2.453685   3.627933   4.357371   1.099694
    19  H    4.356932   2.645104   4.924144   5.285470   1.963668
    20  H    5.166896   4.422312   5.227307   4.851840   4.674329
    21  C    3.470468   3.452556   3.013227   2.518433   4.242186
    22  H    4.289768   4.470087   4.039544   3.536436   5.019955
    23  C    2.155327   3.306867   2.459410   2.478427   3.495488
    24  H    2.484439   4.170287   2.669135   2.688217   4.379197
    25  O    4.011262   3.778538   2.797225   1.948213   5.105027
    26  H    4.326572   4.597645   3.183947   2.404440   5.770589
    27  O    2.654824   3.982085   3.699470   3.854281   3.394215
    28  H    2.966409   3.607693   3.947539   4.068905   2.918042
    29  O    5.138098   3.932981   4.864755   4.392837   4.620889
    30  H    4.278461   2.548219   3.378633   2.814833   4.090529
                   16         17         18         19         20
    16  O    0.000000
    17  H    2.011963   0.000000
    18  H    2.092505   1.771782   0.000000
    19  H    0.970778   2.826904   2.381246   0.000000
    20  H    4.744213   4.648747   5.708404   5.022925   0.000000
    21  C    5.033830   4.275258   4.964397   5.285281   2.621367
    22  H    5.705774   4.888228   5.830772   6.040033   2.353472
    23  C    4.583016   3.291797   4.081705   5.019226   3.532979
    24  H    5.569089   4.089212   4.808587   6.021529   4.395864
    25  O    5.975140   5.316841   5.631696   6.057242   3.762083
    26  H    6.738615   5.858400   6.253077   6.892994   4.359229
    27  O    4.295222   2.806382   4.150274   4.954376   3.333050
    28  H    3.567901   2.421288   3.849626   4.224784   2.713239
    29  O    4.693413   4.817327   5.586207   4.788218   0.993007
    30  H    4.476348   4.614703   4.773475   4.329386   2.836437
                   21         22         23         24         25
    21  C    0.000000
    22  H    1.096796   0.000000
    23  C    1.544078   2.166783   0.000000
    24  H    2.173189   2.561115   1.095705   0.000000
    25  O    1.438049   2.090267   2.465302   2.667762   0.000000
    26  H    1.971328   2.284614   2.713625   2.521235   0.970864
    27  O    2.438472   2.594909   1.425308   2.030483   3.698323
    28  H    2.513334   2.720332   1.920258   2.811548   3.884764
    29  O    2.468631   2.495653   3.609478   4.503897   3.332847
    30  H    2.172339   2.932323   3.216933   4.056326   2.333484
                   26         27         28         29         30
    26  H    0.000000
    27  O    3.924807   0.000000
    28  H    4.311948   0.975039   0.000000
    29  O    4.072604   3.761688   3.161453   0.000000
    30  H    3.295543   4.014242   3.619403   2.006862   0.000000
 Symmetry turned off by external request.
 Stoichiometry    C6H16O8
 Framework group  C1[X(C6H16O8)]
 Deg. of freedom    84
 Full point group                 C1      NOp   1
 Rotational constants (GHZ):      0.7537941      0.5795437      0.4279698
 Standard basis: 6-31G(d) (6D, 7F)
   242 basis functions,   456 primitive gaussians,   242 cartesian basis functions
    58 alpha electrons       58 beta electrons
       nuclear repulsion energy      1136.2621180115 Hartrees.
 NAtoms=   30 NActive=   30 NUniq=   30 SFac= 1.00D+00 NAtFMM=   60 NAOKFM=F Big=F
 Integral buffers will be    131072 words long.
 Raffenetti 2 integral format.
 Two-electron integral symmetry is turned off.
 One-electron integrals computed using PRISM.
 NBasis=   242 RedAO= T EigKep=  1.67D-03  NBF=   242
 NBsUse=   242 1.00D-06 EigRej= -1.00D+00 NBFU=   242
 Initial guess from the checkpoint file:  "/scratch/10502107.yak.local/Gau-6507.chk"
 B after Tr=     0.017876    0.012378    0.016029
         Rot=    1.000000    0.000034    0.000019    0.000007 Ang=   0.00 deg.
 ExpMin= 1.61D-01 ExpMax= 5.48D+03 ExpMxC= 8.25D+02 IAcc=1 IRadAn=         1 AccDes= 0.00D+00
 Harris functional with IExCor=  402 and IRadAn=       1 diagonalized for initial guess.
 HarFok:  IExCor=  402 AccDes= 0.00D+00 IRadAn=         1 IDoV= 1 UseB2=F ITyADJ=14
 ICtDFT=  3500011 ScaDFX=  1.000000  1.000000  1.000000  1.000000
 FoFCou: FMM=F IPFlag=           0 FMFlag=      100000 FMFlg1=           0
         NFxFlg=           0 DoJE=T BraDBF=F KetDBF=T FulRan=T
         wScrn=  0.000000 ICntrl=     500 IOpCl=  0 I1Cent=   200000004 NGrid=           0
         NMat0=    1 NMatS0=      1 NMatT0=    0 NMatD0=    1 NMtDS0=    0 NMtDT0=    0
 Symmetry not used in FoFCou.
 Requested convergence on RMS density matrix=1.00D-08 within 128 cycles.
 Requested convergence on MAX density matrix=1.00D-06.
 Requested convergence on             energy=1.00D-06.
 No special actions if energy rises.
 Integral accuracy reduced to 1.0D-05 until final iterations.
 Initial convergence to 1.0D-05 achieved.  Increase integral accuracy.
 SCF Done:  E(RB3LYP) =  -840.000020582     A.U. after   11 cycles
            NFock= 11  Conv=0.28D-08     -V/T= 2.0086
 DoSCS=F DFT=T ScalE2(SS,OS)=  1.000000  1.000000
 Range of M.O.s used for correlation:     1   242
 NBasis=   242 NAE=    58 NBE=    58 NFC=     0 NFV=     0
 NROrb=    242 NOA=    58 NOB=    58 NVA=   184 NVB=   184
 Symmetrizing basis deriv contribution to polar:
 IMax=3 JMax=2 DiffMx= 0.00D+00
 Calling FoFJK, ICntrl=      2147 FMM=F ISym2X=0 I1Cent= 0 IOpClX= 0 NMat=1 NMatS=1 NMatT=0.
 -------------------------------------------------------------------
 Center     Atomic                   Forces (Hartrees/Bohr)
 Number     Number              X              Y              Z
 -------------------------------------------------------------------
      1        6           0.000005586    0.000005057    0.000008127
      2        8           0.000007235    0.000010522   -0.000000547
      3        1          -0.000010381   -0.000022898   -0.000001535
      4        1           0.000330538   -0.000187714   -0.000763314
      5        8          -0.000408062    0.000115902    0.000799415
      6        1           0.000000437    0.000000371    0.000011902
      7        8          -0.000016004   -0.000009530    0.000027376
      8        1           0.000007587    0.000003068    0.000042051
      9        6          -0.000006210    0.000008830   -0.000012870
     10        6          -0.000005757    0.000009419   -0.000023877
     11        1          -0.000001925    0.000005619   -0.000008451
     12        1           0.000004397   -0.000003638   -0.000003355
     13        8          -0.000003987   -0.000004880   -0.000012804
     14        1           0.000000602   -0.000004626   -0.000008972
     15        6          -0.000007573    0.000025683   -0.000026530
     16        8          -0.000007289    0.000005081   -0.000008784
     17        1          -0.000003940    0.000009730   -0.000008986
     18        1           0.000004100   -0.000003020   -0.000013388
     19        1           0.000005883   -0.000005617   -0.000011486
     20        1           0.000006859   -0.000016088   -0.000002441
     21        6           0.000010980    0.000007894    0.000010561
     22        1          -0.000002210    0.000000537    0.000004648
     23        6           0.000004113    0.000003520   -0.000002562
     24        1          -0.000001992    0.000006899   -0.000002846
     25        8           0.000007331   -0.000008430    0.000005185
     26        1           0.000002551    0.000001499   -0.000002219
     27        8           0.000187636    0.000052026   -0.000137584
     28        1          -0.000140576   -0.000003110    0.000117936
     29        8           0.000027440    0.000003594    0.000026588
     30        1           0.000002632   -0.000005697   -0.000001236
 -------------------------------------------------------------------
 Cartesian Forces:  Max     0.000799415 RMS     0.000135264
 IRC-IRC-IRC-IRC-IRC-IRC-IRC-IRC-IRC-IRC-IRC-IRC-IRC-IRC-IRC-IRC-IRC-IRC
 Pt  1 Step number   1 out of a maximum of  20
 Modified Bulirsch-Stoer Extrapolation Cycles:
    EPS =    0.000010000000000
 Maximum DWI energy   std dev =  0.000000804 at pt     2
 Maximum DWI gradient std dev =  1.956148191 at pt   155
 CORRECTOR INTEGRATION CONVERGENCE:
   Recorrection delta-x convergence threshold:    0.010000
   Delta-x Convergence NOT Met
 IRC-IRC-IRC-IRC-IRC-IRC-IRC-IRC-IRC-IRC-IRC-IRC-IRC-IRC-IRC-IRC-IRC-IRC
                          Input orientation:                          
 ---------------------------------------------------------------------
 Center     Atomic      Atomic             Coordinates (Angstroms)
 Number     Number       Type             X           Y           Z
 ---------------------------------------------------------------------
      1          6           0       -0.250719   -0.929318   -1.046338
      2          8           0        0.503992    0.203442   -0.570015
      3          1           0        2.969860    0.662032   -0.186178
      4          1           0        1.649012   -2.009465    1.921395
      5          8           0        2.025039   -2.218505    1.053579
      6          1           0        2.633837   -1.474546    0.811266
      7          8           0        3.335461   -0.239489   -0.300266
      8          1           0        2.782192   -0.588457   -1.020071
      9          6           0       -1.509853    1.199774    0.485393
     10          6           0       -0.235266    1.416423   -0.389429
     11          1           0       -1.515187    1.929740    1.302937
     12          1           0       -0.557458    1.794483   -1.373227
     13          8           0       -2.713913    1.410113   -0.232070
     14          1           0       -2.897153    0.591274   -0.731985
     15          6           0        0.732561    2.398603    0.277344
     16          8           0        2.030485    2.427126   -0.311208
     17          1           0        0.894736    2.098038    1.316616
     18          1           0        0.275971    3.398999    0.285093
     19          1           0        1.939587    2.658398   -1.249661
     20          1           0        1.048249   -2.213768   -0.416795
     21          6           0       -1.366032   -1.276172   -0.017618
     22          1           0       -1.146472   -2.253732    0.428641
     23          6           0       -1.437344   -0.214774    1.101550
     24          1           0       -2.333525   -0.380475    1.709828
     25          8           0       -2.591103   -1.332443   -0.768644
     26          1           0       -3.276962   -1.723245   -0.203453
     27          8           0       -0.321369   -0.343333    1.978640
     28          1           0        0.458958   -0.286096    1.397259
     29          8           0        0.643166   -1.949676   -1.283927
     30          1           0       -0.724862   -0.669188   -2.002474
 ---------------------------------------------------------------------
                    Distance matrix (angstroms):
                    1          2          3          4          5
     1  C    0.000000
     2  O    1.442088   0.000000
     3  H    3.693833   2.537349   0.000000
     4  H    3.685531   3.523514   3.650123   0.000000
     5  O    3.354211   3.288688   3.275237   0.968607   0.000000
     6  H    3.473994   3.042995   2.381759   1.577467   0.991375
     7  O    3.727355   2.878571   0.979500   3.303438   2.732509
     8  H    3.052119   2.453539   1.514701   3.457685   2.744150
     9  C    2.909407   2.482365   4.561579   4.726494   4.950043
    10  C    2.436035   1.431934   3.298977   4.541709   4.517073
    11  H    3.910522   3.250406   4.892872   5.090381   5.459241
    12  H    2.760441   2.074425   3.890180   5.494822   5.353761
    13  O    3.493321   3.453284   5.732975   5.946935   6.105524
    14  H    3.068327   3.427016   5.892772   5.871276   5.942312
    15  C    3.714031   2.364105   2.869850   4.793104   4.857028
    16  O    4.124321   2.709600   2.003401   4.981303   4.841958
    17  H    4.007556   2.702138   2.937115   4.219748   4.469823
    18  H    4.558995   3.315839   3.869124   5.814998   5.933477
    19  H    4.208383   2.923980   2.485545   5.650572   5.394107
    20  H    1.932215   2.482458   3.466411   2.422765   1.765260
    21  C    1.556437   2.447732   4.752369   3.658958   3.678969
    22  H    2.175318   3.123948   5.081720   3.178476   3.232688
    23  C    2.555792   2.595731   4.674450   3.663148   4.000667
    24  H    3.497965   3.686482   5.727788   4.308012   4.775573
    25  O    2.391029   3.460926   5.936456   5.066877   5.041267
    26  H    3.240204   4.259355   6.686750   5.372348   5.471437
    27  O    3.082023   2.734196   4.065635   2.581021   3.142871
    28  H    2.624604   2.027768   3.116224   2.158922   2.510962
    29  O    1.377175   2.272654   3.666003   3.359968   2.728695
    30  H    1.098488   2.079304   4.326899   4.777904   4.393381
                    6          7          8          9         10
     6  H    0.000000
     7  O    1.803648   0.000000
     8  H    2.039843   0.972627   0.000000
     9  C    4.942504   5.115253   4.887315   0.000000
    10  C    4.246307   3.937015   3.677269   1.561033   0.000000
    11  H    5.389369   5.550189   5.495921   1.096019   2.183070
    12  H    5.063884   4.521406   4.117813   2.171452   1.102087
    13  O    6.165082   6.270627   5.901051   1.417306   2.483645
    14  H    6.102547   6.302541   5.807730   1.943420   2.807821
    15  C    4.347552   3.750767   3.847961   2.551254   1.531650
    16  O    4.104513   2.968825   3.187678   3.830791   2.482190
    17  H    4.005398   3.746396   4.029870   2.698121   2.156871
    18  H    5.439469   4.789751   4.887167   2.840049   2.155678
    19  H    4.670185   3.353739   3.362256   4.127545   2.648109
    20  H    2.137445   3.023689   2.451966   4.360057   3.850513
    21  C    4.089664   4.822721   4.322688   2.530616   2.943968
    22  H    3.878694   4.967515   4.506252   3.473034   3.869053
    23  C    4.271511   4.974472   4.737658   1.544621   2.515714
    24  H    5.165180   6.016457   5.802256   2.162143   3.469642
    25  O    5.460431   6.044674   5.430381   3.025530   3.640060
    26  H    6.002420   6.777539   6.218356   3.484426   4.375388
    27  O    3.372780   4.310059   4.322551   2.454275   2.951595
    28  H    2.546743   3.340365   3.366352   2.629739   2.563742
    29  O    2.928882   3.337780   2.549111   4.205356   3.591990
    30  H    4.454952   4.423616   3.642947   3.209161   2.681677
                   11         12         13         14         15
    11  H    0.000000
    12  H    2.845592   0.000000
    13  O    2.015739   2.469874   0.000000
    14  H    2.800398   2.707966   0.976724   0.000000
    15  C    2.514765   2.180251   3.621435   4.178517   0.000000
    16  O    3.927422   2.868026   4.852823   5.275322   1.425417
    17  H    2.415831   3.071851   3.986730   4.565690   1.093949
    18  H    2.530410   2.453385   3.628020   4.357348   1.099694
    19  H    4.356852   2.645156   4.924303   5.285361   1.963708
    20  H    5.166947   4.422571   5.226902   4.851165   4.674982
    21  C    3.470445   3.452593   3.013122   2.518334   4.242059
    22  H    4.289730   4.470091   4.039452   3.536381   5.019748
    23  C    2.155356   3.306938   2.459356   2.478428   3.495360
    24  H    2.484418   4.170142   2.668683   2.687828   4.379060
    25  O    4.011344   3.778743   2.797250   1.948255   5.105050
    26  H    4.326357   4.597661   3.183674   2.404287   5.770361
    27  O    2.654928   3.982589   3.699471   3.854302   3.394612
    28  H    2.969188   3.610749   3.949551   4.070251   2.921759
    29  O    5.138114   3.932963   4.864624   4.392599   4.620940
    30  H    4.278409   2.548265   3.378483   2.814562   4.090599
                   16         17         18         19         20
    16  O    0.000000
    17  H    2.011973   0.000000
    18  H    2.092470   1.771837   0.000000
    19  H    0.970795   2.826923   2.381507   0.000000
    20  H    4.744875   4.649727   5.708959   5.022565   0.000000
    21  C    5.033582   4.275108   4.964376   5.284495   2.620530
    22  H    5.705337   4.888040   5.830721   6.038996   2.352267
    23  C    4.582725   3.291497   4.081839   5.018663   3.532636
    24  H    5.568824   4.088926   4.808717   6.021030   4.395439
    25  O    5.975172   5.316727   5.631786   6.056842   3.761039
    26  H    6.738411   5.857976   6.252950   6.892440   4.358162
    27  O    4.295355   2.806686   4.150900   4.954214   3.333540
    28  H    3.570733   2.424975   3.853611   4.227114   2.711822
    29  O    4.693318   4.817686   5.586141   4.787089   0.992852
    30  H    4.476548   4.614867   4.773340   4.328839   2.836200
                   21         22         23         24         25
    21  C    0.000000
    22  H    1.096802   0.000000
    23  C    1.544081   2.166739   0.000000
    24  H    2.173105   2.561177   1.095719   0.000000
    25  O    1.438056   2.090269   2.465353   2.667473   0.000000
    26  H    1.971310   2.284720   2.713431   2.520665   0.970860
    27  O    2.438556   2.594786   1.425207   2.030372   3.698324
    28  H    2.512512   2.717944   1.920545   2.811506   3.884437
    29  O    2.468607   2.495625   3.609557   4.503959   3.332715
    30  H    2.172368   2.932380   3.217000   4.056149   2.333473
                   26         27         28         29         30
    26  H    0.000000
    27  O    3.924439   0.000000
    28  H    4.311006   0.974777   0.000000
    29  O    4.072603   3.762314   3.160726   0.000000
    30  H    3.295561   4.014756   3.620273   2.006853   0.000000
 Symmetry turned off by external request.
 Stoichiometry    C6H16O8
 Framework group  C1[X(C6H16O8)]
 Deg. of freedom    84
 Full point group                 C1      NOp   1
 Rotational constants (GHZ):      0.7537946      0.5795805      0.4280265
 Standard basis: 6-31G(d) (6D, 7F)
   242 basis functions,   456 primitive gaussians,   242 cartesian basis functions
    58 alpha electrons       58 beta electrons
       nuclear repulsion energy      1136.2751950479 Hartrees.
 NAtoms=   30 NActive=   30 NUniq=   30 SFac= 1.00D+00 NAtFMM=   60 NAOKFM=F Big=F
 Integral buffers will be    131072 words long.
 Raffenetti 2 integral format.
 Two-electron integral symmetry is turned off.
 One-electron integrals computed using PRISM.
 NBasis=   242 RedAO= T EigKep=  1.67D-03  NBF=   242
 NBsUse=   242 1.00D-06 EigRej= -1.00D+00 NBFU=   242
 Initial guess from the checkpoint file:  "/scratch/10502107.yak.local/Gau-6507.chk"
 B after Tr=    -0.000035   -0.000017   -0.000007
         Rot=    1.000000    0.000250    0.000135    0.000066 Ang=   0.03 deg.
 ExpMin= 1.61D-01 ExpMax= 5.48D+03 ExpMxC= 8.25D+02 IAcc=1 IRadAn=         1 AccDes= 0.00D+00
 Harris functional with IExCor=  402 and IRadAn=       1 diagonalized for initial guess.
 HarFok:  IExCor=  402 AccDes= 0.00D+00 IRadAn=         1 IDoV= 1 UseB2=F ITyADJ=14
 ICtDFT=  3500011 ScaDFX=  1.000000  1.000000  1.000000  1.000000
 FoFCou: FMM=F IPFlag=           0 FMFlag=      100000 FMFlg1=           0
         NFxFlg=           0 DoJE=T BraDBF=F KetDBF=T FulRan=T
         wScrn=  0.000000 ICntrl=     500 IOpCl=  0 I1Cent=   200000004 NGrid=           0
         NMat0=    1 NMatS0=      1 NMatT0=    0 NMatD0=    1 NMtDS0=    0 NMtDT0=    0
 Symmetry not used in FoFCou.
 Requested convergence on RMS density matrix=1.00D-08 within 128 cycles.
 Requested convergence on MAX density matrix=1.00D-06.
 Requested convergence on             energy=1.00D-06.
 No special actions if energy rises.
 Integral accuracy reduced to 1.0D-05 until final iterations.
 Initial convergence to 1.0D-05 achieved.  Increase integral accuracy.
 SCF Done:  E(RB3LYP) =  -840.000021969     A.U. after    9 cycles
            NFock=  9  Conv=0.60D-08     -V/T= 2.0086
 DoSCS=F DFT=T ScalE2(SS,OS)=  1.000000  1.000000
 Range of M.O.s used for correlation:     1   242
 NBasis=   242 NAE=    58 NBE=    58 NFC=     0 NFV=     0
 NROrb=    242 NOA=    58 NOB=    58 NVA=   184 NVB=   184
 Symmetrizing basis deriv contribution to polar:
 IMax=3 JMax=2 DiffMx= 0.00D+00
 Calling FoFJK, ICntrl=      2147 FMM=F ISym2X=0 I1Cent= 0 IOpClX= 0 NMat=1 NMatS=1 NMatT=0.
 -------------------------------------------------------------------
 Center     Atomic                   Forces (Hartrees/Bohr)
 Number     Number              X              Y              Z
 -------------------------------------------------------------------
      1        6           0.000008983   -0.000003308    0.000005315
      2        8           0.000005404    0.000006957   -0.000001559
      3        1          -0.000000118   -0.000001986    0.000002133
      4        1          -0.000084021    0.000053199    0.000139904
      5        8           0.000044828   -0.000096153   -0.000099319
      6        1          -0.000004475    0.000001168    0.000008627
      7        8          -0.000014119   -0.000029316    0.000056635
      8        1          -0.000000208   -0.000002883    0.000003476
      9        6          -0.000001783    0.000008666   -0.000017727
     10        6          -0.000001155    0.000003604   -0.000019983
     11        1          -0.000000276    0.000002570   -0.000004676
     12        1           0.000002305   -0.000002003   -0.000002779
     13        8          -0.000003575   -0.000005393   -0.000023724
     14        1           0.000001223    0.000000223   -0.000003426
     15        6          -0.000006374    0.000020464   -0.000032493
     16        8           0.000000382   -0.000000791   -0.000024928
     17        1          -0.000001141    0.000002874   -0.000006241
     18        1           0.000002974   -0.000002684   -0.000005730
     19        1           0.000002881   -0.000005562    0.000003681
     20        1          -0.000003015    0.000000943    0.000005653
     21        6           0.000008134    0.000003416    0.000006713
     22        1          -0.000000820    0.000001432    0.000002339
     23        6           0.000005979    0.000016307   -0.000004296
     24        1          -0.000001903    0.000003843   -0.000001378
     25        8           0.000012937   -0.000007056    0.000007092
     26        1          -0.000001055    0.000000870    0.000000676
     27        8          -0.000009978    0.000031347    0.000010802
     28        1           0.000022616    0.000003969   -0.000019201
     29        8           0.000014214   -0.000002115    0.000014400
     30        1           0.000001157   -0.000002601    0.000000015
 -------------------------------------------------------------------
 Cartesian Forces:  Max     0.000139904 RMS     0.000026295
 IRC-IRC-IRC-IRC-IRC-IRC-IRC-IRC-IRC-IRC-IRC-IRC-IRC-IRC-IRC-IRC-IRC-IRC
 Error in corrector energy =          -0.0000002558
 Magnitude of corrector gradient =     0.0001218770
 Magnitude of analytic gradient =      0.0002494600
 Magnitude of difference =             0.0002387353
 Angle between gradients (degrees)=   70.7078
 Pt  1 Step number   2 out of a maximum of  20
 Modified Bulirsch-Stoer Extrapolation Cycles:
    EPS =    0.000010000000000
 Maximum DWI energy   std dev =  0.000000498 at pt     2
 Maximum DWI gradient std dev =  1.798564378 at pt   121
 CORRECTOR INTEGRATION CONVERGENCE:
   Recorrection delta-x convergence threshold:    0.010000
   Delta-x Convergence NOT Met
 IRC-IRC-IRC-IRC-IRC-IRC-IRC-IRC-IRC-IRC-IRC-IRC-IRC-IRC-IRC-IRC-IRC-IRC
                          Input orientation:                          
 ---------------------------------------------------------------------
 Center     Atomic      Atomic             Coordinates (Angstroms)
 Number     Number       Type             X           Y           Z
 ---------------------------------------------------------------------
      1          6           0       -0.250694   -0.929660   -1.046143
      2          8           0        0.504043    0.203145   -0.569892
      3          1           0        2.970093    0.662135   -0.186398
      4          1           0        1.647213   -2.007192    1.921046
      5          8           0        2.025539   -2.218218    1.054385
      6          1           0        2.634066   -1.474147    0.811722
      7          8           0        3.335676   -0.239419   -0.300281
      8          1           0        2.782365   -0.588609   -1.019940
      9          6           0       -1.509829    1.199890    0.485068
     10          6           0       -0.235062    1.416257   -0.389571
     11          1           0       -1.515200    1.929978    1.302500
     12          1           0       -0.557007    1.794272   -1.373463
     13          8           0       -2.713733    1.410306   -0.232616
     14          1           0       -2.896907    0.591499   -0.732610
     15          6           0        0.732819    2.398334    0.277271
     16          8           0        2.030743    2.426847   -0.311267
     17          1           0        0.894981    2.097686    1.316516
     18          1           0        0.276298    3.398749    0.285103
     19          1           0        1.939888    2.658233   -1.249689
     20          1           0        1.048525   -2.213686   -0.416062
     21          6           0       -1.366307   -1.276159   -0.017603
     22          1           0       -1.147021   -2.253696    0.428837
     23          6           0       -1.437664   -0.214602    1.101405
     24          1           0       -2.333951   -0.380061    1.709584
     25          8           0       -2.591229   -1.332308   -0.768870
     26          1           0       -3.277317   -1.722789   -0.203733
     27          8           0       -0.321777   -0.343266    1.978641
     28          1           0        0.458544   -0.285333    1.397245
     29          8           0        0.643171   -1.950119   -1.283278
     30          1           0       -0.724590   -0.669713   -2.002450
 ---------------------------------------------------------------------
                    Distance matrix (angstroms):
                    1          2          3          4          5
     1  C    0.000000
     2  O    1.442113   0.000000
     3  H    3.694109   2.537547   0.000000
     4  H    3.683387   3.520966   3.649197   0.000000
     5  O    3.354674   3.288803   3.275387   0.968899   0.000000
     6  H    3.474186   3.042887   2.381776   1.577535   0.991379
     7  O    3.727572   2.878662   0.979500   3.303062   2.732622
     8  H    3.052285   2.453603   1.514726   3.456927   2.744309
     9  C    2.909469   2.482362   4.561770   4.723803   4.950395
    10  C    2.436115   1.431933   3.298939   4.538933   4.517160
    11  H    3.910579   3.250407   4.893067   5.087707   5.459481
    12  H    2.760574   2.074425   3.889897   5.492131   5.353884
    13  O    3.493398   3.453270   5.733042   5.944359   6.106002
    14  H    3.068334   3.426917   5.892795   5.868911   5.942924
    15  C    3.714063   2.364081   2.869629   4.790279   4.856706
    16  O    4.124456   2.709714   2.003043   4.979058   4.841660
    17  H    4.007437   2.701972   2.936945   4.216791   4.469217
    18  H    4.559064   3.315836   3.868837   5.812049   5.933124
    19  H    4.208688   2.924249   2.485220   5.648487   5.394059
    20  H    1.932277   2.482176   3.466341   2.421392   1.765444
    21  C    1.556454   2.447768   4.752877   3.657058   3.679845
    22  H    2.175325   3.124026   5.082442   3.177294   3.233838
    23  C    2.555810   2.595760   4.674978   3.660827   4.001308
    24  H    3.498007   3.686509   5.728334   4.306035   4.776324
    25  O    2.391048   3.460913   5.936782   5.065127   5.042187
    26  H    3.240240   4.259339   6.687173   5.370900   5.472531
    27  O    3.081920   2.734147   4.066280   2.578543   3.143181
    28  H    2.624561   2.027389   3.116648   2.156873   2.511787
    29  O    1.377158   2.272624   3.666277   3.358430   2.729009
    30  H    1.098487   2.079337   4.326956   4.775785   4.393782
                    6          7          8          9         10
     6  H    0.000000
     7  O    1.803707   0.000000
     8  H    2.039890   0.972623   0.000000
     9  C    4.942574   5.115398   4.887402   0.000000
    10  C    4.246108   3.936928   3.677189   1.561037   0.000000
    11  H    5.389373   5.550332   5.496005   1.096017   2.183064
    12  H    5.063650   4.521128   4.117585   2.171473   1.102084
    13  O    6.165198   6.270687   5.901070   1.417297   2.483642
    14  H    6.102747   6.302573   5.807697   1.943416   2.807725
    15  C    4.347009   3.750489   3.847756   2.551258   1.531649
    16  O    4.104005   2.968492   3.187496   3.830825   2.482196
    17  H    4.004650   3.746075   4.029569   2.698232   2.156867
    18  H    5.438889   4.789440   4.886976   2.839933   2.155679
    19  H    4.669889   3.353504   3.362222   4.127553   2.648154
    20  H    2.137361   3.023606   2.451886   4.360012   3.850296
    21  C    4.090228   4.823212   4.323063   2.530631   2.944007
    22  H    3.879551   4.968249   4.506833   3.473045   3.869110
    23  C    4.271926   4.974948   4.737998   1.544624   2.515742
    24  H    5.165692   6.016976   5.802627   2.162143   3.469660
    25  O    5.460961   6.045013   5.430620   3.025527   3.640055
    26  H    6.003117   6.778006   6.218705   3.484323   4.375323
    27  O    3.373070   4.310594   4.322889   2.454294   2.951587
    28  H    2.547354   3.340896   3.366734   2.629153   2.563046
    29  O    2.929034   3.338018   2.549354   4.205355   3.592004
    30  H    4.455025   4.423606   3.642888   3.209324   2.681844
                   11         12         13         14         15
    11  H    0.000000
    12  H    2.845581   0.000000
    13  O    2.015719   2.469904   0.000000
    14  H    2.800413   2.707856   0.976725   0.000000
    15  C    2.514765   2.180244   3.621451   4.178448   0.000000
    16  O    3.927447   2.867902   4.852792   5.275203   1.425411
    17  H    2.416050   3.071859   3.986868   4.565735   1.093946
    18  H    2.530189   2.453485   3.627978   4.357250   1.099683
    19  H    4.356795   2.645040   4.924221   5.285201   1.963713
    20  H    5.166826   4.422452   5.227002   4.851361   4.674517
    21  C    3.470469   3.452661   3.013118   2.518356   4.242072
    22  H    4.289751   4.470173   4.039432   3.536410   5.019776
[...]
 Alpha  occ. eigenvalues --  -10.25718 -10.25696 -10.25441 -10.25035  -1.08775
 Alpha  occ. eigenvalues --   -1.05573  -1.04808  -1.03761  -1.02261  -1.01292
 Alpha  occ. eigenvalues --   -1.00442  -0.99183  -0.78945  -0.77688  -0.70354
 Alpha  occ. eigenvalues --   -0.66093  -0.64653  -0.59959  -0.56274  -0.55272
 Alpha  occ. eigenvalues --   -0.54283  -0.52997  -0.52512  -0.51333  -0.50444
 Alpha  occ. eigenvalues --   -0.48023  -0.46861  -0.45809  -0.45598  -0.43685
 Alpha  occ. eigenvalues --   -0.41474  -0.41342  -0.40031  -0.39605  -0.39112
 Alpha  occ. eigenvalues --   -0.38295  -0.36714  -0.35963  -0.35108  -0.33970
 Alpha  occ. eigenvalues --   -0.32105  -0.31628  -0.30691  -0.29800  -0.29435
 Alpha  occ. eigenvalues --   -0.28764  -0.27040  -0.25819
 Alpha virt. eigenvalues --    0.03165   0.04425   0.06332   0.08465   0.10018
 Alpha virt. eigenvalues --    0.10674   0.11027   0.11887   0.12604   0.13034
 Alpha virt. eigenvalues --    0.14540   0.14795   0.15866   0.16643   0.18407
 Alpha virt. eigenvalues --    0.19695   0.20291   0.20982   0.21909   0.22177
 Alpha virt. eigenvalues --    0.22875   0.24761   0.25479   0.26128   0.29720
 Alpha virt. eigenvalues --    0.31135   0.32549   0.34056   0.50940   0.52773
 Alpha virt. eigenvalues --    0.53518   0.54800   0.56459   0.56885   0.57266
 Alpha virt. eigenvalues --    0.59901   0.60278   0.61728   0.64600   0.65323
 Alpha virt. eigenvalues --    0.66918   0.69071   0.72371   0.74152   0.74699
 Alpha virt. eigenvalues --    0.76319   0.77169   0.78566   0.79221   0.80756
 Alpha virt. eigenvalues --    0.81040   0.81557   0.82400   0.82622   0.83956
 Alpha virt. eigenvalues --    0.85120   0.86045   0.86583   0.87899   0.88923
 Alpha virt. eigenvalues --    0.89569   0.90895   0.91755   0.93762   0.95192
 Alpha virt. eigenvalues --    0.96541   0.97568   0.98276   1.00240   1.01424
 Alpha virt. eigenvalues --    1.03682   1.04396   1.04909   1.05661   1.08214
 Alpha virt. eigenvalues --    1.09250   1.11132   1.13149   1.14714   1.17341
 Alpha virt. eigenvalues --    1.17972   1.20006   1.21112   1.24282   1.26203
 Alpha virt. eigenvalues --    1.27178   1.28689   1.29538   1.31787   1.35510
 Alpha virt. eigenvalues --    1.37461   1.40986   1.45984   1.47376   1.49078
 Alpha virt. eigenvalues --    1.50833   1.51882   1.54729   1.58235   1.58833
 Alpha virt. eigenvalues --    1.61724   1.63241   1.64885   1.67593   1.69645
 Alpha virt. eigenvalues --    1.70022   1.71623   1.72508   1.73521   1.73834
 Alpha virt. eigenvalues --    1.74122   1.75120   1.76280   1.78311   1.78809
 Alpha virt. eigenvalues --    1.80582   1.81563   1.83344   1.84689   1.85053
 Alpha virt. eigenvalues --    1.86805   1.88221   1.89280   1.91274   1.96402
 Alpha virt. eigenvalues --    1.97699   1.98503   2.01284   2.03501   2.04158
 Alpha virt. eigenvalues --    2.07148   2.07963   2.11077   2.12300   2.14266
 Alpha virt. eigenvalues --    2.16834   2.18543   2.21209   2.24285   2.27789
 Alpha virt. eigenvalues --    2.28621   2.31155   2.33939   2.34908   2.36622
 Alpha virt. eigenvalues --    2.41348   2.41687   2.44596   2.45555   2.48487
 Alpha virt. eigenvalues --    2.50893   2.51576   2.54868   2.57190   2.58010
 Alpha virt. eigenvalues --    2.59301   2.61053   2.61883   2.64323   2.68719
 Alpha virt. eigenvalues --    2.70498   2.75139   2.80781   2.84812   2.89255
 Alpha virt. eigenvalues --    2.91232   2.95847   2.98517   3.01423   3.04797
 Alpha virt. eigenvalues --    3.70584   3.74287   3.76635   3.85479   3.88456
 Alpha virt. eigenvalues --    3.95931   4.07938   4.11574   4.24935   4.37956
 Alpha virt. eigenvalues --    4.44621   4.57576   4.73422   4.79053
          Condensed to atoms (all electrons):
               1          2          3          4          5          6
     1  C    4.657976   0.169851   0.000037  -0.000042   0.003115  -0.000270
     2  O    0.169851   8.414898   0.004290  -0.000284  -0.001093   0.000659
     3  H    0.000037   0.004290   0.320965  -0.000079   0.001110  -0.002500
     4  H   -0.000042  -0.000284  -0.000079   0.364883   0.234936  -0.010592
     5  O    0.003115  -0.001093   0.001110   0.234936   8.357782   0.194182
     6  H   -0.000270   0.000659  -0.002500  -0.010592   0.194182   0.321627
     7  O   -0.000410  -0.002714   0.228565   0.000818  -0.027177   0.076918
     8  H    0.000550   0.006712  -0.022113  -0.000023   0.003926  -0.009623
     9  C   -0.019893  -0.036792   0.000013   0.000084   0.000027  -0.000006
    10  C   -0.009356   0.176812  -0.001363  -0.000019  -0.000073  -0.000035
    11  H    0.000291   0.003441   0.000001  -0.000002   0.000000  -0.000000
    12  H   -0.004245  -0.040813  -0.000025  -0.000000  -0.000002   0.000002
    13  O    0.000433   0.001161  -0.000000  -0.000000   0.000000   0.000000
    14  H   -0.001172   0.000232  -0.000000   0.000000  -0.000000   0.000000
    15  C    0.003173  -0.044582  -0.003831   0.000015  -0.000003   0.000044
    16  O    0.000065  -0.000470   0.048925   0.000000  -0.000001   0.000002
    17  H   -0.000191  -0.002430  -0.001244  -0.000045  -0.000032   0.000034
    18  H   -0.000050   0.003306   0.000465  -0.000000  -0.000000   0.000001
    19  H   -0.000087   0.000550  -0.002898   0.000000   0.000000  -0.000005
    20  H   -0.022749   0.002084  -0.000039  -0.004485   0.072429  -0.005914
    21  C    0.279433  -0.049644  -0.000017   0.000105   0.000402  -0.000081
    22  H   -0.041460   0.003000  -0.000001   0.000665   0.000859  -0.000048
    23  C   -0.040662   0.009151   0.000027  -0.000409  -0.000796   0.000051
    24  H    0.004518   0.000110   0.000000  -0.000035  -0.000009   0.000000
    25  O   -0.029853   0.000949  -0.000000   0.000001   0.000002  -0.000000
    26  H    0.005868  -0.000154   0.000000  -0.000000  -0.000000   0.000000
    27  O    0.004026  -0.019726  -0.000007   0.010642  -0.004468  -0.000020
    28  H    0.003389   0.035022   0.000381   0.000011   0.018402   0.001171
    29  O    0.313738  -0.058095  -0.000107   0.001403  -0.027062   0.002973
    30  H    0.377199  -0.041635   0.000020   0.000007  -0.000045   0.000020
               7          8          9         10         11         12
     1  C   -0.000410   0.000550  -0.019893  -0.009356   0.000291  -0.004245
     2  O   -0.002714   0.006712  -0.036792   0.176812   0.003441  -0.040813
     3  H    0.228565  -0.022113   0.000013  -0.001363   0.000001  -0.000025
     4  H    0.000818  -0.000023   0.000084  -0.000019  -0.000002  -0.000000
     5  O   -0.027177   0.003926   0.000027  -0.000073   0.000000  -0.000002
     6  H    0.076918  -0.009623  -0.000006  -0.000035  -0.000000   0.000002
     7  O    8.320860   0.232371  -0.000007  -0.000133  -0.000000  -0.000001
     8  H    0.232371   0.370399   0.000025   0.000394  -0.000001  -0.000032
     9  C   -0.000007   0.000025   5.029955   0.252699   0.376756  -0.057299
    10  C   -0.000133   0.000394   0.252699   5.091505  -0.068261   0.350880
    11  H   -0.000000  -0.000001   0.376756  -0.068261   0.597952   0.004374
    12  H   -0.000001  -0.000032  -0.057299   0.350880   0.004374   0.622184
    13  O    0.000000  -0.000000   0.237387  -0.041044  -0.041835   0.005377
    14  H   -0.000000  -0.000000  -0.031036  -0.002097   0.005796   0.001124
    15  C    0.001342  -0.000415  -0.015398   0.322325  -0.001227  -0.037433
    16  O   -0.011439   0.000766   0.002480  -0.034885   0.000110  -0.002246
    17  H    0.000256  -0.000021  -0.006768  -0.036209   0.003551   0.005233
    18  H   -0.000020   0.000004   0.000897  -0.045656   0.003142  -0.002645
    19  H    0.000955   0.000178   0.000086  -0.002675   0.000008   0.003751
    20  H    0.001926  -0.001652   0.000018  -0.000174  -0.000002   0.000019
    21  C   -0.000027   0.000390  -0.016183  -0.024855   0.005632  -0.001830
    22  H    0.000003  -0.000023   0.005739   0.000087  -0.000175   0.000033
    23  C   -0.000001  -0.000033   0.287264  -0.029848  -0.036785   0.004587
    24  H   -0.000000   0.000001  -0.050783   0.006595  -0.006544  -0.000202
    25  O    0.000000  -0.000001   0.000269   0.000402  -0.000191  -0.000005
    26  H   -0.000000   0.000000  -0.000702   0.000031  -0.000010  -0.000015
    27  O   -0.000043   0.000003  -0.038322   0.007713   0.001793  -0.000205
    28  H    0.000991  -0.000018  -0.009978  -0.001514  -0.000047   0.000659
    29  O   -0.002289   0.017196   0.000081   0.003095   0.000004  -0.000046
    30  H   -0.000005  -0.000220  -0.001540  -0.005481   0.000055   0.009729
              13         14         15         16         17         18
     1  C    0.000433  -0.001172   0.003173   0.000065  -0.000191  -0.000050
     2  O    0.001161   0.000232  -0.044582  -0.000470  -0.002430   0.003306
     3  H   -0.000000  -0.000000  -0.003831   0.048925  -0.001244   0.000465
     4  H   -0.000000   0.000000   0.000015   0.000000  -0.000045  -0.000000
     5  O    0.000000  -0.000000  -0.000003  -0.000001  -0.000032  -0.000000
     6  H    0.000000   0.000000   0.000044   0.000002   0.000034   0.000001
     7  O    0.000000  -0.000000   0.001342  -0.011439   0.000256  -0.000020
     8  H   -0.000000  -0.000000  -0.000415   0.000766  -0.000021   0.000004
     9  C    0.237387  -0.031036  -0.015398   0.002480  -0.006768   0.000897
    10  C   -0.041044  -0.002097   0.322325  -0.034885  -0.036209  -0.045656
    11  H   -0.041835   0.005796  -0.001227   0.000110   0.003551   0.003142
    12  H    0.005377   0.001124  -0.037433  -0.002246   0.005233  -0.002645
    13  O    8.299918   0.225029   0.001998  -0.000009   0.000070  -0.000045
    14  H    0.225029   0.353442  -0.000005   0.000001   0.000001   0.000004
    15  C    0.001998  -0.000005   4.910131   0.235639   0.369396   0.358907
    16  O   -0.000009   0.000001   0.235639   8.207138  -0.038445  -0.030900
    17  H    0.000070   0.000001   0.369396  -0.038445   0.557294  -0.035452
    18  H   -0.000045   0.000004   0.358907  -0.030900  -0.035452   0.600304
    19  H   -0.000001  -0.000000  -0.028786   0.235002   0.006697  -0.004534
    20  H   -0.000000   0.000003   0.000023  -0.000003  -0.000005   0.000000
    21  C    0.002406  -0.004207   0.000154  -0.000022   0.000191  -0.000028
    22  H   -0.000180   0.000773   0.000019  -0.000000  -0.000005  -0.000000
    23  C   -0.026909  -0.011485  -0.002620   0.000003  -0.000040   0.000363
    24  H    0.004750  -0.000548  -0.000113   0.000001  -0.000071   0.000011
    25  O   -0.017201   0.052001  -0.000005   0.000000  -0.000002  -0.000000
    26  H    0.001514  -0.002613  -0.000001   0.000000  -0.000000   0.000000
    27  O    0.001534   0.000060  -0.003422   0.000009   0.007422   0.000073
    28  H    0.000024   0.000040   0.000350  -0.000080   0.002130   0.000043
    29  O    0.000002   0.000010  -0.000147   0.000001   0.000002   0.000001
    30  H    0.000400   0.001491  -0.000002  -0.000023   0.000013   0.000018
              19         20         21         22         23         24
     1  C   -0.000087  -0.022749   0.279433  -0.041460  -0.040662   0.004518
     2  O    0.000550   0.002084  -0.049644   0.003000   0.009151   0.000110
     3  H   -0.002898  -0.000039  -0.000017  -0.000001   0.000027   0.000000
     4  H    0.000000  -0.004485   0.000105   0.000665  -0.000409  -0.000035
     5  O    0.000000   0.072429   0.000402   0.000859  -0.000796  -0.000009
     6  H   -0.000005  -0.005914  -0.000081  -0.000048   0.000051   0.000000
     7  O    0.000955   0.001926  -0.000027   0.000003  -0.000001  -0.000000
     8  H    0.000178  -0.001652   0.000390  -0.000023  -0.000033   0.000001
     9  C    0.000086   0.000018  -0.016183   0.005739   0.287264  -0.050783
    10  C   -0.002675  -0.000174  -0.024855   0.000087  -0.029848   0.006595
    11  H    0.000008  -0.000002   0.005632  -0.000175  -0.036785  -0.006544
    12  H    0.003751   0.000019  -0.001830   0.000033   0.004587  -0.000202
    13  O   -0.000001  -0.000000   0.002406  -0.000180  -0.026909   0.004750
    14  H   -0.000000   0.000003  -0.004207   0.000773  -0.011485  -0.000548
    15  C   -0.028786   0.000023   0.000154   0.000019  -0.002620  -0.000113
    16  O    0.235002  -0.000003  -0.000022  -0.000000   0.000003   0.000001
    17  H    0.006697  -0.000005   0.000191  -0.000005  -0.000040  -0.000071
    18  H   -0.004534   0.000000  -0.000028  -0.000000   0.000363   0.000011
    19  H    0.387713  -0.000001   0.000007  -0.000000  -0.000008  -0.000000
    20  H   -0.000001   0.311371  -0.008867   0.004999  -0.000187  -0.000025
    21  C    0.000007  -0.008867   5.210333   0.359139   0.278830  -0.047315
    22  H   -0.000000   0.004999   0.359139   0.584678  -0.048926  -0.004832
    23  C   -0.000008  -0.000187   0.278830  -0.048926   5.014738   0.370309
    24  H   -0.000000  -0.000025  -0.047315  -0.004832   0.370309   0.604167
    25  O   -0.000000   0.000003   0.156312  -0.025888  -0.032396   0.000764
    26  H    0.000000  -0.000003  -0.019321  -0.006794  -0.001625   0.004590
    27  O   -0.000003   0.000061  -0.034392   0.004212   0.212195  -0.033240
    28  H    0.000016   0.001167  -0.011093   0.000085  -0.030509   0.006116
    29  O    0.000001   0.200842  -0.032626  -0.000023   0.001630  -0.000069
    30  H    0.000001   0.005407  -0.078603   0.004464   0.002697  -0.000282
              25         26         27         28         29         30
     1  C   -0.029853   0.005868   0.004026   0.003389   0.313738   0.377199
     2  O    0.000949  -0.000154  -0.019726   0.035022  -0.058095  -0.041635
     3  H   -0.000000   0.000000  -0.000007   0.000381  -0.000107   0.000020
     4  H    0.000001  -0.000000   0.010642   0.000011   0.001403   0.000007
     5  O    0.000002  -0.000000  -0.004468   0.018402  -0.027062  -0.000045
     6  H   -0.000000   0.000000  -0.000020   0.001171   0.002973   0.000020
     7  O    0.000000  -0.000000  -0.000043   0.000991  -0.002289  -0.000005
     8  H   -0.000001   0.000000   0.000003  -0.000018   0.017196  -0.000220
     9  C    0.000269  -0.000702  -0.038322  -0.009978   0.000081  -0.001540
    10  C    0.000402   0.000031   0.007713  -0.001514   0.003095  -0.005481
    11  H   -0.000191  -0.000010   0.001793  -0.000047   0.000004   0.000055
    12  H   -0.000005  -0.000015  -0.000205   0.000659  -0.000046   0.009729
    13  O   -0.017201   0.001514   0.001534   0.000024   0.000002   0.000400
    14  H    0.052001  -0.002613   0.000060   0.000040   0.000010   0.001491
    15  C   -0.000005  -0.000001  -0.003422   0.000350  -0.000147  -0.000002
    16  O    0.000000   0.000000   0.000009  -0.000080   0.000001  -0.000023
    17  H   -0.000002  -0.000000   0.007422   0.002130   0.000002   0.000013
    18  H   -0.000000   0.000000   0.000073   0.000043   0.000001   0.000018
    19  H   -0.000000   0.000000  -0.000003   0.000016   0.000001   0.000001
    20  H    0.000003  -0.000003   0.000061   0.001167   0.200842   0.005407
    21  C    0.156312  -0.019321  -0.034392  -0.011093  -0.032626  -0.078603
    22  H   -0.025888  -0.006794   0.004212   0.000085  -0.000023   0.004464
    23  C   -0.032396  -0.001625   0.212195  -0.030509   0.001630   0.002697
    24  H    0.000764   0.004590  -0.033240   0.006116  -0.000069  -0.000282
    25  O    8.288016   0.231688   0.001657   0.000045   0.001090   0.005890
    26  H    0.231688   0.378633   0.000007   0.000014  -0.000198  -0.000419
    27  O    0.001657   0.000007   8.335485   0.200771  -0.000123  -0.000163
    28  H    0.000045   0.000014   0.200771   0.380282  -0.000938   0.000666
    29  O    0.001090  -0.000198  -0.000123  -0.000938   8.268970  -0.040137
    30  H    0.005890  -0.000419  -0.000163   0.000666  -0.040137   0.608220
 Mulliken charges:
               1
     1  C    0.346776
     2  O   -0.533797
     3  H    0.429424
     4  H    0.402449
     5  O   -0.826411
     6  H    0.431410
     7  O   -0.820739
     8  H    0.401260
     9  C    0.090927
    10  C    0.091139
    11  H    0.152172
    12  H    0.139093
    13  O   -0.654777
    14  H    0.413154
    15  C   -0.065527
    16  O   -0.611621
    17  H    0.168670
    18  H    0.151789
    19  H    0.404032
    20  H    0.443752
    21  C    0.035778
    22  H    0.159600
    23  C    0.081394
    24  H    0.142136
    25  O   -0.633548
    26  H    0.409512
    27  O   -0.653528
    28  H    0.402400
    29  O   -0.649179
    30  H    0.152256
 Sum of Mulliken charges =  -0.00000
 Mulliken charges with hydrogens summed into heavy atoms:
               1
     1  C    0.499032
     2  O   -0.533797
     5  O    0.007448
     7  O    0.009946
     9  C    0.243099
    10  C    0.230232
    13  O   -0.241623
    15  C    0.254933
    16  O   -0.207588
    21  C    0.195378
    23  C    0.223530
    25  O   -0.224036
    27  O   -0.251128
    29  O   -0.205427
 APT charges:
               1
     1  C   -0.264667
     2  O   -0.362738
     3  H    0.335979
     4  H    0.494418
     5  O   -0.843182
     6  H    0.395882
     7  O   -0.627236
     8  H    0.324220
     9  C   -0.364285
    10  C   -0.267470
    11  H    0.494590
    12  H    0.407744
    13  O   -0.588906
    14  H    0.461019
    15  C   -0.722952
    16  O   -0.751852
    17  H    0.316531
    18  H    0.575526
    19  H    0.663574
    20  H    0.460258
    21  C   -0.233815
    22  H    0.441649
    23  C   -0.443194
    24  H    0.567452
    25  O   -1.007467
    26  H    0.840760
    27  O   -0.522678
    28  H    0.317473
    29  O   -0.530892
    30  H    0.434260
 Sum of APT charges =  -0.00000
 APT charges with hydrogens summed into heavy atoms:
               1
     1  C    0.169593
     2  O   -0.362738
     5  O    0.047118
     7  O    0.032962
     9  C    0.130306
    10  C    0.140274
    13  O   -0.127887
    15  C    0.169105
    16  O   -0.088277
    21  C    0.207834
    23  C    0.124258
    25  O   -0.166707
    27  O   -0.205205
    29  O   -0.070635
 Electronic spatial extent (au):  <R**2>=           2863.0645
 Charge=              0.0000 electrons
 Dipole moment (field-independent basis, Debye):
    X=             -2.7758    Y=              1.6960    Z=              0.2228  Tot=              3.2605
 Quadrupole moment (field-independent basis, Debye-Ang):
   XX=            -92.7123   YY=            -84.2092   ZZ=            -83.1382
   XY=             12.3128   XZ=             -2.6875   YZ=             -6.9290
 Traceless Quadrupole moment (field-independent basis, Debye-Ang):
   XX=             -6.0257   YY=              2.4773   ZZ=              3.5484
   XY=             12.3128   XZ=             -2.6875   YZ=             -6.9290
 Octapole moment (field-independent basis, Debye-Ang**2):
  XXX=            -50.1229  YYY=             13.4823  ZZZ=            -11.3559  XYY=             -5.9325
  XXY=            -28.8284  XXZ=              4.8514  XZZ=             16.6013  YZZ=              9.6604
  YYZ=              0.0538  XYZ=             -4.0329
 Hexadecapole moment (field-independent basis, Debye-Ang**3):
 XXXX=          -1750.0888 YYYY=          -1230.4919 ZZZZ=           -503.9445 XXXY=            128.4943
 XXXZ=            -13.7740 YYYX=             66.5172 YYYZ=            -42.4017 ZZZX=             14.8421
 ZZZY=            -37.7673 XXYY=           -507.4590 XXZZ=           -322.7635 YYZZ=           -274.2610
 XXYZ=            -19.5377 YYXZ=            -37.5225 ZZXY=              1.9807
 N-N= 1.136267697542D+03 E-N=-4.244031654660D+03  KE= 8.328676947241D+02
  Exact polarizability:   0.000   0.000   0.000   0.000   0.000   0.000
 Approx polarizability: 134.151  -2.576 128.693   3.731  -0.704 127.719

 This type of calculation cannot be archived.


 IT IS A QUALITY OF REVOLUTIONS NOT TO GO BY OLD LINES OR OLD LAWS,
 BUT TO BREAK UP BOTH, AND MAKE NEW ONES.
                                              -- A. LINCOLN (1848)
 Job cpu time:       0 days  1 hours  5 minutes 19.5 seconds.
 File lengths (MBytes):  RWF=    220 Int=      0 D2E=      0 Chk=      9 Scr=      1
 Normal termination of Gaussian 09 at Tue Jan 31 13:46:46 2017.
