 Entering Gaussian System, Link 0=g09
 Initial command:
 /global/software/gaussian/g09.e01/l1.exe "/scratch/10455169.yak.local/Gau-28947.inp" -scrdir="/scratch/10455169.yak.local/"
 Entering Link 1 = /global/software/gaussian/g09.e01/l1.exe PID=     28948.
  
 Copyright (c) 1988,1990,1992,1993,1995,1998,2003,2009,2015,
            Gaussian, Inc.  All Rights Reserved.
  
 This is part of the Gaussian(R) 09 program.  It is based on
 the Gaussian(R) 03 system (copyright 2003, Gaussian, Inc.),
 the Gaussian(R) 98 system (copyright 1998, Gaussian, Inc.),
 the Gaussian(R) 94 system (copyright 1995, Gaussian, Inc.),
 the Gaussian 92(TM) system (copyright 1992, Gaussian, Inc.),
 the Gaussian 90(TM) system (copyright 1990, Gaussian, Inc.),
 the Gaussian 88(TM) system (copyright 1988, Gaussian, Inc.),
 the Gaussian 86(TM) system (copyright 1986, Carnegie Mellon
 University), and the Gaussian 82(TM) system (copyright 1983,
 Carnegie Mellon University). Gaussian is a federally registered
 trademark of Gaussian, Inc.
  
 This software contains proprietary and confidential information,
 including trade secrets, belonging to Gaussian, Inc.
  
 This software is provided under written license and may be
 used, copied, transmitted, or stored only in accord with that
 written license.
  
 The following legend is applicable only to US Government
 contracts under FAR:
  
                    RESTRICTED RIGHTS LEGEND
  
 Use, reproduction and disclosure by the US Government is
 subject to restrictions as set forth in subparagraphs (a)
 and (c) of the Commercial Computer Software - Restricted
 Rights clause in FAR 52.227-19.
  
 Gaussian, Inc.
 340 Quinnipiac St., Bldg. 40, Wallingford CT 06492
  
  
 ---------------------------------------------------------------
 Warning -- This program may not be used in any manner that
 competes with the business of Gaussian, Inc. or will provide
 assistance to any competitor of Gaussian, Inc.  The licensee
 of this program is prohibited from giving any competitor of
 Gaussian, Inc. access to this program.  By using this program,
 the user acknowledges that Gaussian, Inc. is engaged in the
 business of creating and licensing software in the field of
 computational chemistry and represents and warrants to the
 licensee that it is not a competitor of Gaussian, Inc. and that
 it will not use this program in any manner prohibited above.
 ---------------------------------------------------------------
  

 Cite this work as:
 Gaussian 09, Revision E.01,
 M. J. Frisch, G. W. Trucks, H. B. Schlegel, G. E. Scuseria, 
 M. A. Robb, J. R. Cheeseman, G. Scalmani, V. Barone, B. Mennucci, 
 G. A. Petersson, H. Nakatsuji, M. Caricato, X. Li, H. P. Hratchian, 
 A. F. Izmaylov, J. Bloino, G. Zheng, J. L. Sonnenberg, M. Hada, 
 M. Ehara, K. Toyota, R. Fukuda, J. Hasegawa, M. Ishida, T. Nakajima, 
 Y. Honda, O. Kitao, H. Nakai, T. Vreven, J. A. Montgomery, Jr., 
 J. E. Peralta, F. Ogliaro, M. Bearpark, J. J. Heyd, E. Brothers, 
 K. N. Kudin, V. N. Staroverov, T. Keith, R. Kobayashi, J. Normand, 
 K. Raghavachari, A. Rendell, J. C. Burant, S. S. Iyengar, J. Tomasi, 
 M. Cossi, N. Rega, J. M. Millam, M. Klene, J. E. Knox, J. B. Cross, 
 V. Bakken, C. Adamo, J. Jaramillo, R. Gomperts, R. E. Stratmann, 
 O. Yazyev, A. J. Austin, R. Cammi, C. Pomelli, J. W. Ochterski, 
 R. L. Martin, K. Morokuma, V. G. Zakrzewski, G. A. Voth, 
 P. Salvador, J. J. Dannenberg, S. Dapprich, A. D. Daniels, 
 O. Farkas, J. B. Foresman, J. V. Ortiz, J. Cioslowski, 
 and D. J. Fox, Gaussian, Inc., Wallingford CT, 2013.
 
 ******************************************
 Gaussian 09:  ES64L-G09RevE.01 30-Nov-2015
                12-Jan-2017 
 ******************************************
 %NPROCS=4
 Will use up to    4 processors via shared memory.
 ----------------------------------------------------------------------
 # opt=(calcfc,ts,noeigentest,maxcycle=1000,cartesian) b3lyp 6-31g(d) f
 req
 ----------------------------------------------------------------------
 1/5=1,6=1000,10=4,11=1,14=-1,18=10,26=3,38=1/1,3;
 2/12=2,17=6,18=5,29=2,40=1/2;
 3/5=1,6=6,7=1,11=2,16=1,25=1,30=1,71=2,74=-5,140=1/1,2,3;
 4//1;
 5/5=2,38=5/2;
 8/6=4,10=90,11=11/1;
 11/6=1,8=1,9=11,15=111,16=1/1,2,10;
 10/6=1,13=1/2;
 6/7=2,8=2,9=2,10=2,28=1/1;
 7/7=1,10=1,18=20,25=1/1,2,3,16;
 1/5=1,6=1000,10=4,11=1,14=-1,18=10,26=3/3(2);
 2/29=1/2;
 99/12=1/99;
 2/29=1/2;
 3/5=1,6=6,7=1,11=2,16=1,25=1,30=1,71=1,74=-5/1,2,3;
 4/5=5,16=3,69=1/1;
 5/5=2,38=5/2;
 7/7=1/1,2,3,16;
 1/5=1,6=1000,11=1,14=-1,18=10,26=3/3(-5);
 2/29=1/2;
 6/7=2,8=2,9=2,10=2,19=2,28=1/1;
 99/9=1,12=1/99;
 ------------------------
 boat5_Beta_B3LYP_6-31G_d
 ------------------------
 Symbolic Z-matrix:
 Charge =  0 Multiplicity = 1
 8                    0    -0.37437  -0.72435  -0.61736 
 6                    0     1.45176   0.18536   0.72451 
 6                    0    -0.20352   1.80106  -0.31652 
 6                    0     0.43664   1.32266   0.9887 
 6                    0    -1.0089    0.69978  -1.07686 
 6                    0     1.03858  -0.68752  -0.48614 
 1                    0     0.99043   2.15977   1.43232 
 1                    0     1.4567   -0.22358  -1.39132 
 1                    0     1.50527  -0.43682   1.62941 
 1                    0    -0.91533   2.6064   -0.09758 
 6                    0     1.61262  -2.10249  -0.38341 
 1                    0     1.22349  -2.7138   -1.20405 
 1                    0     1.28013  -2.56577   0.56469 
 1                    0    -0.67499   0.67648  -2.14006 
 8                    0    -2.27358   0.72518  -0.82751 
 8                    0     3.02896  -2.09193  -0.48876 
 1                    0     3.35085  -1.30371  -0.01337 
 8                    0     0.90598   2.2835   -1.09092 
 1                    0     0.54906   2.70102  -1.893 
 8                    0    -0.6141    0.93019   1.89542 
 1                    0    -0.21401   0.8372    2.77507 
 8                    0     2.77651   0.69386   0.54632 
 1                    0     2.72543   1.30013  -0.21626 
 8                    0    -3.7537   -1.20508  -0.38805 
 1                    0    -2.83488  -1.36178   0.62908 
 1                    0    -4.5496   -0.75838  -0.05722 
 1                    0    -3.18172  -0.4299   -0.81436 
 8                    0    -1.90779  -1.37086   1.22485 
 1                    0    -1.18264  -1.25709   0.44865 
 1                    0    -1.79468  -0.46726   1.61441 
 

 GradGradGradGradGradGradGradGradGradGradGradGradGradGradGradGradGradGrad
 Berny optimization.
 Initialization pass.
 No Z-matrix variables, so optimization will use Cartesian coordinates.
 Trust Radius=3.00D-01 FncErr=1.00D-07 GrdErr=1.00D-06
 Number of steps in this run=    180 maximum allowed number of steps=    180.
 Search for a saddle point of order  1.
 GradGradGradGradGradGradGradGradGradGradGradGradGradGradGradGradGradGrad

 ---------------------------------------------------------------------------------------------------
                            Z-MATRIX (ANGSTROMS AND DEGREES)
   CD    Cent   Atom    N1       Length/X        N2       Alpha/Y        N3        Beta/Z          J
 ---------------------------------------------------------------------------------------------------
      1      1  O        0  -0.374373         -0.724354         -0.617358
      2      2  C        0   1.451761          0.185356          0.724505
      3      3  C        0  -0.203516          1.801063         -0.316520
      4      4  C        0   0.436642          1.322664          0.988698
      5      5  C        0  -1.008897          0.699780         -1.076857
      6      6  C        0   1.038583         -0.687515         -0.486143
      7      7  H        0   0.990434          2.159768          1.432319
      8      8  H        0   1.456697         -0.223579         -1.391322
      9      9  H        0   1.505265         -0.436823          1.629408
     10     10  H        0  -0.915329          2.606395         -0.097575
     11     11  C        0   1.612624         -2.102494         -0.383409
     12     12  H        0   1.223494         -2.713802         -1.204054
     13     13  H        0   1.280132         -2.565768          0.564691
     14     14  H        0  -0.674985          0.676475         -2.140060
     15     15  O        0  -2.273582          0.725180         -0.827514
     16     16  O        0   3.028960         -2.091929         -0.488761
     17     17  H        0   3.350850         -1.303707         -0.013367
     18     18  O        0   0.905979          2.283495         -1.090915
     19     19  H        0   0.549056          2.701017         -1.892995
     20     20  O        0  -0.614095          0.930191          1.895422
     21     21  H        0  -0.214014          0.837204          2.775074
     22     22  O        0   2.776512          0.693856          0.546318
     23     23  H        0   2.725433          1.300132         -0.216262
     24     24  O        0  -3.753701         -1.205084         -0.388053
     25     25  H        0  -2.834882         -1.361780          0.629079
     26     26  H        0  -4.549599         -0.758383         -0.057222
     27     27  H        0  -3.181718         -0.429898         -0.814364
     28     28  O        0  -1.907789         -1.370858          1.224853
     29     29  H        0  -1.182635         -1.257085          0.448651
     30     30  H        0  -1.794675         -0.467261          1.614412
 ---------------------------------------------------------------------------------------------------
                         Z-Matrix orientation:                         
 ---------------------------------------------------------------------
 Center     Atomic      Atomic             Coordinates (Angstroms)
 Number     Number       Type             X           Y           Z
 ---------------------------------------------------------------------
      1          8           0       -0.374373   -0.724354   -0.617358
      2          6           0        1.451761    0.185356    0.724505
      3          6           0       -0.203516    1.801063   -0.316520
      4          6           0        0.436642    1.322664    0.988698
      5          6           0       -1.008897    0.699780   -1.076857
      6          6           0        1.038583   -0.687515   -0.486143
      7          1           0        0.990434    2.159768    1.432319
      8          1           0        1.456697   -0.223579   -1.391322
      9          1           0        1.505265   -0.436823    1.629408
     10          1           0       -0.915329    2.606395   -0.097575
     11          6           0        1.612624   -2.102494   -0.383409
     12          1           0        1.223494   -2.713802   -1.204054
     13          1           0        1.280132   -2.565768    0.564691
     14          1           0       -0.674985    0.676475   -2.140060
     15          8           0       -2.273582    0.725180   -0.827514
     16          8           0        3.028960   -2.091929   -0.488761
     17          1           0        3.350850   -1.303707   -0.013367
     18          8           0        0.905979    2.283495   -1.090915
     19          1           0        0.549056    2.701017   -1.892995
     20          8           0       -0.614095    0.930191    1.895422
     21          1           0       -0.214014    0.837204    2.775074
     22          8           0        2.776512    0.693856    0.546318
     23          1           0        2.725433    1.300132   -0.216262
     24          8           0       -3.753701   -1.205084   -0.388053
     25          1           0       -2.834882   -1.361780    0.629079
     26          1           0       -4.549599   -0.758383   -0.057222
     27          1           0       -3.181718   -0.429898   -0.814364
     28          8           0       -1.907789   -1.370858    1.224853
     29          1           0       -1.182635   -1.257085    0.448651
     30          1           0       -1.794675   -0.467261    1.614412
 ---------------------------------------------------------------------
                    Distance matrix (angstroms):
                    1          2          3          4          5
     1  O    0.000000
     2  C    2.441912   0.000000
     3  C    2.549005   2.536569   0.000000
     4  C    2.725334   1.547170   1.530445   0.000000
     5  C    1.625398   3.092632   1.561914   2.596938   0.000000
     6  C    1.419514   1.548641   2.786504   2.564821   2.542775
     7  H    3.792365   2.147586   2.147702   1.097373   3.524891
     8  H    2.050028   2.154989   2.830315   3.015937   2.651534
     9  H    2.943411   1.099463   3.422675   2.155982   3.864809
    10  H    3.414190   3.484302   1.096893   2.157726   2.145444
    11  C    2.429436   2.547078   4.305879   3.872637   3.899485
    12  H    2.618262   3.489493   4.817477   4.660510   4.080722
    13  H    2.743252   2.761101   4.695419   4.001395   4.312556
    14  H    2.090768   3.601386   2.193691   3.382662   1.114648
    15  O    2.398397   4.071652   2.388266   3.316765   1.289281
    16  O    3.670078   3.024169   5.062999   4.534583   4.944066
    17  H    3.818081   2.523550   4.729167   4.049021   4.914506
    18  O    3.303137   2.827687   1.436457   2.338432   2.484975
    19  H    3.770031   3.740953   1.965084   3.196349   2.664254
    20  O    3.018120   2.488692   2.412401   1.442301   3.007225
    21  H    3.738017   2.721129   3.238377   1.962183   3.935492
    22  O    3.646030   1.430136   3.294080   2.462944   4.118744
    23  H    3.724006   1.936494   2.973168   2.586697   3.878952
    24  O    3.421044   5.501631   4.652510   5.083692   3.411291
    25  H    2.830905   4.558294   4.221590   4.247168   3.239517
    26  H    4.212769   6.125199   5.050390   5.503390   3.962634
    27  H    2.829612   4.920953   3.754294   4.406250   2.462971
    28  O    2.482554   3.736138   3.916818   3.578713   3.223882
    29  H    1.439953   3.016086   3.300974   3.093350   2.487304
    30  H    2.657847   3.428876   3.377215   2.928161   3.036834
                    6          7          8          9         10
     6  C    0.000000
     7  H    3.433633   0.000000
     8  H    1.099729   3.724338   0.000000
     9  H    2.180870   2.654464   3.028637   0.000000
    10  H    3.849494   2.484348   3.912677   4.254753   0.000000
    11  C    1.530439   4.674491   2.137878   2.614846   5.352185
    12  H    2.157644   5.545851   2.508120   3.645893   5.839808
    13  H    2.165741   4.813252   3.056634   2.390965   5.657731
    14  H    2.744490   4.211374   2.432031   4.494643   2.820302
    15  O    3.616999   4.221219   3.890116   4.654718   2.432413
    16  O    2.435977   5.091470   2.603336   3.089929   6.146925
    17  H    2.439219   4.433648   2.579390   2.618469   5.787596
    18  O    3.034837   2.527677   2.584367   3.893511   2.099560
    19  H    3.701489   3.397864   3.103023   4.813284   2.318816
    20  O    3.319664   2.073846   4.052413   2.535977   2.621534
    21  H    3.811732   2.236708   4.612525   2.427265   3.445866
    22  O    2.448379   2.474666   2.517548   2.016826   4.207386
    23  H    2.620885   2.543033   2.304811   2.812885   3.869827
    24  O    4.821150   6.094489   5.396123   5.684813   4.761103
    25  H    4.086818   5.261135   4.878030   4.548965   4.467563
    26  H    5.605067   6.436327   6.175875   6.293608   4.952906
    27  H    4.240877   5.400075   4.678712   5.285819   3.856084
    28  O    3.474993   4.572533   4.413659   3.561604   4.307242
    29  H    2.476299   4.167099   3.379306   3.048249   3.911048
    30  H    3.533864   3.832919   4.434550   3.300114   3.626501
                   11         12         13         14         15
    11  C    0.000000
    12  H    1.094796   0.000000
    13  H    1.106376   1.775832   0.000000
    14  H    4.005202   3.996787   4.652988   0.000000
    15  O    4.826548   4.919138   5.039589   2.068976   0.000000
    16  O    1.420288   2.039136   2.095873   4.910199   6.013968
    17  H    1.948441   2.816336   2.492954   4.965007   6.034356
    18  O    4.498534   5.008652   5.137740   2.486497   3.550681
    19  H    5.146236   5.499979   5.857791   2.378674   3.606448
    20  O    4.398696   5.124663   4.192931   4.043908   3.195357
    21  H    4.685557   5.523543   4.324174   4.939319   4.151266
    22  O    3.168375   4.133739   3.586731   4.373758   5.233722
    23  H    3.583873   4.398093   4.200472   3.956361   5.068959
    24  O    5.440846   5.264462   5.300817   4.011020   2.471800
    25  H    4.621050   4.653897   4.288015   4.060513   2.606170
    26  H    6.315538   6.202217   6.135078   4.627058   2.823927
    27  H    5.095980   4.977346   5.135352   3.043886   1.469384
    28  O    3.938922   4.184259   3.467919   4.127229   2.956246
    29  H    3.036530   3.262348   2.791297   3.270747   2.597718
    30  H    4.274922   4.701068   3.867827   4.081409   2.759397
                   16         17         18         19         20
    16  O    0.000000
    17  H    0.975144   0.000000
    18  O    4.900405   4.472865   0.000000
    19  H    5.576211   5.236494   0.972137   0.000000
    20  O    5.299942   4.935034   3.613899   4.340605   0.000000
    21  H    5.454294   5.006711   4.276916   5.083989   0.970824
    22  O    2.982569   2.152526   2.950657   3.865295   3.656795
    23  H    3.416499   2.685571   2.245536   3.083915   3.968440
    24  O    6.841135   7.115108   5.863175   6.003015   4.430664
    25  H    6.013928   6.219276   5.499132   5.858175   3.433460
    26  H    7.707083   7.919368   6.331262   6.429136   4.706622
    27  H    6.437460   6.639246   4.914087   4.988462   3.973093
    28  O    5.275216   5.402868   5.160850   5.686583   2.723625
    29  H    4.394683   4.557205   4.389565   4.914126   2.683386
    30  H    5.507299   5.461294   4.709457   5.275696   1.850840
                   21         22         23         24         25
    21  H    0.000000
    22  O    3.732445   0.000000
    23  H    4.219330   0.975555   0.000000
    24  O    5.167755   6.864598   6.948726   0.000000
    25  H    4.038536   5.976640   6.222337   1.379616   0.000000
    26  H    5.418957   7.493007   7.562332   0.970796   1.943026
    27  H    4.826684   6.214079   6.184267   1.053479   1.752777
    28  O    3.185529   5.163926   5.538750   2.456896   1.102057
    29  H    3.276662   4.414811   4.717464   2.704285   1.665363
    30  H    2.355261   4.835780   5.187140   2.896900   1.689105
                   26         27         28         29         30
    26  H    0.000000
    27  H    1.597581   0.000000
    28  O    2.999667   2.581997   0.000000
    29  H    3.441084   2.505150   1.068308   0.000000
    30  H    3.235540   2.797184   0.990474   1.535387   0.000000
 Stoichiometry    C6H16O8
 Framework group  C1[X(C6H16O8)]
 Deg. of freedom    84
 Full point group                 C1      NOp   1
 Largest Abelian subgroup         C1      NOp   1
 Largest concise Abelian subgroup C1      NOp   1
                         Standard orientation:                         
 ---------------------------------------------------------------------
 Center     Atomic      Atomic             Coordinates (Angstroms)
 Number     Number       Type             X           Y           Z
 ---------------------------------------------------------------------
      1          8           0        0.374373    0.724354   -0.617358
      2          6           0       -1.451761   -0.185356    0.724505
      3          6           0        0.203516   -1.801063   -0.316520
      4          6           0       -0.436642   -1.322664    0.988698
      5          6           0        1.008897   -0.699780   -1.076857
      6          6           0       -1.038583    0.687515   -0.486143
      7          1           0       -0.990434   -2.159768    1.432319
      8          1           0       -1.456697    0.223579   -1.391322
      9          1           0       -1.505265    0.436823    1.629408
     10          1           0        0.915329   -2.606395   -0.097575
     11          6           0       -1.612624    2.102494   -0.383409
     12          1           0       -1.223494    2.713802   -1.204054
     13          1           0       -1.280132    2.565768    0.564691
     14          1           0        0.674985   -0.676475   -2.140060
     15          8           0        2.273582   -0.725180   -0.827514
     16          8           0       -3.028960    2.091929   -0.488761
     17          1           0       -3.350850    1.303707   -0.013367
     18          8           0       -0.905979   -2.283495   -1.090915
     19          1           0       -0.549056   -2.701017   -1.892995
     20          8           0        0.614095   -0.930191    1.895422
     21          1           0        0.214014   -0.837204    2.775074
     22          8           0       -2.776512   -0.693856    0.546318
     23          1           0       -2.725433   -1.300132   -0.216262
     24          8           0        3.753701    1.205084   -0.388053
     25          1           0        2.834882    1.361780    0.629079
     26          1           0        4.549599    0.758383   -0.057222
     27          1           0        3.181718    0.429898   -0.814364
     28          8           0        1.907789    1.370858    1.224853
     29          1           0        1.182635    1.257085    0.448651
     30          1           0        1.794675    0.467261    1.614412
 ---------------------------------------------------------------------
 Rotational constants (GHZ):      0.8327783      0.5005226      0.4118174
 Standard basis: 6-31G(d) (6D, 7F)
 There are   242 symmetry adapted cartesian basis functions of A   symmetry.
 There are   242 symmetry adapted basis functions of A   symmetry.
   242 basis functions,   456 primitive gaussians,   242 cartesian basis functions
    58 alpha electrons       58 beta electrons
       nuclear repulsion energy      1132.9276426160 Hartrees.
 NAtoms=   30 NActive=   30 NUniq=   30 SFac= 1.00D+00 NAtFMM=   60 NAOKFM=F Big=F
 Integral buffers will be    131072 words long.
 Raffenetti 2 integral format.
 Two-electron integral symmetry is turned on.
 One-electron integrals computed using PRISM.
 NBasis=   242 RedAO= T EigKep=  1.55D-03  NBF=   242
 NBsUse=   242 1.00D-06 EigRej= -1.00D+00 NBFU=   242
 ExpMin= 1.61D-01 ExpMax= 5.48D+03 ExpMxC= 8.25D+02 IAcc=1 IRadAn=         1 AccDes= 0.00D+00
 Harris functional with IExCor=  402 and IRadAn=       1 diagonalized for initial guess.
 HarFok:  IExCor=  402 AccDes= 0.00D+00 IRadAn=         1 IDoV= 1 UseB2=F ITyADJ=14
 ICtDFT=  3500011 ScaDFX=  1.000000  1.000000  1.000000  1.000000
 FoFCou: FMM=F IPFlag=           0 FMFlag=      100000 FMFlg1=           0
         NFxFlg=           0 DoJE=T BraDBF=F KetDBF=T FulRan=T
         wScrn=  0.000000 ICntrl=     500 IOpCl=  0 I1Cent=   200000004 NGrid=           0
         NMat0=    1 NMatS0=      1 NMatT0=    0 NMatD0=    1 NMtDS0=    0 NMtDT0=    0
 Petite list used in FoFCou.
 Requested convergence on RMS density matrix=1.00D-08 within 128 cycles.
 Requested convergence on MAX density matrix=1.00D-06.
 Requested convergence on             energy=1.00D-06.
 No special actions if energy rises.
 Integral accuracy reduced to 1.0D-05 until final iterations.
 Initial convergence to 1.0D-05 achieved.  Increase integral accuracy.
 SCF Done:  E(RB3LYP) =  -839.958326448     A.U. after   14 cycles
            NFock= 14  Conv=0.87D-08     -V/T= 2.0086
 DoSCS=F DFT=T ScalE2(SS,OS)=  1.000000  1.000000
 Range of M.O.s used for correlation:     1   242
 NBasis=   242 NAE=    58 NBE=    58 NFC=     0 NFV=     0
 NROrb=    242 NOA=    58 NOB=    58 NVA=   184 NVB=   184
 Symmetrizing basis deriv contribution to polar:
 IMax=3 JMax=2 DiffMx= 0.00D+00
 G2DrvN: will do    31 centers at a time, making    1 passes.
 Calling FoFCou, ICntrl=  3107 FMM=F I1Cent=   0 AccDes= 0.00D+00.
 End of G2Drv F.D. properties file   721 does not exist.
 End of G2Drv F.D. properties file   722 does not exist.
 End of G2Drv F.D. properties file   788 does not exist.
          IDoAtm=111111111111111111111111111111
          Differentiating once with respect to nuclear coordinates.
          There are    93 degrees of freedom in the 1st order CPHF.  IDoFFX=6 NUNeed=     0.
     87 vectors produced by pass  0 Test12= 1.15D-14 1.08D-09 XBig12= 1.38D-01 7.50D-02.
 AX will form    87 AO Fock derivatives at one time.
     87 vectors produced by pass  1 Test12= 1.15D-14 1.08D-09 XBig12= 1.94D-02 1.66D-02.
     87 vectors produced by pass  2 Test12= 1.15D-14 1.08D-09 XBig12= 1.62D-04 1.66D-03.
     87 vectors produced by pass  3 Test12= 1.15D-14 1.08D-09 XBig12= 4.03D-07 7.39D-05.
     87 vectors produced by pass  4 Test12= 1.15D-14 1.08D-09 XBig12= 4.91D-10 1.75D-06.
     67 vectors produced by pass  5 Test12= 1.15D-14 1.08D-09 XBig12= 4.01D-13 5.58D-08.
      3 vectors produced by pass  6 Test12= 1.15D-14 1.08D-09 XBig12= 3.36D-16 1.51D-09.
 InvSVY:  IOpt=1 It=  1 EMax= 7.22D-16
 Solved reduced A of dimension   505 with    93 vectors.
 End of Minotr F.D. properties file   721 does not exist.
 End of Minotr F.D. properties file   722 does not exist.
 End of Minotr F.D. properties file   788 does not exist.

 **********************************************************************

            Population analysis using the SCF density.

 **********************************************************************

 Orbital symmetries:
       Occupied  (A) (A) (A) (A) (A) (A) (A) (A) (A) (A) (A) (A)
                 (A) (A) (A) (A) (A) (A) (A) (A) (A) (A) (A) (A)
                 (A) (A) (A) (A) (A) (A) (A) (A) (A) (A) (A) (A)
                 (A) (A) (A) (A) (A) (A) (A) (A) (A) (A) (A) (A)
                 (A) (A) (A) (A) (A) (A) (A) (A) (A) (A)
       Virtual   (A) (A) (A) (A) (A) (A) (A) (A) (A) (A) (A) (A)
                 (A) (A) (A) (A) (A) (A) (A) (A) (A) (A) (A) (A)
                 (A) (A) (A) (A) (A) (A) (A) (A) (A) (A) (A) (A)
                 (A) (A) (A) (A) (A) (A) (A) (A) (A) (A) (A) (A)
                 (A) (A) (A) (A) (A) (A) (A) (A) (A) (A) (A) (A)
                 (A) (A) (A) (A) (A) (A) (A) (A) (A) (A) (A) (A)
                 (A) (A) (A) (A) (A) (A) (A) (A) (A) (A) (A) (A)
                 (A) (A) (A) (A) (A) (A) (A) (A) (A) (A) (A) (A)
                 (A) (A) (A) (A) (A) (A) (A) (A) (A) (A) (A) (A)
                 (A) (A) (A) (A) (A) (A) (A) (A) (A) (A) (A) (A)
                 (A) (A) (A) (A) (A) (A) (A) (A) (A) (A) (A) (A)
                 (A) (A) (A) (A) (A) (A) (A) (A) (A) (A) (A) (A)
                 (A) (A) (A) (A) (A) (A) (A) (A) (A) (A) (A) (A)
                 (A) (A) (A) (A) (A) (A) (A) (A) (A) (A) (A) (A)
                 (A) (A) (A) (A) (A) (A) (A) (A) (A) (A) (A) (A)
                 (A) (A) (A) (A)
 The electronic state is 1-A.
 Alpha  occ. eigenvalues --  -19.20118 -19.19147 -19.17152 -19.16409 -19.15733
 Alpha  occ. eigenvalues --  -19.15399 -19.13106 -19.07536 -10.26979 -10.25975
 Alpha  occ. eigenvalues --  -10.24983 -10.24248 -10.23749 -10.22653  -1.07931
 Alpha  occ. eigenvalues --   -1.05946  -1.04322  -1.03330  -1.01830  -1.01095
 Alpha  occ. eigenvalues --   -1.00246  -0.95698  -0.78279  -0.74565  -0.68346
 Alpha  occ. eigenvalues --   -0.64553  -0.61193  -0.58049  -0.57429  -0.56534
 Alpha  occ. eigenvalues --   -0.54021  -0.53618  -0.51791  -0.50788  -0.49837
 Alpha  occ. eigenvalues --   -0.48208  -0.45771  -0.44855  -0.43774  -0.42809
 Alpha  occ. eigenvalues --   -0.41965  -0.41214  -0.40326  -0.39771  -0.39248
 Alpha  occ. eigenvalues --   -0.38088  -0.36919  -0.35062  -0.33940  -0.33360
 Alpha  occ. eigenvalues --   -0.32395  -0.31754  -0.29737  -0.28833  -0.26485
 Alpha  occ. eigenvalues --   -0.25796  -0.23784  -0.21595
 Alpha virt. eigenvalues --    0.02533   0.05689   0.07326   0.07571   0.09713
 Alpha virt. eigenvalues --    0.09858   0.11905   0.12657   0.13225   0.14176
 Alpha virt. eigenvalues --    0.15466   0.16245   0.16951   0.19009   0.19878
 Alpha virt. eigenvalues --    0.20514   0.22182   0.22433   0.23058   0.24100
 Alpha virt. eigenvalues --    0.25256   0.26322   0.27253   0.27823   0.30160
 Alpha virt. eigenvalues --    0.31634   0.32995   0.37126   0.51919   0.53181
 Alpha virt. eigenvalues --    0.54987   0.56946   0.57428   0.58218   0.58850
 Alpha virt. eigenvalues --    0.59411   0.60841   0.62968   0.63664   0.66225
 Alpha virt. eigenvalues --    0.66503   0.67371   0.68868   0.72781   0.74423
 Alpha virt. eigenvalues --    0.75175   0.76629   0.78160   0.79556   0.80058
 Alpha virt. eigenvalues --    0.80302   0.81318   0.82335   0.83619   0.84542
 Alpha virt. eigenvalues --    0.85919   0.86467   0.87126   0.88416   0.89311
 Alpha virt. eigenvalues --    0.90650   0.91262   0.93117   0.93971   0.94650
 Alpha virt. eigenvalues --    0.96332   0.97094   0.99102   1.00863   1.03476
 Alpha virt. eigenvalues --    1.05163   1.06291   1.06958   1.07602   1.08908
 Alpha virt. eigenvalues --    1.10167   1.11527   1.13945   1.15680   1.17477
 Alpha virt. eigenvalues --    1.19312   1.20696   1.24447   1.25624   1.27577
 Alpha virt. eigenvalues --    1.31349   1.32323   1.35269   1.36521   1.39232
 Alpha virt. eigenvalues --    1.40444   1.42276   1.43720   1.48753   1.50071
 Alpha virt. eigenvalues --    1.52638   1.54726   1.57844   1.58351   1.58889
 Alpha virt. eigenvalues --    1.60377   1.61995   1.65220   1.66017   1.67189
 Alpha virt. eigenvalues --    1.69921   1.70378   1.71321   1.72636   1.73361
 Alpha virt. eigenvalues --    1.75554   1.76850   1.77346   1.78120   1.79087
 Alpha virt. eigenvalues --    1.80010   1.81825   1.82812   1.83225   1.87915
 Alpha virt. eigenvalues --    1.89987   1.92311   1.93617   1.95064   1.97897
 Alpha virt. eigenvalues --    2.00011   2.01271   2.02645   2.05000   2.05858
 Alpha virt. eigenvalues --    2.06944   2.09356   2.10208   2.13324   2.14415
 Alpha virt. eigenvalues --    2.17017   2.19065   2.20865   2.25882   2.27496
 Alpha virt. eigenvalues --    2.30009   2.31841   2.35659   2.36549   2.38512
 Alpha virt. eigenvalues --    2.40381   2.42194   2.44866   2.47020   2.49483
 Alpha virt. eigenvalues --    2.52768   2.53917   2.57103   2.58140   2.58953
 Alpha virt. eigenvalues --    2.60993   2.64969   2.66900   2.70060   2.72762
 Alpha virt. eigenvalues --    2.75280   2.76690   2.82470   2.86080   2.88786
 Alpha virt. eigenvalues --    2.91736   2.92505   3.02844   3.04185   3.13049
 Alpha virt. eigenvalues --    3.71616   3.75213   3.80649   3.84850   3.91289
 Alpha virt. eigenvalues --    3.98340   4.04855   4.18968   4.31551   4.39233
 Alpha virt. eigenvalues --    4.44502   4.56944   4.68055   4.79229
          Condensed to atoms (all electrons):
               1          2          3          4          5          6
     1  O    8.589425  -0.041302  -0.028402   0.001814   0.078883   0.130950
     2  C   -0.041302   5.107683  -0.039574   0.307833  -0.017270   0.278898
     3  C   -0.028402  -0.039574   5.180002   0.332323   0.248763  -0.003286
     4  C    0.001814   0.307833   0.332323   4.967841  -0.030711  -0.042054
     5  C    0.078883  -0.017270   0.248763  -0.030711   4.688519  -0.004982
     6  C    0.130950   0.278898  -0.003286  -0.042054  -0.004982   5.017508
     7  H    0.000036  -0.063688  -0.035077   0.360504   0.004073   0.006148
     8  H   -0.033320  -0.066545  -0.004251  -0.005193  -0.004267   0.355814
     9  H    0.002934   0.357531   0.004336  -0.050154   0.000472  -0.047627
    10  H    0.003193   0.005709   0.344366  -0.033499  -0.046511   0.000148
    11  C   -0.028347  -0.031290   0.000070   0.003765   0.000724   0.348476
    12  H    0.003270   0.006632   0.000022  -0.000138  -0.000064  -0.031197
    13  H    0.002494  -0.017676   0.000027  -0.000285  -0.000094  -0.042207
    14  H   -0.051856   0.001182  -0.115501   0.002978   0.359693  -0.004125
    15  O   -0.049848   0.000587  -0.053579  -0.001262   0.372955   0.001481
    16  O    0.001397   0.003952  -0.000000   0.000112  -0.000003  -0.032527
    17  H    0.000096   0.001389  -0.000004   0.000539  -0.000013  -0.009458
    18  O    0.001150   0.003698   0.166690  -0.043591  -0.031196  -0.005261
    19  H   -0.000194  -0.000085  -0.028914   0.007128  -0.000759  -0.000106
    20  O   -0.001695  -0.035039  -0.039870   0.184114   0.001870   0.001288
    21  H    0.000158  -0.002077   0.006204  -0.019666   0.000026  -0.000225
    22  O    0.001598   0.198427  -0.000019  -0.027298   0.000274  -0.032150
    23  H    0.000010  -0.030954  -0.000808  -0.008194   0.000336  -0.004441
    24  O   -0.000132   0.000002  -0.000140   0.000002   0.003380   0.000006
    25  H    0.002105   0.000006   0.000026  -0.000015  -0.000718  -0.000058
    26  H    0.000005  -0.000000  -0.000003  -0.000001  -0.000104   0.000000
    27  H    0.000790  -0.000016   0.002655  -0.000070  -0.007342   0.000018
    28  O   -0.073300  -0.000158  -0.000590   0.001880   0.006813   0.005362
    29  H    0.113336  -0.000564   0.000028  -0.001004  -0.005804  -0.011241
    30  H    0.003954   0.000560  -0.001894  -0.004246   0.000621  -0.000244
               7          8          9         10         11         12
     1  O    0.000036  -0.033320   0.002934   0.003193  -0.028347   0.003270
     2  C   -0.063688  -0.066545   0.357531   0.005709  -0.031290   0.006632
     3  C   -0.035077  -0.004251   0.004336   0.344366   0.000070   0.000022
     4  C    0.360504  -0.005193  -0.050154  -0.033499   0.003765  -0.000138
     5  C    0.004073  -0.004267   0.000472  -0.046511   0.000724  -0.000064
     6  C    0.006148   0.355814  -0.047627   0.000148   0.348476  -0.031197
     7  H    0.606978  -0.000344  -0.000253  -0.007598  -0.000162   0.000004
     8  H   -0.000344   0.620264   0.005979   0.000202  -0.042877  -0.007976
     9  H   -0.000253   0.005979   0.617789  -0.000188  -0.007071   0.000063
    10  H   -0.007598   0.000202  -0.000188   0.599331   0.000014  -0.000000
    11  C   -0.000162  -0.042877  -0.007071   0.000014   4.847594   0.370369
    12  H    0.000004  -0.007976   0.000063  -0.000000   0.370369   0.587159
    13  H   -0.000006   0.007174   0.007425  -0.000000   0.347113  -0.050588
    14  H   -0.000287   0.010406   0.000021   0.004768  -0.000288  -0.000017
    15  O   -0.000163   0.000108   0.000004   0.008719  -0.000055  -0.000000
    16  O    0.000002   0.005157   0.000092  -0.000000   0.264017  -0.037220
    17  H    0.000004   0.000068  -0.001145   0.000000  -0.036034   0.005458
    18  O    0.002657   0.007726   0.000034  -0.030504   0.000242  -0.000001
    19  H   -0.000267   0.000546   0.000012  -0.004445  -0.000009   0.000000
    20  O   -0.028293  -0.000068   0.001323   0.003023  -0.000112   0.000003
    21  H   -0.007057   0.000019   0.005305  -0.000186  -0.000008  -0.000000
    22  O    0.007388   0.001960  -0.037234  -0.000140  -0.000542  -0.000219
    23  H    0.000916   0.006192   0.006744   0.000098  -0.000217   0.000019
    24  O   -0.000000  -0.000000   0.000000   0.000006  -0.000000  -0.000000
    25  H    0.000000   0.000007   0.000008  -0.000004  -0.000006   0.000001
    26  H    0.000000   0.000000  -0.000000  -0.000001   0.000000   0.000000
    27  H    0.000004  -0.000016  -0.000002  -0.000101   0.000001   0.000003
    28  O   -0.000037  -0.000138  -0.000020   0.000036  -0.000093   0.000005
    29  H    0.000032   0.001866   0.000889  -0.000179  -0.002139  -0.000074
    30  H    0.000364   0.000032   0.000052   0.000085  -0.000030   0.000001
              13         14         15         16         17         18
     1  O    0.002494  -0.051856  -0.049848   0.001397   0.000096   0.001150
     2  C   -0.017676   0.001182   0.000587   0.003952   0.001389   0.003698
     3  C    0.000027  -0.115501  -0.053579  -0.000000  -0.000004   0.166690
     4  C   -0.000285   0.002978  -0.001262   0.000112   0.000539  -0.043591
     5  C   -0.000094   0.359693   0.372955  -0.000003  -0.000013  -0.031196
     6  C   -0.042207  -0.004125   0.001481  -0.032527  -0.009458  -0.005261
     7  H   -0.000006  -0.000287  -0.000163   0.000002   0.000004   0.002657
     8  H    0.007174   0.010406   0.000108   0.005157   0.000068   0.007726
     9  H    0.007425   0.000021   0.000004   0.000092  -0.001145   0.000034
    10  H   -0.000000   0.004768   0.008719  -0.000000   0.000000  -0.030504
    11  C    0.347113  -0.000288  -0.000055   0.264017  -0.036034   0.000242
    12  H   -0.050588  -0.000017  -0.000000  -0.037220   0.005458  -0.000001
    13  H    0.667888   0.000001   0.000003  -0.040028  -0.000586  -0.000005
    14  H    0.000001   0.737809  -0.044074   0.000004   0.000001   0.008396
    15  O    0.000003  -0.044074   8.382753   0.000000  -0.000000   0.001596
    16  O   -0.040028   0.000004   0.000000   8.250202   0.232517  -0.000001
    17  H   -0.000586   0.000001  -0.000000   0.232517   0.364621  -0.000001
    18  O   -0.000005   0.008396   0.001596  -0.000001  -0.000001   8.317827
    19  H    0.000000   0.007235   0.000055   0.000000  -0.000001   0.238323
    20  O   -0.000017   0.000045   0.000405   0.000000  -0.000008   0.001114
    21  H    0.000006   0.000014   0.000093   0.000000  -0.000002  -0.000091
    22  O    0.000311   0.000021  -0.000000  -0.007834   0.033698  -0.005246
    23  H    0.000019  -0.000040  -0.000003   0.000450  -0.000946   0.023143
    24  O    0.000000   0.000149  -0.066513  -0.000000   0.000000   0.000000
    25  H    0.000006   0.000088   0.005772   0.000000   0.000000   0.000000
    26  H    0.000000   0.000012   0.004165   0.000000   0.000000  -0.000000
    27  H   -0.000001  -0.002643   0.107925   0.000000   0.000000  -0.000019
    28  O    0.000084  -0.000141  -0.005137   0.000000  -0.000000   0.000000
    29  H    0.003196   0.001622   0.004651   0.000016   0.000006  -0.000023
    30  H   -0.000002   0.000242   0.007531   0.000000   0.000000   0.000011
              19         20         21         22         23         24
     1  O   -0.000194  -0.001695   0.000158   0.001598   0.000010  -0.000132
     2  C   -0.000085  -0.035039  -0.002077   0.198427  -0.030954   0.000002
     3  C   -0.028914  -0.039870   0.006204  -0.000019  -0.000808  -0.000140
     4  C    0.007128   0.184114  -0.019666  -0.027298  -0.008194   0.000002
     5  C   -0.000759   0.001870   0.000026   0.000274   0.000336   0.003380
     6  C   -0.000106   0.001288  -0.000225  -0.032150  -0.004441   0.000006
     7  H   -0.000267  -0.028293  -0.007057   0.007388   0.000916  -0.000000
     8  H    0.000546  -0.000068   0.000019   0.001960   0.006192  -0.000000
     9  H    0.000012   0.001323   0.005305  -0.037234   0.006744   0.000000
    10  H   -0.004445   0.003023  -0.000186  -0.000140   0.000098   0.000006
    11  C   -0.000009  -0.000112  -0.000008  -0.000542  -0.000217  -0.000000
    12  H    0.000000   0.000003  -0.000000  -0.000219   0.000019  -0.000000
    13  H    0.000000  -0.000017   0.000006   0.000311   0.000019   0.000000
    14  H    0.007235   0.000045   0.000014   0.000021  -0.000040   0.000149
    15  O    0.000055   0.000405   0.000093  -0.000000  -0.000003  -0.066513
    16  O    0.000000   0.000000   0.000000  -0.007834   0.000450  -0.000000
    17  H   -0.000001  -0.000008  -0.000002   0.033698  -0.000946   0.000000
    18  O    0.238323   0.001114  -0.000091  -0.005246   0.023143   0.000000
    19  H    0.373014  -0.000087   0.000008   0.000239  -0.000661   0.000000
    20  O   -0.000087   8.290332   0.231421   0.001456   0.000007  -0.000017
    21  H    0.000008   0.231421   0.376667   0.000007   0.000011   0.000001
    22  O    0.000239   0.001456   0.000007   8.274466   0.234493   0.000000
    23  H   -0.000661   0.000007   0.000011   0.234493   0.354660  -0.000000
    24  O    0.000000  -0.000017   0.000001   0.000000  -0.000000   8.428495
    25  H    0.000000   0.000094   0.000014   0.000000   0.000000   0.144422
    26  H    0.000000   0.000002  -0.000000  -0.000000   0.000000   0.235696
    27  H   -0.000005   0.000030  -0.000008  -0.000000   0.000000   0.148557
    28  O   -0.000000  -0.020566   0.001234   0.000000  -0.000000  -0.085055
    29  H    0.000005   0.001472   0.000162   0.000001   0.000008   0.002647
    30  H    0.000001   0.056243  -0.003344  -0.000002   0.000001   0.002752
              25         26         27         28         29         30
     1  O    0.002105   0.000005   0.000790  -0.073300   0.113336   0.003954
     2  C    0.000006  -0.000000  -0.000016  -0.000158  -0.000564   0.000560
     3  C    0.000026  -0.000003   0.002655  -0.000590   0.000028  -0.001894
     4  C   -0.000015  -0.000001  -0.000070   0.001880  -0.001004  -0.004246
     5  C   -0.000718  -0.000104  -0.007342   0.006813  -0.005804   0.000621
     6  C   -0.000058   0.000000   0.000018   0.005362  -0.011241  -0.000244
     7  H    0.000000   0.000000   0.000004  -0.000037   0.000032   0.000364
     8  H    0.000007   0.000000  -0.000016  -0.000138   0.001866   0.000032
     9  H    0.000008  -0.000000  -0.000002  -0.000020   0.000889   0.000052
    10  H   -0.000004  -0.000001  -0.000101   0.000036  -0.000179   0.000085
    11  C   -0.000006   0.000000   0.000001  -0.000093  -0.002139  -0.000030
    12  H    0.000001   0.000000   0.000003   0.000005  -0.000074   0.000001
    13  H    0.000006   0.000000  -0.000001   0.000084   0.003196  -0.000002
    14  H    0.000088   0.000012  -0.002643  -0.000141   0.001622   0.000242
    15  O    0.005772   0.004165   0.107925  -0.005137   0.004651   0.007531
    16  O    0.000000   0.000000   0.000000   0.000000   0.000016   0.000000
    17  H    0.000000   0.000000   0.000000  -0.000000   0.000006   0.000000
    18  O    0.000000  -0.000000  -0.000019   0.000000  -0.000023   0.000011
    19  H    0.000000   0.000000  -0.000005  -0.000000   0.000005   0.000001
    20  O    0.000094   0.000002   0.000030  -0.020566   0.001472   0.056243
    21  H    0.000014  -0.000000  -0.000008   0.001234   0.000162  -0.003344
    22  O    0.000000  -0.000000  -0.000000   0.000000   0.000001  -0.000002
    23  H    0.000000   0.000000   0.000000  -0.000000   0.000008   0.000001
    24  O    0.144422   0.235696   0.148557  -0.085055   0.002647   0.002752
    25  H    0.280996  -0.005837  -0.018363   0.138638  -0.006509  -0.000969
    26  H   -0.005837   0.369927  -0.011075   0.003630  -0.000126   0.000048
    27  H   -0.018363  -0.011075   0.325381   0.009404  -0.000171  -0.001118
    28  O    0.138638   0.003630   0.009404   8.459834   0.158550   0.210413
    29  H   -0.006509  -0.000126  -0.000171   0.158550   0.289254  -0.016346
    30  H   -0.000969   0.000048  -0.001118   0.210413  -0.016346   0.295696
 Mulliken charges:
               1
     1  O   -0.629201
     2  C    0.072150
     3  C    0.066400
     4  C    0.096547
     5  C    0.382435
     6  C    0.125092
     7  H    0.154123
     8  H    0.141474
     9  H    0.132681
    10  H    0.153660
    11  C   -0.033105
    12  H    0.154486
    13  H    0.115744
    14  H    0.084288
    15  O   -0.678171
    16  O   -0.640306
    17  H    0.409801
    18  O   -0.656668
    19  H    0.408967
    20  O   -0.648470
    21  H    0.411312
    22  O   -0.643657
    23  H    0.419155
    24  O   -0.814255
    25  H    0.460296
    26  H    0.403662
    27  H    0.446182
    28  O   -0.810649
    29  H    0.466441
    30  H    0.449588
 Sum of Mulliken charges =  -0.00000
 Mulliken charges with hydrogens summed into heavy atoms:
               1
     1  O   -0.629201
     2  C    0.204831
     3  C    0.220060
     4  C    0.250670
     5  C    0.466723
     6  C    0.266565
    11  C    0.237125
    15  O   -0.678171
    16  O   -0.230506
    18  O   -0.247702
    20  O   -0.237158
    22  O   -0.224502
    24  O    0.035589
    28  O    0.565675
 APT charges:
               1
     1  O   -0.427019
     2  C   -0.193846
     3  C   -0.289625
     4  C   -0.423528
     5  C   -0.352611
     6  C   -0.266310
     7  H    0.526136
     8  H    0.356791
     9  H    0.378963
    10  H    0.499220
    11  C   -0.590817
    12  H    0.462374
    13  H    0.326085
    14  H    0.341642
    15  O   -0.382432
    16  O   -0.506654
    17  H    0.426347
    18  O   -0.961177
    19  H    0.791092
    20  O   -0.907159
    21  H    0.760650
    22  O   -0.706040
    23  H    0.536597
    24  O   -1.146457
    25  H    0.483327
    26  H    0.901249
    27  H    0.243578
    28  O   -0.595293
    29  H    0.314358
    30  H    0.400564
 Sum of APT charges =  -0.00000
 APT charges with hydrogens summed into heavy atoms:
               1
     1  O   -0.427019
     2  C    0.185116
     3  C    0.209595
     4  C    0.102608
     5  C   -0.010969
     6  C    0.090481
    11  C    0.197641
    15  O   -0.382432
    16  O   -0.080307
    18  O   -0.170085
    20  O   -0.146510
    22  O   -0.169443
    24  O   -0.001631
    28  O    0.602955
 Electronic spatial extent (au):  <R**2>=           2979.3064
 Charge=              0.0000 electrons
 Dipole moment (field-independent basis, Debye):
    X=              1.3886    Y=             -3.1935    Z=              2.5825  Tot=              4.3354
 Quadrupole moment (field-independent basis, Debye-Ang):
   XX=            -89.9116   YY=            -87.6829   ZZ=            -74.7379
   XY=              5.1076   XZ=              4.5221   YZ=              4.5374
 Traceless Quadrupole moment (field-independent basis, Debye-Ang):
   XX=             -5.8008   YY=             -3.5722   ZZ=              9.3729
   XY=              5.1076   XZ=              4.5221   YZ=              4.5374
 Octapole moment (field-independent basis, Debye-Ang**2):
  XXX=             89.6670  YYY=            -29.2677  ZZZ=             20.2542  XYY=              8.0371
  XXY=            -21.7313  XXZ=             20.9057  XZZ=              0.2855  YZZ=            -18.0699
  YYZ=             -8.6278  XYZ=             -6.4001
 Hexadecapole moment (field-independent basis, Debye-Ang**3):
 XXXX=          -1668.3729 YYYY=          -1045.4469 ZZZZ=           -429.3171 XXXY=             88.6222
 XXXZ=             77.9866 YYYX=             40.8221 YYYZ=             38.4018 ZZZX=             12.4114
 ZZZY=             10.1685 XXYY=           -606.9148 XXZZ=           -425.9797 YYZZ=           -237.2331
 XXYZ=             45.6377 YYXZ=             -5.4798 ZZXY=              8.9260
 N-N= 1.132927642616D+03 E-N=-4.238230143392D+03  KE= 8.327663679692D+02
  Exact polarizability:   0.000   0.000   0.000   0.000   0.000   0.000
 Approx polarizability: 154.289   1.551 126.288   4.455   6.305 126.952
 Calling FoFJK, ICntrl=    100147 FMM=F ISym2X=0 I1Cent= 0 IOpClX= 0 NMat=1 NMatS=1 NMatT=0.
 ***** Axes restored to original set *****
 -------------------------------------------------------------------
 Center     Atomic                   Forces (Hartrees/Bohr)
 Number     Number              X              Y              Z
 -------------------------------------------------------------------
      1        8           0.000092833   -0.000206817    0.000038300
      2        6           0.000430681   -0.000104874    0.000162204
      3        6          -0.000098324   -0.000293253   -0.000386131
      4        6           0.000147446    0.000079614   -0.000293886
      5        6          -0.000346308   -0.000090560    0.000191089
      6        6           0.000496896   -0.000168396    0.000064397
      7        1           0.000124084    0.000133417   -0.000394907
      8        1          -0.000144284   -0.000208032    0.000254994
      9        1          -0.000088990    0.000397448   -0.000471843
     10        1           0.000161791    0.000001984   -0.000529138
     11        6           0.000655113   -0.000197179   -0.000024524
     12        1           0.000547121    0.000045855   -0.000064597
     13        1           0.000057477    0.000281880   -0.000975218
     14        1          -0.000706210   -0.000276783    0.000018203
     15        8          -0.000181973   -0.000269779    0.000680283
     16        8          -0.000932874    0.001004484    0.000943820
     17        1          -0.000159138   -0.000680639   -0.000734263
     18        8           0.000033989    0.003308862    0.000101917
     19        1           0.001617078   -0.002249572    0.001628038
     20        8           0.000324142    0.000388696    0.000393973
     21        1          -0.000082589    0.000251147   -0.000659069
     22        8          -0.000736656   -0.000176857   -0.000223200
     23        1           0.000111673   -0.000339359    0.000314519
     24        8          -0.000101767    0.000389540   -0.000197874
     25        1          -0.000162522   -0.000049654    0.000056963
     26        1          -0.000294849   -0.000406269   -0.000257436
     27        1          -0.000499199   -0.000279681    0.000245962
     28        8           0.000016474    0.000090522    0.000069090
     29        1          -0.000111732   -0.000116962    0.000001911
     30        1          -0.000169380   -0.000258783    0.000046423
 -------------------------------------------------------------------
 Cartesian Forces:  Max     0.003308862 RMS     0.000605263

 GradGradGradGradGradGradGradGradGradGradGradGradGradGradGradGradGradGrad
 Berny optimization.
 Search for a saddle point.
 Step number   1 out of a maximum of  180
 All quantities printed in internal units (Hartrees-Bohrs-Radians)
 Swapping is turned off.
 Second derivative matrix not updated -- analytic derivatives used.
 ITU=  0
     Eigenvalues ---   -0.01718   0.00061   0.00124   0.00151   0.00260
     Eigenvalues ---    0.00269   0.00397   0.00424   0.00535   0.00660
     Eigenvalues ---    0.00775   0.00945   0.01033   0.01219   0.01272
     Eigenvalues ---    0.01334   0.01543   0.01994   0.02152   0.02417
     Eigenvalues ---    0.02640   0.02697   0.03259   0.03672   0.03874
     Eigenvalues ---    0.04121   0.04703   0.05080   0.05304   0.05428
     Eigenvalues ---    0.06021   0.06306   0.06858   0.07124   0.07357
     Eigenvalues ---    0.07806   0.08373   0.08554   0.09014   0.09639
     Eigenvalues ---    0.10367   0.10890   0.11357   0.12414   0.13920
     Eigenvalues ---    0.14462   0.14930   0.16114   0.17299   0.18186
     Eigenvalues ---    0.18953   0.20017   0.22150   0.23265   0.23756
     Eigenvalues ---    0.26152   0.29847   0.31247   0.34385   0.36127
     Eigenvalues ---    0.38869   0.43247   0.47555   0.51013   0.54446
     Eigenvalues ---    0.57539   0.61870   0.63253   0.64552   0.66032
     Eigenvalues ---    0.72721   0.72786   0.80076   0.82818   0.85987
     Eigenvalues ---    0.86878   0.87376   0.90249   0.98841   1.00158
     Eigenvalues ---    1.03528   1.04016   1.06266   1.12525
 Eigenvectors required to have negative eigenvalues:
                          X27       X25       Z29       Z25       X29
   1                    0.38895  -0.36590   0.29452  -0.28445  -0.27843
                          Y27       X24       Y29       Y5        Y15
   1                    0.26370   0.24392  -0.23565  -0.21134  -0.15889
 RFO step:  Lambda0=1.395865259D-06 Lambda=-9.68047696D-04.
 Linear search not attempted -- option 19 set.
 Maximum step size (   0.300) exceeded in Quadratic search.
    -- Step size scaled by   0.677
 B after Tr=     0.001569    0.002712    0.005206
         Rot=    1.000000   -0.000578   -0.000077   -0.000002 Ang=  -0.07 deg.
 Variable       Old X    -DE/DX   Delta X   Delta X   Delta X     New X
                                 (Linear)    (Quad)   (Total)
    X1       -0.70746   0.00009   0.00000  -0.00114   0.00025  -0.70721
    Y1       -1.36883  -0.00021   0.00000   0.00433   0.00840  -1.36043
    Z1       -1.16664   0.00004   0.00000  -0.00700  -0.00326  -1.16990
    X2        2.74343   0.00043   0.00000  -0.00812  -0.00634   2.73709
    Y2        0.35027  -0.00010   0.00000  -0.00535  -0.00421   0.34606
    Z2        1.36912   0.00016   0.00000   0.00209   0.00727   1.37639
    X3       -0.38459  -0.00010   0.00000   0.01155   0.01301  -0.37158
    Y3        3.40352  -0.00029   0.00000   0.00449   0.00790   3.41141
    Z3       -0.59814  -0.00039   0.00000  -0.00510   0.00410  -0.59403
    X4        0.82513   0.00015   0.00000   0.00251   0.00435   0.82949
    Y4        2.49947   0.00008   0.00000   0.00725   0.00781   2.50728
    Z4        1.86837  -0.00029   0.00000  -0.00167   0.00631   1.87468
    X5       -1.90654  -0.00035   0.00000  -0.00955  -0.00829  -1.91483
    Y5        1.32239  -0.00009   0.00000   0.00027   0.00530   1.32769
    Z5       -2.03496   0.00019   0.00000   0.02031   0.02734  -2.00762
    X6        1.96264   0.00050   0.00000  -0.00048   0.00095   1.96359
    Y6       -1.29922  -0.00017   0.00000   0.00892   0.01272  -1.28650
    Z6       -0.91868   0.00006   0.00000  -0.00933  -0.00592  -0.92459
    X7        1.87165   0.00012   0.00000   0.01489   0.01685   1.88850
    Y7        4.08137   0.00013   0.00000   0.00505   0.00466   4.08603
    Z7        2.70669  -0.00039   0.00000  -0.01261  -0.00297   2.70372
    X8        2.75276  -0.00014   0.00000  -0.00396  -0.00280   2.74996
    Y8       -0.42250  -0.00021   0.00000   0.02441   0.03018  -0.39232
    Z8       -2.62922   0.00025   0.00000  -0.00193   0.00240  -2.62682
    X9        2.84454  -0.00009   0.00000  -0.02779  -0.02574   2.81880
    Y9       -0.82548   0.00040   0.00000  -0.01186  -0.01269  -0.83817
    Z9        3.07913  -0.00047   0.00000  -0.00288   0.00092   3.08005
   X10       -1.72972   0.00016   0.00000   0.01866   0.02017  -1.70955
   Y10        4.92537   0.00000   0.00000   0.01581   0.01875   4.94413
   Z10       -0.18439  -0.00053   0.00000  -0.02419  -0.01301  -0.19740
   X11        3.04742   0.00066   0.00000   0.00890   0.01037   3.05779
   Y11       -3.97314  -0.00020   0.00000   0.01187   0.01548  -3.95766
   Z11       -0.72454  -0.00002   0.00000  -0.03267  -0.03251  -0.75705
   X12        2.31207   0.00055   0.00000   0.04041   0.04164   2.35371
   Y12       -5.12834   0.00005   0.00000   0.03007   0.03550  -5.09284
   Z12       -2.27533  -0.00006   0.00000  -0.06108  -0.06213  -2.33746
   X13        2.41910   0.00006   0.00000  -0.01688  -0.01513   2.40397
   Y13       -4.84860   0.00028   0.00000  -0.01656  -0.01500  -4.86360
   Z13        1.06711  -0.00098   0.00000  -0.05756  -0.05835   1.00876
   X14       -1.27554  -0.00071   0.00000  -0.06215  -0.06121  -1.33674
   Y14        1.27835  -0.00028   0.00000   0.00120   0.00858   1.28693
   Z14       -4.04413   0.00002   0.00000   0.00238   0.00927  -4.03485
   X15       -4.29645  -0.00018   0.00000  -0.00082   0.00052  -4.29593
   Y15        1.37039  -0.00027   0.00000   0.00114   0.00555   1.37595
   Z15       -1.56377   0.00068   0.00000   0.07487   0.08233  -1.48145
   X16        5.72390  -0.00093   0.00000   0.00952   0.01097   5.73488
   Y16       -3.95317   0.00100   0.00000   0.02739   0.03119  -3.92198
   Z16       -0.92362   0.00094   0.00000   0.01109   0.01087  -0.91275
   X17        6.33219  -0.00016   0.00000  -0.01050  -0.00892   6.32326
   Y17       -2.46365  -0.00068   0.00000   0.03764   0.04041  -2.42324
   Z17       -0.02526  -0.00073   0.00000   0.00538   0.00681  -0.01845
   X18        1.71205   0.00003   0.00000   0.03118   0.03242   1.74447
   Y18        4.31518   0.00331   0.00000  -0.00554  -0.00045   4.31473
   Z18       -2.06153   0.00010   0.00000   0.01657   0.02649  -2.03504
   X19        1.03757   0.00162   0.00000   0.06516   0.06614   1.10370
   Y19        5.10418  -0.00225   0.00000  -0.18515  -0.17819   4.92599
   Z19       -3.57724   0.00163   0.00000  -0.08807  -0.07734  -3.65458
   X20       -1.16047   0.00032   0.00000   0.00104   0.00315  -1.15732
   Y20        1.75781   0.00039   0.00000   0.02579   0.02435   1.78216
   Z20        3.58183   0.00039   0.00000   0.00169   0.00913   3.59096
   X21       -0.40443  -0.00008   0.00000   0.00027   0.00264  -0.40179
   Y21        1.58209   0.00025   0.00000   0.03928   0.03592   1.61800
   Z21        5.24413  -0.00066   0.00000   0.00240   0.00954   5.25367
   X22        5.24685  -0.00074   0.00000  -0.00051   0.00122   5.24807
   Y22        1.31120  -0.00018   0.00000  -0.02133  -0.01981   1.29139
   Z22        1.03239  -0.00022   0.00000   0.02031   0.02620   1.05859
   X23        5.15032   0.00011   0.00000   0.01384   0.01533   5.16566
   Y23        2.45689  -0.00034   0.00000  -0.01854  -0.01536   2.44153
   Z23       -0.40868   0.00031   0.00000   0.02208   0.02931  -0.37936
   X24       -7.09347  -0.00010   0.00000  -0.00411  -0.00265  -7.09612
   Y24       -2.27728   0.00039   0.00000  -0.02113  -0.01759  -2.29487
   Z24       -0.73331  -0.00020   0.00000  -0.01434  -0.01070  -0.74401
   X25       -5.35715  -0.00016   0.00000  -0.01218  -0.01042  -5.36757
   Y25       -2.57339  -0.00005   0.00000  -0.00346  -0.00215  -2.57554
   Z25        1.18879   0.00006   0.00000   0.00142   0.00447   1.19326
   X26       -8.59750  -0.00029   0.00000  -0.04001  -0.03846  -8.63595
   Y26       -1.43314  -0.00041   0.00000  -0.06934  -0.06651  -1.49964
   Z26       -0.10813  -0.00026   0.00000  -0.03666  -0.03186  -0.14000
   X27       -6.01258  -0.00050   0.00000  -0.01816  -0.01683  -6.02940
   Y27       -0.81239  -0.00028   0.00000   0.00530   0.00974  -0.80265
   Z27       -1.53892   0.00025   0.00000   0.01919   0.02439  -1.51454
   X28       -3.60520   0.00002   0.00000  -0.01309  -0.01115  -3.61635
   Y28       -2.59055   0.00009   0.00000   0.01099   0.01101  -2.57954
   Z28        2.31464   0.00007   0.00000   0.00234   0.00512   2.31976
   X29       -2.23486  -0.00011   0.00000  -0.01438  -0.01267  -2.24752
   Y29       -2.37555  -0.00012   0.00000   0.00061   0.00232  -2.37322
   Z29        0.84783   0.00000   0.00000   0.00737   0.01017   0.85800
   X30       -3.39144  -0.00017   0.00000  -0.02143  -0.01939  -3.41083
   Y30       -0.88300  -0.00026   0.00000   0.01701   0.01619  -0.86681
   Z30        3.05080   0.00005   0.00000  -0.00915  -0.00442   3.04637
         Item               Value     Threshold  Converged?
 Maximum Force            0.003309     0.000450     NO 
 RMS     Force            0.000605     0.000300     NO 
 Maximum Displacement     0.178195     0.001800     NO 
 RMS     Displacement     0.031340     0.001200     NO 
 Predicted change in Energy=-4.771789D-04
 GradGradGradGradGradGradGradGradGradGradGradGradGradGradGradGradGradGrad

                          Input orientation:                          
 ---------------------------------------------------------------------
 Center     Atomic      Atomic             Coordinates (Angstroms)
 Number     Number       Type             X           Y           Z
 ---------------------------------------------------------------------
      1          8           0       -0.374240   -0.719910   -0.619083
      2          6           0        1.448406    0.183129    0.728353
      3          6           0       -0.196632    1.805241   -0.314348
      4          6           0        0.438946    1.326797    0.992036
      5          6           0       -1.013286    0.702585   -1.062388
      6          6           0        1.039085   -0.680785   -0.489273
      7          1           0        0.999350    2.162233    1.430749
      8          1           0        1.455217   -0.207608   -1.390054
      9          1           0        1.491644   -0.443540    1.629895
     10          1           0       -0.904656    2.616318   -0.104457
     11          6           0        1.618114   -2.094304   -0.400613
     12          1           0        1.245531   -2.695015   -1.236933
     13          1           0        1.272126   -2.573706    0.533814
     14          1           0       -0.707374    0.681015   -2.135153
     15          8           0       -2.273308    0.728119   -0.783948
     16          8           0        3.034765   -2.075424   -0.483007
     17          1           0        3.346127   -1.282323   -0.009762
     18          8           0        0.923133    2.283255   -1.076897
     19          1           0        0.584054    2.606720   -1.933922
     20          8           0       -0.612427    0.943077    1.900253
     21          1           0       -0.212616    0.856211    2.780124
     22          8           0        2.777156    0.683374    0.560183
     23          1           0        2.733547    1.292003   -0.200749
     24          8           0       -3.755103   -1.214391   -0.393713
     25          1           0       -2.840396   -1.362915    0.631444
     26          1           0       -4.569950   -0.793576   -0.074084
     27          1           0       -3.190622   -0.424743   -0.801458
     28          8           0       -1.913691   -1.365032    1.227563
     29          1           0       -1.189337   -1.255855    0.454035
     30          1           0       -1.804934   -0.458694    1.612072
 ---------------------------------------------------------------------
                    Distance matrix (angstroms):
                    1          2          3          4          5
     1  O    0.000000
     2  C    2.439898   0.000000
     3  C    2.549667   2.534685   0.000000
     4  C    2.728733   1.548068   1.529545   0.000000
     5  C    1.621232   3.088126   1.562798   2.592157   0.000000
     6  C    1.419813   1.548065   2.781712   2.566092   2.540551
     7  H    3.794115   2.147525   2.145502   1.097486   3.520939
     8  H    2.050308   2.154152   2.817323   3.010242   2.651287
     9  H    2.935269   1.098799   3.418680   2.156184   3.851839
    10  H    3.417104   3.485812   1.096904   2.161118   2.142850
    11  C    2.430260   2.547561   4.301999   3.877349   3.896768
    12  H    2.628010   3.491020   4.814905   4.668389   4.083676
    13  H    2.734273   2.769306   4.695935   4.014732   4.301750
    14  H    2.090942   3.618694   2.200016   3.392698   1.115738
    15  O    2.393831   4.054039   2.386064   3.296795   1.290673
    16  O    3.671137   3.014131   5.052716   4.526492   4.943656
    17  H    3.811655   2.508726   4.709243   4.032717   4.904321
    18  O    3.303297   2.818753   1.436611   2.330179   2.499689
    19  H    3.703188   3.702514   1.968466   3.196951   2.633780
    20  O    3.028088   2.489559   2.412607   1.441348   2.999295
    21  H    3.750318   2.724297   3.236769   1.960418   3.928050
    22  O    3.645706   1.429721   3.296484   2.463274   4.123174
    23  H    3.725741   1.935051   2.976956   2.586338   3.889550
    24  O    3.424257   5.503508   4.667676   5.095879   3.411669
    25  H    2.838873   4.559985   4.233347   4.256602   3.236308
    26  H    4.231599   6.149672   5.092886   5.542709   3.983102
    27  H    2.837674   4.922440   3.764848   4.411153   2.465714
    28  O    2.489216   3.734931   3.921278   3.582781   3.213977
    29  H    1.450242   3.017220   3.308503   3.100136   2.483147
    30  H    2.663301   3.431781   3.379813   2.933840   3.021260
                    6          7          8          9         10
     6  C    0.000000
     7  H    3.430862   0.000000
     8  H    1.099304   3.712261   0.000000
     9  H    2.179901   2.659335   3.029369   0.000000
    10  H    3.846700   2.487627   3.898245   4.255932   0.000000
    11  C    1.530088   4.674918   2.136621   2.619919   5.351825
    12  H    2.158411   5.547071   2.500922   3.653548   5.840896
    13  H    2.164293   4.827837   3.055030   2.405657   5.664108
    14  H    2.759265   4.221679   2.453900   4.502876   2.812124
    15  O    3.611619   4.203791   3.891639   4.623233   2.429036
    16  O    2.434706   5.075737   2.608916   3.083605   6.137978
    17  H    2.431917   4.409920   2.575996   2.613645   5.768668
    18  O    3.023951   2.511721   2.566238   3.883984   2.096994
    19  H    3.619635   3.419218   2.995857   4.777928   2.358663
    20  O    3.327801   2.074753   4.052820   2.534347   2.627546
    21  H    3.823359   2.235032   4.615599   2.432464   3.449305
    22  O    2.446054   2.470932   2.518887   2.016621   4.211147
    23  H    2.616552   2.535059   2.301609   2.811706   3.872932
    24  O    4.824739   6.110243   5.399421   5.676050   4.783623
    25  H    4.095324   5.273444   4.886050   4.539683   4.485860
    26  H    5.625511   6.482163   6.194980   6.306265   5.006265
    27  H    4.248934   5.406575   4.688007   5.275930   3.867752
    28  O    3.483477   4.579159   4.420531   3.550680   4.317821
    29  H    2.487248   4.174644   3.390155   3.038118   3.922587
    30  H    3.543081   3.842674   4.438963   3.296661   3.634924
                   11         12         13         14         15
    11  C    0.000000
    12  H    1.095036   0.000000
    13  H    1.105752   1.775097   0.000000
    14  H    4.014837   4.002277   4.651346   0.000000
    15  O    4.822467   4.930038   5.020822   2.068847   0.000000
    16  O    1.419171   2.038052   2.095019   4.932661   6.010496
    17  H    1.948873   2.813210   2.502923   4.980247   6.018247
    18  O    4.483679   4.991265   5.128962   2.519054   3.566722
    19  H    5.051727   5.388112   5.779272   2.327363   3.607784
    20  O    4.415312   5.150695   4.217399   4.045021   3.163806
    21  H    4.708949   5.556451   4.360584   4.943220   4.118916
    22  O    3.159430   4.121773   3.588088   4.405314   5.226460
    23  H    3.570884   4.379976   4.197504   3.994392   5.072149
    24  O    5.444792   5.282955   5.289714   3.989214   2.474135
    25  H    4.634478   4.686163   4.288168   4.047406   2.587923
    26  H    6.331718   6.227962   6.137447   4.619732   2.845000
    27  H    5.106080   5.002322   5.130021   3.027865   1.473384
    28  O    3.956823   4.221763   3.477300   4.116962   2.925198
    29  H    3.052081   3.295320   2.793188   3.269197   2.577547
    30  H    4.294576   4.735325   3.886414   4.067588   2.714555
                   16         17         18         19         20
    16  O    0.000000
    17  H    0.974636   0.000000
    18  O    4.879526   4.441061   0.000000
    19  H    5.480293   5.143549   0.976779   0.000000
    20  O    5.300310   4.926532   3.607970   4.347433   0.000000
    21  H    5.457837   5.002144   4.266496   5.091286   0.970343
    22  O    2.960670   2.124271   2.945684   3.837906   3.654109
    23  H    3.392634   2.653090   2.242279   3.058217   3.966296
    24  O    6.844827   7.111927   5.881000   5.983429   4.448973
    25  H    6.022224   6.220186   5.511546   5.836606   3.448380
    26  H    7.722826   7.931411   6.375460   6.448625   4.751417
    27  H    6.448380   6.640129   4.932758   4.971963   3.977093
    28  O    5.283742   5.404027   5.164117   5.657609   2.733710
    29  H    4.403723   4.559193   4.396770   4.875115   2.694379
    30  H    5.515964   5.462796   4.710752   5.260998   1.862816
                   21         22         23         24         25
    21  H    0.000000
    22  O    3.727834   0.000000
    23  H    4.213715   0.975372   0.000000
    24  O    5.187470   6.868904   6.958580   0.000000
    25  H    4.055438   5.979069   6.229766   1.381917   0.000000
    26  H    5.463941   7.520881   7.596496   0.971197   1.952760
    27  H    4.830848   6.220640   6.197084   1.052825   1.748152
    28  O    3.199691   5.161920   5.540464   2.458053   1.101882
    29  H    3.290213   4.416441   4.723277   2.702508   1.664010
    30  H    2.372509   4.838010   5.191250   2.897828   1.688617
                   26         27         28         29         30
    26  H    0.000000
    27  H    1.602391   0.000000
    28  O    3.012732   2.575194   0.000000
    29  H    3.452702   2.504426   1.065343   0.000000
    30  H    3.255853   2.783238   0.990517   1.534756   0.000000
 Stoichiometry    C6H16O8
 Framework group  C1[X(C6H16O8)]
 Deg. of freedom    84
 Full point group                 C1      NOp   1
 Largest Abelian subgroup         C1      NOp   1
 Largest concise Abelian subgroup C1      NOp   1
                         Standard orientation:                         
 ---------------------------------------------------------------------
 Center     Atomic      Atomic             Coordinates (Angstroms)
 Number     Number       Type             X           Y           Z
 ---------------------------------------------------------------------
      1          8           0        0.377482    0.727371   -0.616875
      2          6           0       -1.446345   -0.182493    0.724358
      3          6           0        0.189981   -1.800140   -0.338789
      4          6           0       -0.441139   -1.333070    0.973858
      5          6           0        1.009786   -0.692929   -1.076585
      6          6           0       -1.035746    0.692692   -0.484759
      7          1           0       -1.004173   -2.170829    1.404703
      8          1           0       -1.455537    0.230892   -1.389737
      9          1           0       -1.485280    0.434676    1.632624
     10          1           0        0.895031   -2.616329   -0.138943
     11          6           0       -1.608740    2.107559   -0.379886
     12          1           0       -1.235250    2.715634   -1.210460
     13          1           0       -1.259003    2.575513    0.558939
     14          1           0        0.701940   -0.658631   -2.148465
     15          8           0        2.270215   -0.726636   -0.800870
     16          8           0       -3.025610    2.095406   -0.459738
     17          1           0       -3.339364    1.298583    0.005609
     18          8           0       -0.933195   -2.265350   -1.104235
     19          1           0       -0.597079   -2.581032   -1.965320
     20          8           0        0.613529   -0.963422    1.884088
     21          1           0        0.215745   -0.884318    2.765607
     22          8           0       -2.777473   -0.675425    0.553423
     23          1           0       -2.737825   -1.276060   -0.214050
     24          8           0        3.760786    1.205460   -0.392772
     25          1           0        2.848640    1.346790    0.635679
     26          1           0        4.574483    0.777894   -0.079232
     27          1           0        3.192266    0.422552   -0.807837
     28          8           0        1.923080    1.346357    1.233577
     29          1           0        1.196820    1.248446    0.460328
     30          1           0        1.811292    0.436417    1.608592
 ---------------------------------------------------------------------
 Rotational constants (GHZ):      0.8360181      0.4998672      0.4115847
 Standard basis: 6-31G(d) (6D, 7F)
 There are   242 symmetry adapted cartesian basis functions of A   symmetry.
 There are   242 symmetry adapted basis functions of A   symmetry.
   242 basis functions,   456 primitive gaussians,   242 cartesian basis functions
    58 alpha electrons       58 beta electrons
       nuclear repulsion energy      1133.3174166658 Hartrees.
 NAtoms=   30 NActive=   30 NUniq=   30 SFac= 1.00D+00 NAtFMM=   60 NAOKFM=F Big=F
 Integral buffers will be    131072 words long.
 Raffenetti 2 integral format.
 Two-electron integral symmetry is turned on.
 One-electron integrals computed using PRISM.
 NBasis=   242 RedAO= T EigKep=  1.56D-03  NBF=   242
 NBsUse=   242 1.00D-06 EigRej= -1.00D+00 NBFU=   242
 Initial guess from the checkpoint file:  "/scratch/10455169.yak.local/Gau-28948.chk"
 B after Tr=     0.000000   -0.000000    0.000000
         Rot=    0.999988   -0.004300   -0.000834    0.002067 Ang=  -0.56 deg.
 ExpMin= 1.61D-01 ExpMax= 5.48D+03 ExpMxC= 8.25D+02 IAcc=1 IRadAn=         1 AccDes= 0.00D+00
 Harris functional with IExCor=  402 and IRadAn=       1 diagonalized for initial guess.
 HarFok:  IExCor=  402 AccDes= 0.00D+00 IRadAn=         1 IDoV= 1 UseB2=F ITyADJ=14
 ICtDFT=  3500011 ScaDFX=  1.000000  1.000000  1.000000  1.000000
 FoFCou: FMM=F IPFlag=           0 FMFlag=      100000 FMFlg1=           0
         NFxFlg=           0 DoJE=T BraDBF=F KetDBF=T FulRan=T
         wScrn=  0.000000 ICntrl=     500 IOpCl=  0 I1Cent=   200000004 NGrid=           0
         NMat0=    1 NMatS0=      1 NMatT0=    0 NMatD0=    1 NMtDS0=    0 NMtDT0=    0
 Petite list used in FoFCou.
 Requested convergence on RMS density matrix=1.00D-08 within 128 cycles.
 Requested convergence on MAX density matrix=1.00D-06.
 Requested convergence on             energy=1.00D-06.
 No special actions if energy rises.
 Integral accuracy reduced to 1.0D-05 until final iterations.
 Initial convergence to 1.0D-05 achieved.  Increase integral accuracy.
 SCF Done:  E(RB3LYP) =  -839.958786164     A.U. after   12 cycles
            NFock= 12  Conv=0.49D-08     -V/T= 2.0086
 Calling FoFJK, ICntrl=      2127 FMM=F ISym2X=0 I1Cent= 0 IOpClX= 0 NMat=1 NMatS=1 NMatT=0.
 ***** Axes restored to original set *****
 -------------------------------------------------------------------
 Center     Atomic                   Forces (Hartrees/Bohr)
 Number     Number              X              Y              Z
 -------------------------------------------------------------------
      1        8           0.000007214   -0.000048889   -0.000027694
      2        6           0.000103120    0.000021630    0.000090898
      3        6          -0.000109964   -0.000117717   -0.000021320
      4        6           0.000012276   -0.000016623   -0.000026932
      5        6          -0.000329886   -0.000037493    0.000065988
      6        6           0.000159516   -0.000077065    0.000016186
      7        1           0.000047296    0.000023538   -0.000130624
      8        1          -0.000038680   -0.000068679    0.000073008
      9        1          -0.000046089    0.000121716   -0.000189883
     10        1           0.000110023   -0.000041315   -0.000205022
     11        6           0.000240661   -0.000140074   -0.000070921
     12        1           0.000282962    0.000147958    0.000040998
     13        1           0.000069340    0.000130567   -0.000521549
     14        1          -0.000373354   -0.000046020    0.000224258
     15        8           0.000295181   -0.000106072    0.000173371
     16        8          -0.000414549    0.000362985    0.000357251
     17        1          -0.000095405   -0.000230198   -0.000264729
     18        8          -0.002061074    0.003273575   -0.005094599
     19        1           0.002761017   -0.002978538    0.005432354
     20        8           0.000171546    0.000141711    0.000210319
     21        1          -0.000035890    0.000122574   -0.000222087
     22        8          -0.000254670   -0.000097507   -0.000044374
     23        1           0.000033780   -0.000124720    0.000158660
     24        8          -0.000378376    0.000458221    0.000054087
     25        1          -0.000045800   -0.000032177    0.000038176
     26        1           0.000350044   -0.000407507   -0.000314672
     27        1          -0.000296354   -0.000140047    0.000174064
     28        8          -0.000025645    0.000013862    0.000042237
     29        1          -0.000061394   -0.000040276   -0.000004392
     30        1          -0.000076847   -0.000067420   -0.000013056
 -------------------------------------------------------------------
 Cartesian Forces:  Max     0.005432354 RMS     0.000998928

 GradGradGradGradGradGradGradGradGradGradGradGradGradGradGradGradGradGrad
 Berny optimization.
 Search for a saddle point.
 Step number   2 out of a maximum of  180
 All quantities printed in internal units (Hartrees-Bohrs-Radians)
 Swapping is turned off.
 Update second derivatives using D2CorN and points    1    2
 ITU=  0  0
     Eigenvalues ---   -0.01717   0.00061   0.00119   0.00152   0.00266
     Eigenvalues ---    0.00277   0.00416   0.00453   0.00543   0.00660
     Eigenvalues ---    0.00777   0.00944   0.01032   0.01221   0.01273
     Eigenvalues ---    0.01333   0.01542   0.01995   0.02153   0.02420
     Eigenvalues ---    0.02649   0.02697   0.03265   0.03674   0.03874
     Eigenvalues ---    0.04120   0.04701   0.05080   0.05305   0.05429
     Eigenvalues ---    0.06025   0.06307   0.06858   0.07126   0.07356
     Eigenvalues ---    0.07808   0.08373   0.08554   0.09013   0.09639
     Eigenvalues ---    0.10367   0.10890   0.11358   0.12414   0.13920
     Eigenvalues ---    0.14462   0.14931   0.16111   0.17298   0.18187
     Eigenvalues ---    0.18951   0.20029   0.22150   0.23276   0.23760
     Eigenvalues ---    0.26148   0.29838   0.31238   0.34386   0.36127
     Eigenvalues ---    0.38857   0.43254   0.47543   0.51013   0.54452
     Eigenvalues ---    0.57528   0.61871   0.63252   0.64552   0.66027
     Eigenvalues ---    0.72723   0.72783   0.80072   0.82822   0.85987
     Eigenvalues ---    0.86874   0.87381   0.90250   0.98799   1.00152
     Eigenvalues ---    1.03521   1.03984   1.06259   1.12516
 Eigenvectors required to have negative eigenvalues:
                          X27       X25       Z29       Z25       X29
   1                    0.38915  -0.36589   0.29453  -0.28443  -0.27836
                          Y27       X24       Y29       Y5        Y15
   1                    0.26368   0.24387  -0.23564  -0.21151  -0.15900
 RFO step:  Lambda0=5.832546802D-07 Lambda=-3.10838894D-04.
 Linear search not attempted -- option 19 set.
 Maximum step size (   0.300) exceeded in Quadratic search.
    -- Step size scaled by   0.958
 B after Tr=     0.001265   -0.000120    0.003827
         Rot=    1.000000    0.000067   -0.000202    0.000050 Ang=   0.03 deg.
 Variable       Old X    -DE/DX   Delta X   Delta X   Delta X     New X
                                 (Linear)    (Quad)   (Total)
    X1       -0.70721   0.00001   0.00000  -0.00558  -0.00493  -0.71214
    Y1       -1.36043  -0.00005   0.00000   0.00239   0.00219  -1.35825
    Z1       -1.16990  -0.00003   0.00000  -0.00580  -0.00150  -1.17140
    X2        2.73709   0.00010   0.00000  -0.01693  -0.01507   2.72202
    Y2        0.34606   0.00002   0.00000  -0.01125  -0.01146   0.33461
    Z2        1.37639   0.00009   0.00000   0.00837   0.01105   1.38744
    X3       -0.37158  -0.00011   0.00000   0.01661   0.01797  -0.35361
    Y3        3.41141  -0.00012   0.00000  -0.00028  -0.00045   3.41096
    Z3       -0.59403  -0.00002   0.00000  -0.01802  -0.01451  -0.60854
    X4        0.82949   0.00001   0.00000   0.00110   0.00337   0.83286
    Y4        2.50728  -0.00002   0.00000   0.01032   0.01037   2.51765
    Z4        1.87468  -0.00003   0.00000  -0.00699  -0.00383   1.87084
    X5       -1.91483  -0.00033   0.00000  -0.01966  -0.01907  -1.93390
    Y5        1.32769  -0.00004   0.00000   0.00058   0.00039   1.32808
    Z5       -2.00762   0.00007   0.00000   0.02148   0.02592  -1.98171
    X6        1.96359   0.00016   0.00000  -0.00436  -0.00360   1.95998
    Y6       -1.28650  -0.00008   0.00000   0.01038   0.00994  -1.27655
    Z6       -0.92459   0.00002   0.00000  -0.01005  -0.00685  -0.93144
    X7        1.88850   0.00005   0.00000   0.01695   0.01971   1.90821
    Y7        4.08603   0.00002   0.00000   0.00725   0.00730   4.09333
    Z7        2.70372  -0.00013   0.00000  -0.02096  -0.01846   2.68527
    X8        2.74996  -0.00004   0.00000  -0.00987  -0.00971   2.74025
    Y8       -0.39232  -0.00007   0.00000   0.03366   0.03292  -0.35941
    Z8       -2.62682   0.00007   0.00000   0.00047   0.00324  -2.62358
    X9        2.81880  -0.00005   0.00000  -0.05366  -0.05123   2.76757
    Y9       -0.83817   0.00012   0.00000  -0.02160  -0.02158  -0.85975
    Z9        3.08005  -0.00019   0.00000   0.00236   0.00519   3.08524
   X10       -1.70955   0.00011   0.00000   0.04107   0.04274  -1.66681
   Y10        4.94413  -0.00004   0.00000   0.02743   0.02744   4.97157
   Z10       -0.19740  -0.00021   0.00000  -0.04337  -0.03954  -0.23694
   X11        3.05779   0.00024   0.00000   0.00906   0.00960   3.06740
   Y11       -3.95766  -0.00014   0.00000   0.01424   0.01371  -3.94395
   Z11       -0.75705  -0.00007   0.00000  -0.04370  -0.04059  -0.79764
[...]
 401,-0.00004355,0.00014235,0.00021057,-0.00021172,0.00026155,-0.000004
 63,-0.00031533,-0.00023749,0.00057788,0.00043190,-0.00056604,-0.000025
 35,0.00004684,0.00008546,-0.00002049,-0.00019859,0.00028931,0.00047325
 ,-0.00042433,-0.00056149,0.02466836,0.01424573,0.00481687,-0.00012025,
 -0.00020562,0.00021559,0.00003350,0.00001099,-0.00006540,0.00137613,0.
 00071417,0.00059120,-0.00026938,-0.00029067,0.00004155,-0.00239826,-0.
 00303784,0.00147143,0.00017046,0.00037626,0.00018215,-0.00030008,-0.00
 015455,0.00033564,-0.00014854,0.00012275,-0.00014366,-0.16216505,-0.01
 372512,0.16133205,0.00495442,0.00834294,-0.00886588,-0.00068799,-0.000
 64393,0.00029453,-0.00112139,0.00012789,0.00020302,-0.00211310,-0.0013
 3789,0.00290053,0.01144598,-0.00988570,0.00178645,-0.00255654,0.001413
 28,-0.00110775,0.00053038,0.00038872,-0.00062966,0.00121026,0.00015919
 ,-0.00023528,-0.00033229,0.00025047,-0.00033357,-0.00003831,0.00038265
 ,0.00017783,-0.00109100,-0.00014900,0.00083820,0.00000344,-0.00004056,
 -0.00013777,0.00000660,0.00028368,-0.00039800,-0.00059743,0.00084229,-
 0.00015183,-0.01839495,-0.00621821,-0.00144815,0.00093350,-0.00008144,
 -0.00022149,-0.00029498,0.00009352,-0.00000921,-0.00065452,0.00015148,
 -0.00073103,0.00013898,-0.00005626,0.00002998,0.00397051,0.00600522,-0
 .00143830,0.00008334,-0.00082313,-0.00054338,0.00114594,0.00056086,-0.
 00025886,-0.00003824,-0.00026752,0.00015621,-0.00468241,-0.01431782,0.
 04062983,0.12012881,0.00097665,-0.00193298,0.00104686,-0.00007544,-0.0
 0003136,-0.00006551,-0.00010293,-0.00020323,0.00011668,0.00012981,-0.0
 0003014,-0.00056442,-0.00563737,0.00150028,0.00061819,-0.00057333,-0.0
 0027325,0.00000080,-0.00004761,-0.00003930,0.00018067,0.00002137,0.000
 03471,-0.00001626,-0.00000122,-0.00004485,0.00004629,0.00001965,-0.000
 09377,-0.00000850,0.00019019,0.00036185,-0.00001371,0.00001585,-0.0000
 0872,-0.00008082,-0.00004012,-0.00000759,0.00009903,0.00073425,-0.0001
 7570,-0.00047848,0.00337767,0.00149310,-0.00285264,0.00011318,-0.00027
 252,0.00003882,-0.00008153,0.00007775,-0.00003120,0.00045582,0.0002661
 6,0.00003504,-0.00010827,-0.00015327,0.00003371,-0.00116994,-0.0024154
 7,0.00024414,0.00009956,0.00011824,-0.00002793,0.00017679,0.00001206,0
 .00007146,-0.00009210,0.00001303,-0.00002523,-0.00706198,-0.02059158,-
 0.01053277,0.00213805,0.07271770,0.00198375,0.00808706,-0.01105661,-0.
 00055855,-0.00043268,0.00052036,-0.00082348,0.00026883,0.00012805,-0.0
 0177005,-0.00118290,0.00250644,0.01241546,-0.00652415,0.00000878,-0.00
 111413,0.00074081,-0.00035644,0.00035410,0.00027739,-0.00054985,0.0007
 0762,0.00009477,-0.00017964,-0.00025581,0.00026045,-0.00034354,-0.0000
 5035,0.00025823,0.00012511,-0.00078118,-0.00037773,0.00082028,0.000044
 40,-0.00006488,-0.00016990,0.00004413,0.00026399,-0.00036577,-0.000775
 46,0.00078348,0.00012710,-0.01467971,-0.00751103,0.00054048,0.00037267
 ,0.00009670,-0.00027570,-0.00013728,0.00005089,0.00005525,-0.00078490,
 -0.00022405,-0.00060651,0.00018042,0.00013852,-0.00000694,0.00290127,0
 .00410319,-0.00134436,-0.00010074,-0.00054255,-0.00030302,0.00061444,0
 .00022293,-0.00041979,0.00006430,-0.00013157,0.00014146,0.02052408,-0.
 00712529,-0.01359053,-0.00016135,0.00642295,0.07785125,0.00061733,-0.0
 0016796,-0.00012901,-0.00009262,-0.00002665,-0.00001502,-0.00003192,-0
 .00014066,0.00003767,-0.00014187,-0.00002279,0.00006395,-0.00113753,0.
 00040142,0.00008875,-0.00028180,-0.00008917,0.00000888,0.00004076,0.00
 001607,0.00001342,0.00003249,0.00002180,-0.00001603,0.00000179,-0.0000
 0152,0.00000497,0.00000463,-0.00001051,0.00000695,-0.00004279,0.000092
 56,0.00002298,-0.00000411,-0.00000288,-0.00000901,-0.00000166,0.000000
 70,-0.00000330,0.00031230,-0.00001902,-0.00024476,0.00247928,-0.000876
 65,-0.00089653,0.00014757,-0.00007757,0.00000207,-0.00005279,0.0000281
 7,-0.00001205,0.00020856,0.00017868,-0.00004248,-0.00004938,-0.0000951
 7,0.00001694,0.00019566,0.00008921,-0.00002178,0.00002215,-0.00000911,
 -0.00003763,0.00016857,0.00003314,0.00000701,-0.00005720,-0.00001092,0
 .00000021,-0.36450882,0.14831794,0.13304175,-0.00799492,0.00384977,0.0
 0406940,0.38801246,0.00023962,-0.00001815,0.00001258,-0.00004616,0.000
 00268,-0.00000967,-0.00023622,0.00002034,-0.00002146,-0.00010510,-0.00
 002419,0.00003676,0.00015864,0.00009553,-0.00010332,-0.00008905,-0.000
 03839,0.00001509,0.00001552,0.00000662,-0.00000712,0.00000473,0.000006
 86,-0.00000305,0.00000548,-0.00000648,0.00000846,-0.00001205,-0.000028
 73,0.00000593,-0.00001184,0.00006082,-0.00001118,-0.00000370,-0.000003
 15,-0.00000451,-0.00000196,-0.00000531,0.00000938,0.00019494,-0.000054
 55,-0.00011800,-0.00030325,-0.00447571,-0.00060872,0.00006411,-0.00005
 629,0.00000897,-0.00002829,0.00002895,-0.00000778,0.00010625,0.0000203
 1,-0.00004467,-0.00003094,-0.00001983,0.00001571,0.00013828,-0.0000200
 3,-0.00001288,0.00001612,0.00003353,-0.00001917,0.00009600,-0.00001026
 ,0.00000082,-0.00003779,0.00000777,0.00000032,0.18838390,-0.11724601,-
 0.05785716,0.00111637,-0.00238250,-0.00232433,-0.16352725,0.10570803,0
 .00001340,-0.00012070,0.00002734,-0.00000384,0.00001810,-0.00000357,0.
 00002996,-0.00001039,0.00006258,-0.00008414,-0.00001971,0.00009867,-0.
 00067069,0.00014081,0.00000205,-0.00000735,0.00000409,0.00003574,0.000
 01007,0.00000063,-0.00000522,-0.00000387,0.00000350,-0.00000417,0.0000
 0272,0.00000555,0.00000042,0.00000389,-0.00002478,0.00000669,-0.000000
 74,0.00001203,0.00000598,-0.00000108,-0.00000596,-0.00000371,0.0000009
 4,-0.00000090,-0.00000218,0.00010235,0.00000339,-0.00007691,0.00013712
 ,0.00151257,0.00005633,0.00000505,-0.00000824,-0.00001278,-0.00000559,
 0.00000690,0.00000803,0.00005610,0.00003039,-0.00004807,0.00000652,-0.
 00001043,0.00001209,0.00009551,-0.00015294,-0.00014572,-0.00005571,0.0
 0002484,0.00003248,0.00003761,-0.00001514,-0.00002090,-0.00000761,0.00
 000130,0.00001194,0.13656802,-0.04367756,-0.07379283,-0.00349446,0.004
 90969,0.01440198,-0.14106280,0.05135081,0.07166058,0.00616531,-0.00973
 041,0.00498196,-0.00041076,-0.00017074,-0.00049067,0.00292051,-0.00191
 418,0.00131093,0.00083470,0.00093944,-0.00187354,-0.03703886,0.0095177
 0,0.00427793,-0.00272129,-0.00159564,0.00050394,0.00016664,-0.00009317
 ,0.00075344,0.00004010,0.00019320,-0.00002200,0.00017175,-0.00019445,0
 .00025840,0.00011204,-0.00049711,-0.00039394,0.00046107,0.00146265,-0.
 00018788,-0.00003497,-0.00000648,-0.00007848,-0.00003061,-0.00017712,0
 .00024509,0.00244308,-0.00001921,-0.00219774,0.02044273,0.01904855,-0.
 00424067,0.00108243,-0.00098443,0.00017315,-0.00040380,0.00022661,-0.0
 0016650,0.00276340,0.00198413,0.00029999,-0.00056249,-0.00092876,0.000
 18138,-0.00126523,-0.00110267,0.00154690,0.00038233,0.00009005,-0.0001
 6460,0.00100833,0.00031376,0.00045891,-0.00050624,-0.00003385,-0.00011
 491,-0.09622335,-0.03080365,0.02334125,0.02752813,0.00664071,0.0086479
 7,-0.01817653,-0.02540692,0.01380575,0.10291018,0.00488846,-0.01039932
 ,0.00488748,-0.00056288,0.00006588,-0.00025236,0.00392155,-0.00236357,
 -0.00024305,0.00069024,0.00122470,-0.00216512,-0.02856771,0.02187818,0
 .00878067,-0.00121841,-0.00220996,0.00057314,0.00018121,-0.00016865,0.
 00082042,-0.00038773,0.00016719,0.00003069,0.00023142,-0.00023972,0.00
 025588,-0.00001851,-0.00048701,-0.00034607,0.00072250,0.00145380,-0.00
 015017,0.00000962,-0.00006602,-0.00014077,-0.00001741,-0.00021085,0.00
 028905,0.00338266,-0.00051641,-0.00278176,0.03346316,-0.01080098,-0.01
 045322,0.00073775,-0.00098885,0.00013136,-0.00034971,0.00028083,-0.000
 12886,0.00371911,0.00263667,0.00043713,-0.00065528,-0.00100976,0.00025
 989,-0.00139152,-0.00170750,0.00166438,0.00035258,0.00018695,-0.000087
 01,0.00076272,-0.00008757,0.00027522,-0.00056400,0.00015220,-0.0001495
 5,-0.07700222,-0.15976668,0.06003487,0.02156157,-0.00351987,0.02184252
 ,0.01302060,0.01774351,-0.01291936,0.03107598,0.14469337,0.00006569,0.
 00149490,-0.00169239,0.00000376,-0.00009415,0.00005592,-0.00191893,-0.
 00003384,0.00068497,-0.00050947,-0.00052033,0.00110238,0.00959367,-0.0
 0087005,-0.00549112,-0.00022327,0.00030539,-0.00028555,0.00000972,0.00
 009342,-0.00030119,0.00029788,0.00001688,-0.00007690,-0.00009248,0.000
 10088,-0.00010789,0.00008752,0.00026076,0.00022590,-0.00014731,-0.0002
 0900,0.00018196,0.00000149,-0.00001813,-0.00000445,0.00000433,0.000083
 14,-0.00012741,0.00025720,-0.00006493,0.00114888,-0.01259253,-0.009040
 68,-0.01197654,-0.00001691,0.00014271,-0.00008989,0.00003094,-0.000051
 76,0.00003386,-0.00127875,-0.00069724,-0.00042377,0.00025573,0.0003027
 2,0.00001554,0.00099884,0.00091220,-0.00077914,-0.00008285,-0.00003980
 ,-0.00004650,-0.00000088,0.00008223,-0.00013931,0.00015116,-0.00008772
 ,0.00009085,0.04170717,0.04592033,-0.05700922,-0.00495716,0.01455523,-
 0.01746464,0.00676727,0.00948830,-0.00465328,-0.03861425,-0.05891862,0
 .09198775,-0.02435416,-0.02617499,0.04107875,0.00073142,0.00132778,-0.
 00010159,0.00128448,-0.00022253,0.00053939,0.00142070,0.00108734,-0.00
 167388,-0.02320235,0.01624673,0.00044830,0.00864189,-0.00285937,0.0052
 4636,-0.00046055,-0.00043819,0.00044734,-0.00358796,-0.00035831,0.0001
 4874,0.00015681,-0.00036467,0.00012233,0.00002849,-0.00076626,-0.00029
 046,0.00107260,-0.00070913,-0.00076637,0.00000460,-0.00000608,0.000237
 37,-0.00011812,-0.00008426,0.00021995,0.00161552,-0.00286812,0.0004536
 4,0.02063097,0.00679245,-0.00447610,-0.00142677,0.00074204,-0.00004488
 ,0.00056638,-0.00022529,0.00019936,0.00049459,-0.00073216,0.00035874,-
 0.00000477,0.00043139,-0.00010640,-0.00386453,-0.01174244,-0.00210927,
 -0.00066230,0.00037128,0.00082873,-0.00153064,-0.00120089,-0.00033968,
 0.00017598,0.00055208,0.00000749,-0.04224693,0.01424150,-0.05713481,-0
 .09584990,0.02517962,-0.02678953,0.00154799,-0.00036014,-0.00493398,-0
 .01711389,-0.01734299,0.00717296,0.33658170,-0.01009344,0.00767079,0.0
 0786527,0.00062402,-0.00054247,0.00013553,-0.00014461,0.00063448,-0.00
 083032,0.00260404,-0.00096085,-0.00510713,0.00371666,-0.00069980,-0.00
 170690,0.00165281,-0.00015450,0.00130736,-0.00109689,-0.00030134,0.001
 16017,-0.00059965,-0.00005668,0.00002824,-0.00000669,-0.00010762,-0.00
 015321,-0.00002808,0.00008128,0.00002056,-0.00073510,-0.00127239,0.001
 02896,-0.00005893,0.00017148,0.00012327,0.00005647,0.00025633,-0.00060
 290,-0.00054951,0.00030472,0.00048318,0.00119266,-0.00215182,0.0062577
 8,0.00023539,0.00086542,-0.00021423,0.00023063,-0.00043827,-0.00000891
 ,-0.00030170,-0.00026110,0.00076674,0.00002818,0.00008356,0.00000858,-
 0.01166818,-0.00942725,-0.00192677,-0.00167151,-0.00229575,0.00085357,
 -0.00104735,0.00055757,0.00031635,0.00027549,-0.00007245,-0.00015428,-
 0.00092182,0.01287452,-0.00055112,0.00722188,-0.05170108,-0.00790230,-
 0.00094952,0.00069143,-0.00158797,-0.00413803,-0.00375352,-0.00086791,
 0.05310551,0.45774202,0.03919730,0.01722046,-0.02364395,0.00061641,-0.
 00044091,-0.00201369,-0.00083209,0.00026686,-0.00150709,0.00386804,-0.
 00029215,-0.00676849,0.00357043,-0.00815121,0.00062329,-0.00890469,0.0
 0365842,-0.00874606,-0.00108501,-0.00029546,0.00147550,0.00383779,0.00
 031965,0.00024845,0.00042566,-0.00032359,0.00088660,0.00006579,0.00042
 132,0.00021424,0.00022473,0.00194896,-0.00090718,-0.00013774,0.0001491
 1,0.00023687,-0.00001347,-0.00065403,0.00057857,0.00014144,0.00179734,
 -0.00086008,-0.00021562,0.00649057,-0.00118301,0.00092483,-0.00105468,
 0.00076179,-0.00031002,0.00002763,-0.00044966,0.00085764,0.00114114,0.
 00135764,-0.00035119,-0.00082072,0.00015975,-0.00943199,-0.00944419,0.
 00624881,0.00077410,0.00116105,0.00032501,0.00017995,0.00120542,0.0018
 8922,-0.00030178,-0.00052806,-0.00042893,-0.03992461,0.00590483,-0.018
 10968,-0.03089932,0.00037206,-0.07612929,-0.00192088,0.00042424,-0.007
 65730,-0.00248925,-0.00455452,0.00308391,-0.00999779,0.11717663,0.3437
 3812,-0.00545115,0.02653541,-0.02052418,-0.00061175,-0.00184024,-0.000
 89419,-0.00183804,0.00047658,-0.00170918,0.00221938,-0.00154714,-0.003
 90051,0.02831043,-0.01803476,-0.00386856,-0.01493627,-0.00000714,-0.00
 023798,-0.00063181,0.00006560,0.00077820,0.00331958,0.00049154,-0.0005
 3546,-0.00004567,-0.00001676,0.00019150,0.00005168,0.00095084,0.000403
 82,-0.00096907,0.00138397,0.00086635,-0.00007614,0.00013100,-0.0001316
 3,-0.00009337,0.00015991,-0.00018214,-0.00190319,0.00449617,-0.0009621
 6,-0.01518578,-0.00526928,0.00705768,0.00185678,-0.00090020,0.00013449
 ,-0.00055396,0.00007642,-0.00037575,0.00009466,0.00105236,0.00072783,-
 0.00024137,-0.00076099,0.00019776,-0.00511099,-0.00298772,0.00259700,0
 .00038026,0.00000578,-0.00023013,0.00117545,0.00183615,0.00119748,-0.0
 0017738,-0.00065237,-0.00021238,0.00541826,-0.00514275,0.00772404,-0.0
 3799461,-0.00083725,0.00565019,-0.00017328,-0.00024499,0.00073179,0.00
 414644,0.00804276,-0.00496614,-0.10117938,-0.00985979,0.05924757,0.131
 22356,0.01309003,-0.01203879,-0.00408029,-0.00078216,-0.00033735,-0.00
 054251,-0.00030788,-0.00081483,0.00008875,-0.00082117,-0.00161873,-0.0
 0069365,-0.00076960,-0.00870072,0.00722554,-0.00676934,0.00120004,-0.0
 0473278,-0.00005419,0.00010021,0.00025732,0.00246983,0.00023475,-0.000
 08521,-0.00007207,0.00010397,0.00036765,0.00000172,0.00017963,0.000009
 30,0.00152093,0.00263488,-0.00169337,0.00006653,-0.00011193,-0.0001551
 7,-0.00006003,-0.00054319,0.00105976,0.00014670,0.00018513,-0.00050829
 ,-0.00363528,0.00123376,-0.00152868,-0.00001396,-0.00153607,0.00056866
 ,-0.00037729,0.00042059,-0.00012734,0.00028418,0.00065895,-0.00002854,
 -0.00006991,-0.00029542,0.00005346,-0.00129275,-0.00035385,0.00178086,
 0.00053312,0.00060062,-0.00020240,0.00099410,0.00039876,0.00046263,-0.
 00022545,-0.00023840,-0.00006755,0.00081561,-0.00259575,0.00287385,-0.
 00476786,0.00228232,-0.00307435,-0.00007547,-0.00013302,0.00008475,0.0
 0362249,0.00373659,-0.00064695,-0.02446449,-0.05207535,0.01181059,-0.0
 0797012,0.06535272,-0.01624013,-0.01385264,-0.00632043,-0.00116562,0.0
 0057179,0.00325462,0.00214766,-0.00096652,0.00226308,-0.00369749,-0.00
 032678,0.00543595,-0.01982219,0.01943611,-0.00252151,0.01217231,-0.007
 47193,0.01172211,0.00073937,0.00011291,-0.00096848,-0.00585752,-0.0004
 0609,-0.00002292,-0.00048789,0.00039398,-0.00112875,-0.00015559,-0.000
 97243,-0.00053082,0.00026781,-0.00302642,0.00132285,0.00020835,-0.0001
 0895,-0.00031072,0.00004510,0.00088818,-0.00085211,0.00092347,-0.00280
 929,0.00088549,0.01254172,0.00099119,-0.00507848,-0.00149732,0.0016332
 2,-0.00096331,0.00056409,-0.00017624,0.00057784,-0.00052223,-0.0013421
 2,-0.00108741,0.00029240,0.00093288,-0.00025241,0.00535707,0.00555090,
 -0.00312459,-0.00028358,-0.00064765,-0.00027123,-0.00115645,-0.0018565
 3,-0.00252299,0.00045339,0.00084444,0.00036353,-0.00473121,0.00533351,
 -0.01465997,0.01032948,-0.00003784,0.03328971,0.00078049,-0.00017489,0
 .00017334,-0.00826585,-0.00620437,0.00329168,0.05957750,-0.00636153,-0
 .13251167,-0.05399602,0.02190068,0.12872344,-0.00335558,-0.00236294,-0
 .00043305,-0.00109711,0.00008308,0.00053754,0.00047935,-0.00067871,0.0
 0090534,-0.00490528,-0.00074714,0.00637589,0.00492133,-0.00055159,0.00
 127789,0.00066222,0.00028441,0.00136431,0.00143623,0.00064915,-0.00128
 420,-0.00023308,-0.00010981,-0.00015303,-0.00033459,0.00032404,-0.0003
 0246,-0.00001484,0.00009124,-0.00006044,-0.00007537,0.00016251,-0.0002
 4205,0.00007414,-0.00018038,-0.00014616,0.00004453,0.00003001,0.000109
 04,-0.00070348,-0.00015195,0.00016560,-0.00460996,-0.00149871,0.001834
 11,-0.00015592,-0.00024639,-0.00009892,-0.00016502,0.00032476,0.000121
 86,-0.00031501,-0.00000124,-0.00116972,0.00016070,0.00019818,-0.000040
 95,0.00245565,0.00494809,-0.00249261,0.00067855,-0.00023071,-0.0015037
 2,0.00109247,-0.00036434,-0.00085175,-0.00006719,0.00008561,0.00027772
 ,-0.00195785,0.00199639,0.00155669,0.00236230,-0.02828983,-0.00979169,
 -0.00104430,-0.00009431,-0.00127491,0.00090885,0.00131450,-0.00200437,
 -0.05935187,-0.02707292,-0.00711622,0.00897671,0.02898377,0.01147889,0
 .05413344,-0.00471194,-0.00480835,0.00486550,-0.00054493,0.00159813,-0
 .00039701,0.00010299,-0.00093623,0.00146970,-0.00412765,0.00059790,0.0
 0913176,-0.00206359,0.00358975,0.00096291,0.00232171,-0.00021016,0.001
 38908,0.00180766,0.00054854,-0.00184083,-0.00071124,-0.00014964,-0.000
 00701,0.00002690,0.00009625,0.00011716,0.00000925,-0.00030296,-0.00000
 268,0.00042257,0.00033115,-0.00067551,0.00006108,-0.00023009,-0.000069
 23,-0.00001362,-0.00015204,0.00027909,0.00029305,-0.00067278,-0.000172
 40,-0.00099422,-0.00316757,-0.00153694,-0.00051312,-0.00035545,0.00000
 714,-0.00009270,0.00043546,0.00011890,0.00016628,-0.00014887,-0.001453
 64,0.00010714,0.00023592,-0.00003892,0.00551590,-0.00363181,-0.0053197
 8,0.00264522,0.00300521,-0.00108932,0.00123724,-0.00129743,-0.00081672
 ,-0.00029364,0.00026834,0.00034622,0.00475126,-0.00356609,0.00682707,-
 0.01245073,0.00499997,-0.00649491,0.00005276,0.00009622,0.00044472,0.0
 0268154,0.00407639,-0.00159800,-0.02915740,-0.35566137,-0.14493679,0.0
 1036701,0.00207047,-0.01184756,0.02310521,0.35334118,-0.00353132,0.001
 16368,0.00164608,0.00008515,0.00043504,0.00037602,0.00070370,0.0002993
 7,0.00030812,-0.00129558,0.00186816,0.00502719,0.00596671,0.00158343,-
 0.00268676,0.00280921,0.00031481,0.00068974,0.00090660,0.00027368,-0.0
 0109630,-0.00047010,-0.00015192,-0.00000107,-0.00013537,0.00013331,-0.
 00015173,-0.00000437,-0.00001133,-0.00005645,-0.00000823,-0.00042174,-
 0.00004784,0.00004619,-0.00009501,-0.00005894,0.00006096,0.00005004,-0
 .00001299,-0.00095252,-0.00012352,0.00055802,-0.00231088,-0.00261792,0
 .00406746,-0.00052882,0.00019964,-0.00015206,0.00007749,0.00009843,0.0
 0014849,-0.00064442,-0.00049663,-0.00065611,0.00018257,0.00035975,-0.0
 0006257,0.00437407,0.00152977,-0.01114439,-0.00266544,-0.00307409,-0.0
 0033485,0.00015587,-0.00058798,-0.00061824,0.00005772,0.00014006,0.000
 20964,0.00059266,0.00162005,0.00117747,-0.00132360,-0.01405629,-0.0073
 5375,-0.00052143,-0.00004947,-0.00016961,-0.00148671,-0.00078789,-0.00
 123441,-0.00832221,-0.10955671,-0.08091168,0.00522071,-0.03037673,-0.0
 1817585,0.00296138,0.15233801,0.11071737\\0.00000050,-0.00000229,0.000
 00166,-0.00000470,0.00000235,-0.00000332,-0.00000254,0.00000416,0.0000
 0210,-0.00000308,0.00000380,-0.00000453,0.00000503,-0.00000026,-0.0000
 0699,0.00000016,-0.00000058,-0.00000247,0.00000012,0.00000182,-0.00000
 183,-0.00000071,0.00000067,-0.00000078,-0.00000325,-0.00000109,0.00000
 215,-0.00000768,-0.00000132,0.00000252,0.00000138,-0.00000200,-0.00000
 242,-0.00000195,0.00000284,0.00000642,0.00000716,0.00000573,-0.0000047
 2,0.00000221,-0.00000054,-0.00000543,-0.00001061,-0.00000074,0.0000061
 3,-0.00000427,0.00000283,-0.00000549,0.00000313,-0.00000159,-0.0000034
 6,0.00004009,-0.00003854,0.00013137,-0.00004623,0.00003079,-0.00013174
 ,-0.00000461,0.00000502,-0.00001347,0.00000474,0.00000451,0.00001107,0
 .00000444,0.00000284,0.00000001,0.00000026,0.00000312,-0.00000258,-0.0
 0004131,0.00000825,0.00002208,-0.00000032,-0.00000282,0.00000237,0.000
 04525,-0.00002443,-0.00001327,0.00000028,-0.00000503,0.00000070,0.0000
 0314,-0.00000009,0.00001210,0.00000870,0.00000099,-0.00000446,0.000004
 66,0.00000158,0.00000627\\\@


 10 WHATSOEVER THY HAND FINDETH TO DO, DO IT WITH THY  
 MIGHT. FOR THERE IS NO WORK, NOR DEVICE, NOR KNOWLEDGE, NOR  
 WISDOM, IN THE GRAVE, WHITHER THOU GOEST.                    
 11 I RETURNED AND SAW UNDER THE SUN, THAT THE RACE IS NOT TO 
 THE SWIFT, NOR THE BATTLE TO THE STRONG, NEITHER YET BREAD TO
 THE WISE, NOR YET RICHES TO MEN OF UNDERSTANDING, NOR YET    
 FAVOR TO MEN OF SKILL. BUT TIME AND CHANCE HAPPEN TO THEM ALL.
 12 FOR MAN ALSO KNOWETH NOT HIS TIME. AS THE FISHES   
 THAT ARE TAKEN IN AN EVIL NET, AND AS THE BIRDS THAT ARE     
 CAUGHT IN THE SNARE. SO ARE THE SONS OF MEN SNARED IN AN EVIL
 TIME, WHEN IT FALLETH SUDDENLY UPON THEM.
                                         ECCLESIASTES 9
 Job cpu time:       0 days  0 hours 35 minutes 12.1 seconds.
 File lengths (MBytes):  RWF=    220 Int=      0 D2E=      0 Chk=      6 Scr=      1
 Normal termination of Gaussian 09 at Thu Jan 12 17:25:51 2017.
