 Entering Gaussian System, Link 0=g09
 Initial command:
 /global/software/gaussian/g09.e01/l1.exe "/scratch/10461812.yak.local/Gau-4997.inp" -scrdir="/scratch/10461812.yak.local/"
 Entering Link 1 = /global/software/gaussian/g09.e01/l1.exe PID=      4998.
  
 Copyright (c) 1988,1990,1992,1993,1995,1998,2003,2009,2015,
            Gaussian, Inc.  All Rights Reserved.
  
 This is part of the Gaussian(R) 09 program.  It is based on
 the Gaussian(R) 03 system (copyright 2003, Gaussian, Inc.),
 the Gaussian(R) 98 system (copyright 1998, Gaussian, Inc.),
 the Gaussian(R) 94 system (copyright 1995, Gaussian, Inc.),
 the Gaussian 92(TM) system (copyright 1992, Gaussian, Inc.),
 the Gaussian 90(TM) system (copyright 1990, Gaussian, Inc.),
 the Gaussian 88(TM) system (copyright 1988, Gaussian, Inc.),
 the Gaussian 86(TM) system (copyright 1986, Carnegie Mellon
 University), and the Gaussian 82(TM) system (copyright 1983,
 Carnegie Mellon University). Gaussian is a federally registered
 trademark of Gaussian, Inc.
  
 This software contains proprietary and confidential information,
 including trade secrets, belonging to Gaussian, Inc.
  
 This software is provided under written license and may be
 used, copied, transmitted, or stored only in accord with that
 written license.
  
 The following legend is applicable only to US Government
 contracts under FAR:
  
                    RESTRICTED RIGHTS LEGEND
  
 Use, reproduction and disclosure by the US Government is
 subject to restrictions as set forth in subparagraphs (a)
 and (c) of the Commercial Computer Software - Restricted
 Rights clause in FAR 52.227-19.
  
 Gaussian, Inc.
 340 Quinnipiac St., Bldg. 40, Wallingford CT 06492
  
  
 ---------------------------------------------------------------
 Warning -- This program may not be used in any manner that
 competes with the business of Gaussian, Inc. or will provide
 assistance to any competitor of Gaussian, Inc.  The licensee
 of this program is prohibited from giving any competitor of
 Gaussian, Inc. access to this program.  By using this program,
 the user acknowledges that Gaussian, Inc. is engaged in the
 business of creating and licensing software in the field of
 computational chemistry and represents and warrants to the
 licensee that it is not a competitor of Gaussian, Inc. and that
 it will not use this program in any manner prohibited above.
 ---------------------------------------------------------------
  

 Cite this work as:
 Gaussian 09, Revision E.01,
 M. J. Frisch, G. W. Trucks, H. B. Schlegel, G. E. Scuseria, 
 M. A. Robb, J. R. Cheeseman, G. Scalmani, V. Barone, B. Mennucci, 
 G. A. Petersson, H. Nakatsuji, M. Caricato, X. Li, H. P. Hratchian, 
 A. F. Izmaylov, J. Bloino, G. Zheng, J. L. Sonnenberg, M. Hada, 
 M. Ehara, K. Toyota, R. Fukuda, J. Hasegawa, M. Ishida, T. Nakajima, 
 Y. Honda, O. Kitao, H. Nakai, T. Vreven, J. A. Montgomery, Jr., 
 J. E. Peralta, F. Ogliaro, M. Bearpark, J. J. Heyd, E. Brothers, 
 K. N. Kudin, V. N. Staroverov, T. Keith, R. Kobayashi, J. Normand, 
 K. Raghavachari, A. Rendell, J. C. Burant, S. S. Iyengar, J. Tomasi, 
 M. Cossi, N. Rega, J. M. Millam, M. Klene, J. E. Knox, J. B. Cross, 
 V. Bakken, C. Adamo, J. Jaramillo, R. Gomperts, R. E. Stratmann, 
 O. Yazyev, A. J. Austin, R. Cammi, C. Pomelli, J. W. Ochterski, 
 R. L. Martin, K. Morokuma, V. G. Zakrzewski, G. A. Voth, 
 P. Salvador, J. J. Dannenberg, S. Dapprich, A. D. Daniels, 
 O. Farkas, J. B. Foresman, J. V. Ortiz, J. Cioslowski, 
 and D. J. Fox, Gaussian, Inc., Wallingford CT, 2013.
 
 ******************************************
 Gaussian 09:  ES64L-G09RevE.01 30-Nov-2015
                14-Jan-2017 
 ******************************************
 %NPROCS=4
 Will use up to    4 processors via shared memory.
 ----------------------------------------------------------------------
 # opt=(calcfc,ts,noeigentest,maxcycle=1000,cartesian) b3lyp 6-31g(d) f
 req
 ----------------------------------------------------------------------
 1/5=1,6=1000,10=4,11=1,14=-1,18=10,26=3,38=1/1,3;
 2/12=2,17=6,18=5,29=2,40=1/2;
 3/5=1,6=6,7=1,11=2,16=1,25=1,30=1,71=2,74=-5,140=1/1,2,3;
 4//1;
 5/5=2,38=5/2;
 8/6=4,10=90,11=11/1;
 11/6=1,8=1,9=11,15=111,16=1/1,2,10;
 10/6=1,13=1/2;
 6/7=2,8=2,9=2,10=2,28=1/1;
 7/7=1,10=1,18=20,25=1/1,2,3,16;
 1/5=1,6=1000,10=4,11=1,14=-1,18=10,26=3/3(2);
 2/29=1/2;
 99/12=1/99;
 2/29=1/2;
 3/5=1,6=6,7=1,11=2,16=1,25=1,30=1,71=1,74=-5/1,2,3;
 4/5=5,16=3,69=1/1;
 5/5=2,38=5/2;
 7/7=1/1,2,3,16;
 1/5=1,6=1000,11=1,14=-1,18=10,26=3/3(-5);
 2/29=1/2;
 6/7=2,8=2,9=2,10=2,19=2,28=1/1;
 99/9=1,12=1/99;
 -------------------------
 boat5_Alpha_B3LYP_6-31G_d
 -------------------------
 Symbolic Z-matrix:
 Charge =  0 Multiplicity = 1
 8                    0     0.34702  -0.65594  -0.7471 
 6                    0    -1.26018   0.1963    0.95633 
 6                    0    -0.10699   1.77111  -0.75852 
 6                    0    -1.41145   1.40088   0.0027 
 6                    0     1.02263   0.74028  -0.57507 
 6                    0    -0.66263  -1.03162   0.24163 
 1                    0    -1.68517   2.27154   0.61199 
 1                    0    -0.17443  -1.64151   1.01704 
 1                    0    -2.25537  -0.10656   1.30308 
 1                    0    -0.37705   1.82996  -1.81719 
 6                    0    -1.68376  -1.88249  -0.52886 
 1                    0    -1.1549   -2.68764  -1.06425 
 1                    0    -2.17867  -1.25262  -1.26883 
 8                    0    -2.70416  -2.39603   0.31498 
 1                    0    -2.29418  -2.99573   0.95846 
 8                    0     0.40953   3.03372  -0.3807 
 1                    0     0.99135   2.84351   0.37916 
 8                    0    -2.40362   1.14729  -1.00043 
 1                    0    -3.25482   1.02286  -0.5497 
 8                    0    -0.53711   0.5456    2.12055 
 1                    0     0.38716   0.718     1.81997 
 1                    0     1.67851   0.70825  -1.46002 
 8                    0     1.65887   0.86174   0.58666 
 1                    0     2.98846  -1.52767  -0.22544 
 8                    0     2.25299  -2.1536   -0.78612 
 1                    0     2.11139  -2.97325  -0.28642 
 1                    0     1.26796  -1.48563  -0.7875 
 8                    0     3.64626  -0.60949   0.4885 
 1                    0     4.35215  -0.19327  -0.02882 
 1                    0     2.85376   0.11662   0.59853 
 

 GradGradGradGradGradGradGradGradGradGradGradGradGradGradGradGradGradGrad
 Berny optimization.
 Initialization pass.
 No Z-matrix variables, so optimization will use Cartesian coordinates.
 Trust Radius=3.00D-01 FncErr=1.00D-07 GrdErr=1.00D-06
 Number of steps in this run=    180 maximum allowed number of steps=    180.
 Search for a saddle point of order  1.
 GradGradGradGradGradGradGradGradGradGradGradGradGradGradGradGradGradGrad

 ---------------------------------------------------------------------------------------------------
                            Z-MATRIX (ANGSTROMS AND DEGREES)
   CD    Cent   Atom    N1       Length/X        N2       Alpha/Y        N3        Beta/Z          J
 ---------------------------------------------------------------------------------------------------
      1      1  O        0   0.347016         -0.655938         -0.747095
      2      2  C        0  -1.260177          0.196301          0.956330
      3      3  C        0  -0.106988          1.771113         -0.758517
      4      4  C        0  -1.411453          1.400880          0.002696
      5      5  C        0   1.022625          0.740276         -0.575068
      6      6  C        0  -0.662628         -1.031616          0.241627
      7      7  H        0  -1.685165          2.271536          0.611985
      8      8  H        0  -0.174430         -1.641507          1.017040
      9      9  H        0  -2.255368         -0.106564          1.303082
     10     10  H        0  -0.377048          1.829961         -1.817194
     11     11  C        0  -1.683761         -1.882486         -0.528861
     12     12  H        0  -1.154895         -2.687644         -1.064245
     13     13  H        0  -2.178672         -1.252618         -1.268826
     14     14  O        0  -2.704155         -2.396030          0.314980
     15     15  H        0  -2.294183         -2.995734          0.958464
     16     16  O        0   0.409531          3.033723         -0.380697
     17     17  H        0   0.991351          2.843510          0.379164
     18     18  O        0  -2.403624          1.147294         -1.000434
     19     19  H        0  -3.254816          1.022861         -0.549700
     20     20  O        0  -0.537112          0.545596          2.120546
     21     21  H        0   0.387159          0.717995          1.819969
     22     22  H        0   1.678505          0.708249         -1.460015
     23     23  O        0   1.658870          0.861743          0.586662
     24     24  H        0   2.988457         -1.527673         -0.225443
     25     25  O        0   2.252986         -2.153603         -0.786124
     26     26  H        0   2.111394         -2.973254         -0.286423
     27     27  H        0   1.267964         -1.485626         -0.787498
     28     28  O        0   3.646255         -0.609492          0.488497
     29     29  H        0   4.352148         -0.193267         -0.028816
     30     30  H        0   2.853756          0.116621          0.598533
 ---------------------------------------------------------------------------------------------------
                         Z-Matrix orientation:                         
 ---------------------------------------------------------------------
 Center     Atomic      Atomic             Coordinates (Angstroms)
 Number     Number       Type             X           Y           Z
 ---------------------------------------------------------------------
      1          8           0        0.347016   -0.655938   -0.747095
      2          6           0       -1.260177    0.196301    0.956330
      3          6           0       -0.106988    1.771113   -0.758517
      4          6           0       -1.411453    1.400880    0.002696
      5          6           0        1.022625    0.740276   -0.575068
      6          6           0       -0.662628   -1.031616    0.241627
      7          1           0       -1.685165    2.271536    0.611985
      8          1           0       -0.174430   -1.641507    1.017040
      9          1           0       -2.255368   -0.106564    1.303082
     10          1           0       -0.377048    1.829961   -1.817194
     11          6           0       -1.683761   -1.882486   -0.528861
     12          1           0       -1.154895   -2.687644   -1.064245
     13          1           0       -2.178672   -1.252618   -1.268826
     14          8           0       -2.704155   -2.396030    0.314980
     15          1           0       -2.294183   -2.995734    0.958464
     16          8           0        0.409531    3.033723   -0.380697
     17          1           0        0.991351    2.843510    0.379164
     18          8           0       -2.403624    1.147294   -1.000434
     19          1           0       -3.254816    1.022861   -0.549700
     20          8           0       -0.537112    0.545596    2.120546
     21          1           0        0.387159    0.717995    1.819969
     22          1           0        1.678505    0.708249   -1.460015
     23          8           0        1.658870    0.861743    0.586662
     24          1           0        2.988457   -1.527673   -0.225443
     25          8           0        2.252986   -2.153603   -0.786124
     26          1           0        2.111394   -2.973254   -0.286423
     27          1           0        1.267964   -1.485626   -0.787498
     28          8           0        3.646255   -0.609492    0.488497
     29          1           0        4.352148   -0.193267   -0.028816
     30          1           0        2.853756    0.116621    0.598533
 ---------------------------------------------------------------------
                    Distance matrix (angstroms):
                    1          2          3          4          5
     1  O    0.000000
     2  C    2.492195   0.000000
     3  C    2.469175   2.598187   0.000000
     4  C    2.808006   1.543798   1.555039   0.000000
     5  C    1.560594   2.802191   1.540229   2.587459   0.000000
     6  C    1.462220   1.541313   3.027262   2.556338   2.578114
     7  H    3.814048   2.146110   2.149265   1.097357   3.329561
     8  H    2.086965   2.135432   3.847483   3.437330   3.104938
     9  H    3.358190   1.096526   3.520142   2.162310   3.871669
    10  H    2.801620   3.337843   1.094163   2.136844   2.165496
    11  C    2.382457   2.589705   3.985943   3.337244   3.769024
    12  H    2.546399   3.522917   4.590435   4.233227   4.090418
    13  H    2.647136   2.809683   3.700708   3.040797   3.834218
    14  O    3.669546   3.035882   5.026207   4.023074   4.951514
    15  H    3.919121   3.355333   5.518576   4.585076   5.225965
    16  O    3.708336   3.553383   1.415530   2.475712   2.381924
    17  H    3.732260   3.522813   1.910681   2.827787   2.309790
    18  O    3.298764   2.457801   2.392114   1.433520   3.476461
    19  H    3.978759   2.632473   3.242269   1.961129   4.286840
    20  O    3.232450   1.414294   3.158465   2.445664   3.120419
    21  H    2.911893   1.931775   2.828750   2.646473   2.478006
    22  H    2.035221   3.838837   2.193118   3.488137   1.101969
    23  O    2.408988   3.016671   2.398899   3.171525   1.330105
    24  H    2.830062   4.734930   4.554990   5.290338   3.021643
    25  O    2.424303   4.571707   4.579698   5.165724   3.151645
    26  H    2.948763   4.791451   5.258622   5.623797   3.880598
    27  H    1.240226   3.501616   3.535206   4.016914   2.249435
    28  O    3.523326   4.994121   4.616184   5.464248   3.136316
    29  H    4.095250   5.711433   4.926981   5.980083   3.500802
    30  H    2.948102   4.130232   3.653072   4.494035   2.262593
                    6          7          8          9         10
     6  C    0.000000
     7  H    3.477580   0.000000
     8  H    1.100713   4.214059   0.000000
     9  H    2.125848   2.541280   2.601571   0.000000
    10  H    3.536796   2.794113   4.486093   4.124844   0.000000
    11  C    1.536341   4.307834   2.173928   2.614699   4.141203
    12  H    2.165654   5.261597   2.527343   3.671138   4.645507
    13  H    2.151441   4.025004   3.064866   2.816742   3.612319
    14  O    2.456591   4.786724   2.731612   2.533655   5.274523
    15  H    2.652091   5.313670   2.516091   2.909909   5.887870
    16  O    4.250152   2.440102   4.914515   4.449517   2.032553
    17  H    4.215586   2.746834   4.677746   4.483051   2.779170
    18  O    3.053102   2.092845   4.100844   2.626847   2.289136
    19  H    3.400958   2.317867   4.363749   2.388995   3.246460
    20  O    2.456357   2.563718   2.476426   2.011458   4.144998
    21  H    2.579604   2.857839   2.554863   2.816029   3.879360
    22  H    3.376925   4.248685   3.884652   4.875857   2.368779
    23  O    3.015495   3.629150   3.132487   4.095380   3.295593
    24  H    3.714115   6.080955   3.400085   5.643903   5.013382
    25  O    3.288758   6.086509   3.066919   5.374049   4.883540
    26  H    3.426951   6.536728   2.949162   5.460133   5.621964
    27  H    2.234370   4.979537   2.315417   4.322754   3.841804
    28  O    4.336543   6.061321   3.992749   5.978766   5.239667
    29  H    5.091556   6.552483   4.866325   6.740975   5.445828
    30  H    3.716287   5.024504   3.526482   5.162301   4.382849
                   11         12         13         14         15
    11  C    0.000000
    12  H    1.102096   0.000000
    13  H    1.090513   1.774619   0.000000
    14  O    1.420211   2.094638   2.022861   0.000000
    15  H    1.955523   2.341847   2.830657   0.970461   0.000000
    16  O    5.345366   5.970654   5.085301   6.297716   6.742238
    17  H    5.505976   6.106019   5.435364   6.411994   6.725109
    18  O    3.149627   4.033627   2.425328   3.791540   4.584096
    19  H    3.302982   4.294447   2.617830   3.569274   4.398463
    20  O    3.772233   4.580217   4.173264   4.075452   4.120528
    21  H    4.070407   4.721758   4.472970   4.638789   4.660855
    22  H    4.345548   4.440369   4.331208   5.656400   5.945652
    23  O    4.466359   4.820883   4.758160   5.451870   5.535792
    24  H    4.695485   4.383661   5.278591   5.783765   5.609200
    25  O    3.954449   3.460665   4.548007   5.083743   4.942623
    26  H    3.956230   3.369751   4.725502   4.887165   4.578139
    27  H    2.989494   2.718765   3.487875   4.221614   4.244726
    28  O    5.573563   5.457176   6.118134   6.599207   6.419020
    29  H    6.287742   6.133641   6.731379   7.400120   7.280265
    30  H    5.084929   5.167012   5.539601   6.106078   6.026407
                   16         17         18         19         20
    16  O    0.000000
    17  H    0.975748   0.000000
    18  O    3.443331   4.038105   0.000000
    19  H    4.183248   4.712482   0.971171   0.000000
    20  O    3.652824   3.263283   3.685977   3.839780   0.000000
    21  H    3.194687   2.637950   3.990920   4.355715   0.987089
    22  H    2.860603   2.900707   4.131314   5.026461   4.213767
    23  O    2.685913   2.101437   4.370843   5.045948   2.697237
    24  H    5.242261   4.843679   6.068822   6.751950   4.715055
    25  O    5.520059   5.284010   5.711906   6.362523   4.849645
    26  H    6.244117   5.960893   6.154195   6.695854   5.019003
    27  H    4.618107   4.492108   4.523071   5.177315   3.980061
    28  O    4.950242   4.357028   6.473349   7.167092   4.636634
    29  H    5.107006   4.547903   6.955688   7.721152   5.391710
    30  H    3.929709   3.309471   5.590977   6.281271   3.741461
                   21         22         23         24         25
    21  H    0.000000
    22  H    3.525048   0.000000
    23  O    1.777346   2.052519   0.000000
    24  H    3.999186   2.870451   2.852477   0.000000
    25  O    4.303383   2.995723   3.365981   1.116722   0.000000
    26  H    4.586414   3.888210   3.959073   1.691940   0.970349
    27  H    3.525712   2.331075   2.747956   1.810461   1.190153
    28  O    3.762545   3.066787   2.474645   1.336213   2.439290
    29  H    4.468729   3.163768   2.957297   1.918060   2.970339
    30  H    2.817385   2.443125   1.408226   1.844121   2.726191
                   26         27         28         29         30
    26  H    0.000000
    27  H    1.781990   0.000000
    28  O    2.922956   2.837612   0.000000
    29  H    3.579898   3.428991   0.969093   0.000000
    30  H    3.298723   2.646321   1.080464   1.653716   0.000000
 Stoichiometry    C6H16O8
 Framework group  C1[X(C6H16O8)]
 Deg. of freedom    84
 Full point group                 C1      NOp   1
 Largest Abelian subgroup         C1      NOp   1
 Largest concise Abelian subgroup C1      NOp   1
                         Standard orientation:                         
 ---------------------------------------------------------------------
 Center     Atomic      Atomic             Coordinates (Angstroms)
 Number     Number       Type             X           Y           Z
 ---------------------------------------------------------------------
      1          8           0        0.347016   -0.655938   -0.747095
      2          6           0       -1.260177    0.196301    0.956330
      3          6           0       -0.106988    1.771113   -0.758517
      4          6           0       -1.411453    1.400880    0.002696
      5          6           0        1.022625    0.740276   -0.575068
      6          6           0       -0.662628   -1.031616    0.241627
      7          1           0       -1.685165    2.271536    0.611985
      8          1           0       -0.174430   -1.641507    1.017040
      9          1           0       -2.255368   -0.106564    1.303082
     10          1           0       -0.377048    1.829961   -1.817194
     11          6           0       -1.683761   -1.882486   -0.528861
     12          1           0       -1.154895   -2.687644   -1.064245
     13          1           0       -2.178672   -1.252618   -1.268826
     14          8           0       -2.704155   -2.396030    0.314980
     15          1           0       -2.294183   -2.995734    0.958464
     16          8           0        0.409531    3.033723   -0.380697
     17          1           0        0.991351    2.843510    0.379164
     18          8           0       -2.403624    1.147294   -1.000434
     19          1           0       -3.254816    1.022861   -0.549700
     20          8           0       -0.537112    0.545596    2.120546
     21          1           0        0.387159    0.717995    1.819969
     22          1           0        1.678505    0.708249   -1.460015
     23          8           0        1.658870    0.861743    0.586662
     24          1           0        2.988457   -1.527673   -0.225443
     25          8           0        2.252986   -2.153603   -0.786124
     26          1           0        2.111394   -2.973254   -0.286423
     27          1           0        1.267964   -1.485626   -0.787498
     28          8           0        3.646255   -0.609492    0.488497
     29          1           0        4.352148   -0.193268   -0.028816
     30          1           0        2.853756    0.116621    0.598533
 ---------------------------------------------------------------------
 Rotational constants (GHZ):      0.7187777      0.5671058      0.3985251
 Standard basis: 6-31G(d) (6D, 7F)
 There are   242 symmetry adapted cartesian basis functions of A   symmetry.
 There are   242 symmetry adapted basis functions of A   symmetry.
   242 basis functions,   456 primitive gaussians,   242 cartesian basis functions
    58 alpha electrons       58 beta electrons
       nuclear repulsion energy      1128.5880874197 Hartrees.
 NAtoms=   30 NActive=   30 NUniq=   30 SFac= 1.00D+00 NAtFMM=   60 NAOKFM=F Big=F
 Integral buffers will be    131072 words long.
 Raffenetti 2 integral format.
 Two-electron integral symmetry is turned on.
 One-electron integrals computed using PRISM.
 NBasis=   242 RedAO= T EigKep=  1.21D-03  NBF=   242
 NBsUse=   242 1.00D-06 EigRej= -1.00D+00 NBFU=   242
 ExpMin= 1.61D-01 ExpMax= 5.48D+03 ExpMxC= 8.25D+02 IAcc=1 IRadAn=         1 AccDes= 0.00D+00
 Harris functional with IExCor=  402 and IRadAn=       1 diagonalized for initial guess.
 HarFok:  IExCor=  402 AccDes= 0.00D+00 IRadAn=         1 IDoV= 1 UseB2=F ITyADJ=14
 ICtDFT=  3500011 ScaDFX=  1.000000  1.000000  1.000000  1.000000
 FoFCou: FMM=F IPFlag=           0 FMFlag=      100000 FMFlg1=           0
         NFxFlg=           0 DoJE=T BraDBF=F KetDBF=T FulRan=T
         wScrn=  0.000000 ICntrl=     500 IOpCl=  0 I1Cent=   200000004 NGrid=           0
         NMat0=    1 NMatS0=      1 NMatT0=    0 NMatD0=    1 NMtDS0=    0 NMtDT0=    0
 Petite list used in FoFCou.
 Requested convergence on RMS density matrix=1.00D-08 within 128 cycles.
 Requested convergence on MAX density matrix=1.00D-06.
 Requested convergence on             energy=1.00D-06.
 No special actions if energy rises.
 Integral accuracy reduced to 1.0D-05 until final iterations.
 Initial convergence to 1.0D-05 achieved.  Increase integral accuracy.
 SCF Done:  E(RB3LYP) =  -839.965285218     A.U. after   14 cycles
            NFock= 14  Conv=0.69D-08     -V/T= 2.0086
 DoSCS=F DFT=T ScalE2(SS,OS)=  1.000000  1.000000
 Range of M.O.s used for correlation:     1   242
 NBasis=   242 NAE=    58 NBE=    58 NFC=     0 NFV=     0
 NROrb=    242 NOA=    58 NOB=    58 NVA=   184 NVB=   184
 Symmetrizing basis deriv contribution to polar:
 IMax=3 JMax=2 DiffMx= 0.00D+00
 G2DrvN: will do    31 centers at a time, making    1 passes.
 Calling FoFCou, ICntrl=  3107 FMM=F I1Cent=   0 AccDes= 0.00D+00.
 End of G2Drv F.D. properties file   721 does not exist.
 End of G2Drv F.D. properties file   722 does not exist.
 End of G2Drv F.D. properties file   788 does not exist.
          IDoAtm=111111111111111111111111111111
          Differentiating once with respect to nuclear coordinates.
          There are    93 degrees of freedom in the 1st order CPHF.  IDoFFX=6 NUNeed=     0.
     87 vectors produced by pass  0 Test12= 1.15D-14 1.08D-09 XBig12= 1.22D-01 8.11D-02.
 AX will form    87 AO Fock derivatives at one time.
     87 vectors produced by pass  1 Test12= 1.15D-14 1.08D-09 XBig12= 1.09D-02 1.36D-02.
     87 vectors produced by pass  2 Test12= 1.15D-14 1.08D-09 XBig12= 1.02D-04 1.36D-03.
     87 vectors produced by pass  3 Test12= 1.15D-14 1.08D-09 XBig12= 2.67D-07 6.24D-05.
     87 vectors produced by pass  4 Test12= 1.15D-14 1.08D-09 XBig12= 3.67D-10 1.78D-06.
     68 vectors produced by pass  5 Test12= 1.15D-14 1.08D-09 XBig12= 2.93D-13 4.32D-08.
      2 vectors produced by pass  6 Test12= 1.15D-14 1.08D-09 XBig12= 2.50D-16 1.36D-09.
 InvSVY:  IOpt=1 It=  1 EMax= 5.55D-16
 Solved reduced A of dimension   505 with    93 vectors.
 End of Minotr F.D. properties file   721 does not exist.
 End of Minotr F.D. properties file   722 does not exist.
 End of Minotr F.D. properties file   788 does not exist.

 **********************************************************************

            Population analysis using the SCF density.

 **********************************************************************

 Orbital symmetries:
       Occupied  (A) (A) (A) (A) (A) (A) (A) (A) (A) (A) (A) (A)
                 (A) (A) (A) (A) (A) (A) (A) (A) (A) (A) (A) (A)
                 (A) (A) (A) (A) (A) (A) (A) (A) (A) (A) (A) (A)
                 (A) (A) (A) (A) (A) (A) (A) (A) (A) (A) (A) (A)
                 (A) (A) (A) (A) (A) (A) (A) (A) (A) (A)
       Virtual   (A) (A) (A) (A) (A) (A) (A) (A) (A) (A) (A) (A)
                 (A) (A) (A) (A) (A) (A) (A) (A) (A) (A) (A) (A)
                 (A) (A) (A) (A) (A) (A) (A) (A) (A) (A) (A) (A)
                 (A) (A) (A) (A) (A) (A) (A) (A) (A) (A) (A) (A)
                 (A) (A) (A) (A) (A) (A) (A) (A) (A) (A) (A) (A)
                 (A) (A) (A) (A) (A) (A) (A) (A) (A) (A) (A) (A)
                 (A) (A) (A) (A) (A) (A) (A) (A) (A) (A) (A) (A)
                 (A) (A) (A) (A) (A) (A) (A) (A) (A) (A) (A) (A)
                 (A) (A) (A) (A) (A) (A) (A) (A) (A) (A) (A) (A)
                 (A) (A) (A) (A) (A) (A) (A) (A) (A) (A) (A) (A)
                 (A) (A) (A) (A) (A) (A) (A) (A) (A) (A) (A) (A)
                 (A) (A) (A) (A) (A) (A) (A) (A) (A) (A) (A) (A)
                 (A) (A) (A) (A) (A) (A) (A) (A) (A) (A) (A) (A)
                 (A) (A) (A) (A) (A) (A) (A) (A) (A) (A) (A) (A)
                 (A) (A) (A) (A) (A) (A) (A) (A) (A) (A) (A) (A)
                 (A) (A) (A) (A)
 The electronic state is 1-A.
 Alpha  occ. eigenvalues --  -19.20365 -19.20022 -19.16834 -19.16190 -19.14924
 Alpha  occ. eigenvalues --  -19.13059 -19.11932 -19.11307 -10.28937 -10.25602
 Alpha  occ. eigenvalues --  -10.24161 -10.23360 -10.22959 -10.22884  -1.08442
 Alpha  occ. eigenvalues --   -1.05407  -1.03269  -1.02440  -1.02023  -1.00910
 Alpha  occ. eigenvalues --   -0.99796  -0.97087  -0.77570  -0.75346  -0.68299
 Alpha  occ. eigenvalues --   -0.64631  -0.63156  -0.59077  -0.57236  -0.55526
 Alpha  occ. eigenvalues --   -0.54309  -0.53045  -0.51277  -0.51118  -0.48961
 Alpha  occ. eigenvalues --   -0.48589  -0.46256  -0.45555  -0.44634  -0.43091
 Alpha  occ. eigenvalues --   -0.41838  -0.40729  -0.39888  -0.39001  -0.38197
 Alpha  occ. eigenvalues --   -0.36653  -0.36099  -0.35500  -0.33671  -0.33255
 Alpha  occ. eigenvalues --   -0.32468  -0.30874  -0.29054  -0.28354  -0.27635
 Alpha  occ. eigenvalues --   -0.26159  -0.24747  -0.23985
 Alpha virt. eigenvalues --    0.02509   0.05042   0.06138   0.07311   0.09598
 Alpha virt. eigenvalues --    0.10589   0.11466   0.13249   0.13453   0.14926
 Alpha virt. eigenvalues --    0.15667   0.17050   0.17285   0.18379   0.19363
 Alpha virt. eigenvalues --    0.20908   0.22167   0.22847   0.23703   0.23855
 Alpha virt. eigenvalues --    0.25511   0.26433   0.28457   0.29770   0.31310
 Alpha virt. eigenvalues --    0.31900   0.34168   0.36102   0.51719   0.53357
 Alpha virt. eigenvalues --    0.54524   0.55391   0.57026   0.57451   0.59139
 Alpha virt. eigenvalues --    0.59426   0.59767   0.62303   0.63640   0.66289
 Alpha virt. eigenvalues --    0.66596   0.67011   0.68727   0.71476   0.72587
 Alpha virt. eigenvalues --    0.74924   0.76266   0.77964   0.78881   0.79601
 Alpha virt. eigenvalues --    0.81177   0.81683   0.82385   0.84103   0.85315
 Alpha virt. eigenvalues --    0.85430   0.86047   0.87274   0.88229   0.90015
 Alpha virt. eigenvalues --    0.91565   0.91901   0.93339   0.94750   0.95969
 Alpha virt. eigenvalues --    0.97145   0.98364   0.99455   1.01171   1.02888
 Alpha virt. eigenvalues --    1.04089   1.05114   1.05397   1.06486   1.08014
 Alpha virt. eigenvalues --    1.10245   1.12583   1.13946   1.14245   1.16770
 Alpha virt. eigenvalues --    1.17425   1.19287   1.22928   1.23949   1.27530
 Alpha virt. eigenvalues --    1.30449   1.32692   1.33802   1.35710   1.37803
 Alpha virt. eigenvalues --    1.40123   1.47086   1.48826   1.50370   1.51433
 Alpha virt. eigenvalues --    1.55122   1.56214   1.56779   1.58279   1.59093
 Alpha virt. eigenvalues --    1.61547   1.63314   1.65550   1.66147   1.67075
 Alpha virt. eigenvalues --    1.68371   1.69231   1.70588   1.71935   1.73193
 Alpha virt. eigenvalues --    1.75107   1.76804   1.77640   1.77963   1.79354
 Alpha virt. eigenvalues --    1.79548   1.82070   1.82872   1.85505   1.86901
 Alpha virt. eigenvalues --    1.87311   1.89500   1.90962   1.93106   1.94693
 Alpha virt. eigenvalues --    1.97529   2.00218   2.01510   2.04692   2.06253
 Alpha virt. eigenvalues --    2.06869   2.07221   2.12135   2.14855   2.16698
 Alpha virt. eigenvalues --    2.20654   2.24403   2.25715   2.27442   2.31626
 Alpha virt. eigenvalues --    2.33928   2.34922   2.35666   2.37920   2.39988
 Alpha virt. eigenvalues --    2.44726   2.46348   2.47668   2.49077   2.51229
 Alpha virt. eigenvalues --    2.52456   2.54938   2.58143   2.59757   2.62621
 Alpha virt. eigenvalues --    2.63293   2.67100   2.68513   2.69245   2.73027
 Alpha virt. eigenvalues --    2.77174   2.82004   2.83080   2.86496   2.90370
 Alpha virt. eigenvalues --    2.95266   2.97476   2.99925   3.01285   3.13631
 Alpha virt. eigenvalues --    3.72508   3.76641   3.79566   3.82834   3.90292
 Alpha virt. eigenvalues --    3.99575   4.07678   4.12993   4.28765   4.32546
 Alpha virt. eigenvalues --    4.52851   4.55866   4.72253   4.94240
          Condensed to atoms (all electrons):
               1          2          3          4          5          6
     1  O    8.623825  -0.019876  -0.023040  -0.007903   0.068730   0.094376
     2  C   -0.019876   4.948447  -0.023603   0.277813   0.006633   0.303161
     3  C   -0.023040  -0.023603   4.923381   0.276260   0.323496  -0.023924
     4  C   -0.007903   0.277813   0.276260   5.109100  -0.028195  -0.035025
     5  C    0.068730   0.006633   0.323496  -0.028195   4.820943  -0.010154
     6  C    0.094376   0.303161  -0.023924  -0.035025  -0.010154   5.147851
     7  H   -0.000028  -0.054456  -0.048727   0.359650   0.003427   0.006961
     8  H   -0.036423  -0.048924   0.000210   0.005544  -0.001575   0.350457
     9  H    0.003217   0.371105   0.004655  -0.041321  -0.000023  -0.060230
    10  H    0.002490   0.004381   0.358140  -0.061066  -0.033978   0.001027
    11  C   -0.027010  -0.019240   0.000251  -0.001496   0.002603   0.297413
    12  H    0.002911   0.004539  -0.000028  -0.000157  -0.000105  -0.049974
    13  H    0.003259  -0.009464  -0.000109  -0.000792  -0.000315  -0.034813
    14  O    0.001421  -0.006634  -0.000013   0.000234  -0.000013  -0.041975
    15  H   -0.000006  -0.000988   0.000002   0.000012  -0.000004  -0.003496
    16  O    0.000882   0.001850   0.271127  -0.047779  -0.031116   0.000159
    17  H    0.000735  -0.000030  -0.037321  -0.001251  -0.019208   0.000032
    18  O   -0.000312  -0.034657  -0.033494   0.167869   0.000882   0.003387
    19  H    0.000068  -0.002935   0.006959  -0.021846  -0.000287  -0.001266
    20  O    0.000654   0.247138   0.004600  -0.043692   0.003617  -0.043039
    21  H   -0.000840  -0.036251   0.000673  -0.003336  -0.010296  -0.000574
    22  H   -0.048342  -0.000100  -0.053374   0.006078   0.364600   0.004341
    23  O   -0.057526   0.001946  -0.048798  -0.004978   0.238351   0.007567
    24  H    0.004415  -0.000005   0.000100  -0.000000  -0.000093  -0.000160
    25  O   -0.097156  -0.000040  -0.000024  -0.000001   0.006307   0.006185
    26  H    0.003711   0.000038   0.000001   0.000000  -0.000137   0.000102
    27  H    0.122411   0.001766   0.001568   0.000092  -0.006331  -0.008340
    28  O   -0.001075   0.000010   0.000014  -0.000002   0.011902  -0.000069
    29  H   -0.000016  -0.000000   0.000033  -0.000000   0.000104   0.000002
    30  H    0.002517  -0.000102   0.001991  -0.000065  -0.014183   0.000034
               7          8          9         10         11         12
     1  O   -0.000028  -0.036423   0.003217   0.002490  -0.027010   0.002911
     2  C   -0.054456  -0.048924   0.371105   0.004381  -0.019240   0.004539
     3  C   -0.048727   0.000210   0.004655   0.358140   0.000251  -0.000028
     4  C    0.359650   0.005544  -0.041321  -0.061066  -0.001496  -0.000157
     5  C    0.003427  -0.001575  -0.000023  -0.033978   0.002603  -0.000105
     6  C    0.006961   0.350457  -0.060230   0.001027   0.297413  -0.049974
     7  H    0.602969  -0.000204  -0.005078   0.003258  -0.000108   0.000010
     8  H   -0.000204   0.644856   0.000461   0.000037  -0.051390  -0.006921
     9  H   -0.005078   0.000461   0.599597  -0.000269  -0.005876   0.000707
    10  H    0.003258   0.000037  -0.000269   0.591476   0.000001  -0.000008
    11  C   -0.000108  -0.051390  -0.005876   0.000001   4.940489   0.347161
    12  H    0.000010  -0.006921   0.000707  -0.000008   0.347161   0.653802
    13  H    0.000194   0.005454  -0.000448   0.000233   0.363265  -0.035011
    14  O   -0.000001   0.001717   0.016642   0.000001   0.245431  -0.032388
    15  H   -0.000001   0.005805  -0.000073   0.000000  -0.031273  -0.006571
    16  O    0.006705   0.000011  -0.000069  -0.038874  -0.000000   0.000000
    17  H    0.000119  -0.000011  -0.000003   0.007110  -0.000003   0.000000
    18  O   -0.026979  -0.000158   0.000152   0.006846  -0.008372   0.000346
    19  H   -0.006464  -0.000005   0.006131  -0.000291   0.001147  -0.000007
    20  O    0.007139   0.005031  -0.038320  -0.000052   0.003263  -0.000065
    21  H   -0.000730   0.000031   0.005557   0.000073   0.000021   0.000004
    22  H   -0.000207  -0.000139   0.000006  -0.004220  -0.000125   0.000008
    23  O   -0.000010   0.000979  -0.000031   0.003612   0.000175   0.000002
    24  H    0.000000  -0.000197  -0.000000  -0.000003   0.000019  -0.000006
    25  O    0.000000   0.003496   0.000001   0.000003  -0.000653   0.000298
    26  H   -0.000000   0.000297  -0.000001  -0.000000  -0.000020   0.000245
    27  H    0.000008  -0.001921  -0.000039  -0.000082  -0.001314   0.002751
    28  O   -0.000000   0.000036   0.000000   0.000004  -0.000001   0.000001
    29  H    0.000000  -0.000001   0.000000  -0.000001  -0.000000  -0.000000
    30  H    0.000005  -0.000011   0.000000  -0.000071   0.000001  -0.000001
              13         14         15         16         17         18
     1  O    0.003259   0.001421  -0.000006   0.000882   0.000735  -0.000312
     2  C   -0.009464  -0.006634  -0.000988   0.001850  -0.000030  -0.034657
     3  C   -0.000109  -0.000013   0.000002   0.271127  -0.037321  -0.033494
     4  C   -0.000792   0.000234   0.000012  -0.047779  -0.001251   0.167869
     5  C   -0.000315  -0.000013  -0.000004  -0.031116  -0.019208   0.000882
     6  C   -0.034813  -0.041975  -0.003496   0.000159   0.000032   0.003387
     7  H    0.000194  -0.000001  -0.000001   0.006705   0.000119  -0.026979
     8  H    0.005454   0.001717   0.005805   0.000011  -0.000011  -0.000158
     9  H   -0.000448   0.016642  -0.000073  -0.000069  -0.000003   0.000152
    10  H    0.000233   0.000001   0.000000  -0.038874   0.007110   0.006846
    11  C    0.363265   0.245431  -0.031273  -0.000000  -0.000003  -0.008372
    12  H   -0.035011  -0.032388  -0.006571   0.000000   0.000000   0.000346
    13  H    0.523697  -0.032868   0.006691   0.000002   0.000000   0.022337
    14  O   -0.032868   8.222095   0.233643   0.000000  -0.000000  -0.000073
    15  H    0.006691   0.233643   0.404635  -0.000000   0.000000  -0.000018
    16  O    0.000002   0.000000  -0.000000   8.258978   0.227072   0.001232
    17  H    0.000000  -0.000000   0.000000   0.227072   0.378294  -0.000049
    18  O    0.022337  -0.000073  -0.000018   0.001232  -0.000049   8.302778
    19  H   -0.001473   0.000086   0.000002  -0.000166   0.000016   0.228677
    20  O    0.000021   0.000003  -0.000055  -0.000285   0.000865   0.001786
    21  H    0.000002  -0.000001   0.000002   0.000251   0.001474  -0.000023
    22  H   -0.000014   0.000001  -0.000000   0.002736   0.001113  -0.000119
    23  O    0.000006   0.000000  -0.000000  -0.015880   0.039577   0.000022
    24  H   -0.000000  -0.000000  -0.000000   0.000000  -0.000005   0.000000
    25  O    0.000008   0.000001  -0.000000   0.000000   0.000001  -0.000000
    26  H   -0.000003  -0.000002  -0.000002  -0.000000   0.000000  -0.000000
    27  H   -0.000046   0.000020  -0.000001  -0.000014  -0.000028  -0.000002
    28  O    0.000000   0.000000  -0.000000  -0.000002   0.000056   0.000000
    29  H   -0.000000   0.000000   0.000000   0.000001  -0.000015   0.000000
    30  H    0.000000  -0.000000   0.000000  -0.000012  -0.000216   0.000000
              19         20         21         22         23         24
     1  O    0.000068   0.000654  -0.000840  -0.048342  -0.057526   0.004415
     2  C   -0.002935   0.247138  -0.036251  -0.000100   0.001946  -0.000005
     3  C    0.006959   0.004600   0.000673  -0.053374  -0.048798   0.000100
     4  C   -0.021846  -0.043692  -0.003336   0.006078  -0.004978  -0.000000
     5  C   -0.000287   0.003617  -0.010296   0.364600   0.238351  -0.000093
     6  C   -0.001266  -0.043039  -0.000574   0.004341   0.007567  -0.000160
     7  H   -0.006464   0.007139  -0.000730  -0.000207  -0.000010   0.000000
     8  H   -0.000005   0.005031   0.000031  -0.000139   0.000979  -0.000197
     9  H    0.006131  -0.038320   0.005557   0.000006  -0.000031  -0.000000
    10  H   -0.000291  -0.000052   0.000073  -0.004220   0.003612  -0.000003
    11  C    0.001147   0.003263   0.000021  -0.000125   0.000175   0.000019
    12  H   -0.000007  -0.000065   0.000004   0.000008   0.000002  -0.000006
    13  H   -0.001473   0.000021   0.000002  -0.000014   0.000006  -0.000000
    14  O    0.000086   0.000003  -0.000001   0.000001   0.000000  -0.000000
    15  H    0.000002  -0.000055   0.000002  -0.000000  -0.000000  -0.000000
    16  O   -0.000166  -0.000285   0.000251   0.002736  -0.015880   0.000000
    17  H    0.000016   0.000865   0.001474   0.001113   0.039577  -0.000005
    18  O    0.228677   0.001786  -0.000023  -0.000119   0.000022   0.000000
    19  H    0.394335  -0.000020   0.000017   0.000011  -0.000000  -0.000000
    20  O   -0.000020   8.342709   0.212546  -0.000178  -0.031972   0.000000
    21  H    0.000017   0.212546   0.335579   0.001459   0.072949  -0.000010
    22  H    0.000011  -0.000178   0.001459   0.662693  -0.052323  -0.000498
    23  O   -0.000000  -0.031972   0.072949  -0.052323   8.486585   0.004553
    24  H   -0.000000   0.000000  -0.000010  -0.000498   0.004553   0.283272
    25  O    0.000000   0.000003  -0.000012   0.000760  -0.001773   0.135410
    26  H   -0.000000  -0.000001   0.000003  -0.000008   0.000045  -0.005113
    27  H   -0.000002  -0.000203  -0.000078  -0.001986   0.005288  -0.005481
    28  O    0.000000  -0.000010   0.000217   0.004067  -0.082304   0.135816
    29  H   -0.000000   0.000000  -0.000010  -0.000078   0.003705  -0.007341
    30  H   -0.000000   0.000290  -0.000500  -0.006144   0.122411  -0.011016
              25         26         27         28         29         30
     1  O   -0.097156   0.003711   0.122411  -0.001075  -0.000016   0.002517
     2  C   -0.000040   0.000038   0.001766   0.000010  -0.000000  -0.000102
     3  C   -0.000024   0.000001   0.001568   0.000014   0.000033   0.001991
     4  C   -0.000001   0.000000   0.000092  -0.000002  -0.000000  -0.000065
     5  C    0.006307  -0.000137  -0.006331   0.011902   0.000104  -0.014183
     6  C    0.006185   0.000102  -0.008340  -0.000069   0.000002   0.000034
     7  H    0.000000  -0.000000   0.000008  -0.000000   0.000000   0.000005
     8  H    0.003496   0.000297  -0.001921   0.000036  -0.000001  -0.000011
     9  H    0.000001  -0.000001  -0.000039   0.000000   0.000000   0.000000
    10  H    0.000003  -0.000000  -0.000082   0.000004  -0.000001  -0.000071
    11  C   -0.000653  -0.000020  -0.001314  -0.000001  -0.000000   0.000001
    12  H    0.000298   0.000245   0.002751   0.000001  -0.000000  -0.000001
    13  H    0.000008  -0.000003  -0.000046   0.000000  -0.000000   0.000000
    14  O    0.000001  -0.000002   0.000020   0.000000   0.000000  -0.000000
    15  H   -0.000000  -0.000002  -0.000001  -0.000000   0.000000   0.000000
    16  O    0.000000  -0.000000  -0.000014  -0.000002   0.000001  -0.000012
    17  H    0.000001   0.000000  -0.000028   0.000056  -0.000015  -0.000216
    18  O   -0.000000  -0.000000  -0.000002   0.000000   0.000000   0.000000
    19  H    0.000000  -0.000000  -0.000002   0.000000  -0.000000  -0.000000
    20  O    0.000003  -0.000001  -0.000203  -0.000010   0.000000   0.000290
    21  H   -0.000012   0.000003  -0.000078   0.000217  -0.000010  -0.000500
    22  H    0.000760  -0.000008  -0.001986   0.004067  -0.000078  -0.006144
    23  O   -0.001773   0.000045   0.005288  -0.082304   0.003705   0.122411
    24  H    0.135410  -0.005113  -0.005481   0.135816  -0.007341  -0.011016
    25  O    8.489033   0.237966   0.130209  -0.092607   0.003843   0.006960
    26  H    0.237966   0.343448  -0.006199   0.003753  -0.000112  -0.000181
    27  H    0.130209  -0.006199   0.268754   0.003694  -0.000118  -0.000373
    28  O   -0.092607   0.003753   0.003694   8.473290   0.234681   0.143602
    29  H    0.003843  -0.000112  -0.000118   0.234681   0.363436  -0.006074
    30  H    0.006960  -0.000181  -0.000373   0.143602  -0.006074   0.298765
 Mulliken charges:
               1
     1  O   -0.616070
     2  C    0.088476
     3  C    0.118994
     4  C    0.096256
     5  C    0.304416
     6  C    0.089983
     7  H    0.152549
     8  H    0.123457
     9  H    0.143550
    10  H    0.160222
    11  C   -0.054357
    12  H    0.118459
    13  H    0.190188
    14  O   -0.607329
    15  H    0.391697
    16  O   -0.636808
    17  H    0.401675
    18  O   -0.632058
    19  H    0.397312
    20  O   -0.671773
    21  H    0.421804
    22  H    0.119983
    23  O   -0.692177
    24  H    0.466343
    25  O   -0.828217
    26  H    0.422169
    27  H    0.495999
    28  O   -0.835075
    29  H    0.407961
    30  H    0.462372
 Sum of Mulliken charges =  -0.00000
 Mulliken charges with hydrogens summed into heavy atoms:
               1
     1  O   -0.616070
     2  C    0.232026
     3  C    0.279216
     4  C    0.248804
     5  C    0.424398
     6  C    0.213440
    11  C    0.254290
    14  O   -0.215632
    16  O   -0.235133
    18  O   -0.234746
    20  O   -0.249968
    23  O   -0.692177
    25  O    0.556294
    28  O    0.035258
 APT charges:
               1
     1  O   -0.345272
     2  C   -0.388791
     3  C   -0.291275
     4  C   -0.331404
     5  C   -0.297014
     6  C   -0.217920
     7  H    0.502651
     8  H    0.335938
     9  H    0.487795
    10  H    0.446701
    11  C   -0.602021
    12  H    0.408043
    13  H    0.358235
    14  O   -0.720041
    15  H    0.643878
    16  O   -0.561403
    17  H    0.457096
    18  O   -0.884315
    19  H    0.759373
    20  O   -0.531697
    21  H    0.381847
    22  H    0.439891
    23  O   -0.580893
    24  H    0.405713
    25  O   -1.041840
    26  H    0.745687
    27  H    0.406171
    28  O   -1.140470
    29  H    0.878509
    30  H    0.276829
 Sum of APT charges =  -0.00000
 APT charges with hydrogens summed into heavy atoms:
               1
     1  O   -0.345272
     2  C    0.099004
     3  C    0.155426
     4  C    0.171247
     5  C    0.142877
     6  C    0.118018
    11  C    0.164257
    14  O   -0.076163
    16  O   -0.104307
    18  O   -0.124942
    20  O   -0.149850
    23  O   -0.580893
    25  O    0.515730
    28  O    0.014867
 Electronic spatial extent (au):  <R**2>=           2999.5483
 Charge=             -0.0000 electrons
 Dipole moment (field-independent basis, Debye):
    X=              2.2562    Y=             -4.7944    Z=             -0.6302  Tot=              5.3361
 Quadrupole moment (field-independent basis, Debye-Ang):
   XX=            -75.5211   YY=            -80.7031   ZZ=            -92.6992
   XY=             -3.5473   XZ=             -4.9259   YZ=             -1.5974
 Traceless Quadrupole moment (field-independent basis, Debye-Ang):
   XX=              7.4534   YY=              2.2714   ZZ=             -9.7247
   XY=             -3.5473   XZ=             -4.9259   YZ=             -1.5974
 Octapole moment (field-independent basis, Debye-Ang**2):
  XXX=             54.2242  YYY=            -81.4586  ZZZ=            -11.5796  XYY=             17.1481
  XXY=             21.8040  XXZ=             -9.0451  XZZ=              5.2369  YZZ=             -5.7799
  YYZ=             26.5406  XYZ=              1.2472
 Hexadecapole moment (field-independent basis, Debye-Ang**3):
 XXXX=          -1452.8516 YYYY=          -1273.2909 ZZZZ=           -498.8016 XXXY=            -64.3562
 XXXZ=            -74.4219 YYYX=            -43.8132 YYYZ=              1.0469 ZZZX=             11.4346
 ZZZY=            -16.4762 XXYY=           -506.8580 XXZZ=           -386.4684 YYZZ=           -292.4675
 XXYZ=              0.9784 YYXZ=             -4.2090 ZZXY=             31.4942
 N-N= 1.128588087420D+03 E-N=-4.229605557547D+03  KE= 8.328046288450D+02
  Exact polarizability:   0.000   0.000   0.000   0.000   0.000   0.000
 Approx polarizability: 140.000   4.435 131.334   2.590   1.448 127.985
 Calling FoFJK, ICntrl=    100147 FMM=F ISym2X=0 I1Cent= 0 IOpClX= 0 NMat=1 NMatS=1 NMatT=0.
 ***** Axes restored to original set *****
 -------------------------------------------------------------------
 Center     Atomic                   Forces (Hartrees/Bohr)
 Number     Number              X              Y              Z
 -------------------------------------------------------------------
      1        8           0.000064331   -0.000317288   -0.000138218
      2        6           0.000237970   -0.000047159    0.000339715
      3        6          -0.000120534    0.000035585   -0.000285471
      4        6           0.000209715   -0.000013789   -0.000139862
      5        6           0.000039280    0.000557725    0.001335026
      6        6           0.000086735    0.000070689    0.000207156
      7        1           0.000055215   -0.000039503   -0.000061347
      8        1           0.000095727    0.000074638   -0.000179774
      9        1          -0.000187914   -0.000088336   -0.000050041
     10        1          -0.000035756   -0.000017248    0.000136758
     11        6          -0.000079586    0.000035724    0.000046835
     12        1           0.000001753   -0.000183345    0.000132683
     13        1           0.000070570   -0.000109998   -0.000067629
     14        8           0.000145229    0.000282594    0.000229085
     15        1          -0.000211635    0.000022312   -0.000082494
     16        8          -0.000258854    0.000062567   -0.000184990
     17        1           0.000245483   -0.000040452    0.000205710
     18        8          -0.000446171    0.000001242    0.000144967
     19        1           0.000425924    0.000136098   -0.000199038
     20        8          -0.000043930   -0.000793470   -0.000126502
     21        1          -0.000065999    0.000464686   -0.000120696
     22        1           0.000375289    0.000022808   -0.000157247
     23        8          -0.000252328   -0.000400048   -0.001000128
     24        1           0.000224664    0.000053263    0.000150847
     25        8          -0.000318573    0.000135751   -0.000328391
     26        1          -0.000017657   -0.000129169    0.000212532
     27        1           0.000049694    0.000045435   -0.000175086
     28        8          -0.000644988   -0.000567038    0.000268958
     29        1           0.000556908    0.000485347   -0.000346630
     30        1          -0.000200562    0.000260380    0.000233273
 -------------------------------------------------------------------
 Cartesian Forces:  Max     0.001335026 RMS     0.000298139

 GradGradGradGradGradGradGradGradGradGradGradGradGradGradGradGradGradGrad
 Berny optimization.
 Search for a saddle point.
 Step number   1 out of a maximum of  180
 All quantities printed in internal units (Hartrees-Bohrs-Radians)
 Swapping is turned off.
 Second derivative matrix not updated -- analytic derivatives used.
 ITU=  0
     Eigenvalues ---   -0.05335   0.00009   0.00052   0.00100   0.00140
     Eigenvalues ---    0.00316   0.00330   0.00484   0.00595   0.00694
     Eigenvalues ---    0.00785   0.00959   0.01137   0.01313   0.01530
     Eigenvalues ---    0.01636   0.01928   0.02224   0.02394   0.02469
     Eigenvalues ---    0.02634   0.03051   0.03672   0.04108   0.04365
     Eigenvalues ---    0.04525   0.04765   0.04947   0.05138   0.05514
     Eigenvalues ---    0.05702   0.06023   0.06166   0.06900   0.07122
     Eigenvalues ---    0.07618   0.08095   0.08426   0.09792   0.10192
     Eigenvalues ---    0.10840   0.11578   0.12199   0.12739   0.13702
     Eigenvalues ---    0.14580   0.15015   0.16323   0.16670   0.17534
     Eigenvalues ---    0.18445   0.19967   0.20614   0.21787   0.22602
     Eigenvalues ---    0.26191   0.26987   0.30641   0.32505   0.34730
     Eigenvalues ---    0.39180   0.41064   0.43173   0.48455   0.53287
     Eigenvalues ---    0.57701   0.60289   0.63906   0.65271   0.65874
     Eigenvalues ---    0.74031   0.78366   0.80333   0.81037   0.83392
     Eigenvalues ---    0.87098   0.89966   0.94033   0.96444   0.99281
     Eigenvalues ---    1.00524   1.03062   1.05466   1.07518
 Eigenvectors required to have negative eigenvalues:
                          X27       Y27       Y24       X30       X24
   1                    0.50444  -0.41465   0.38517  -0.36087   0.24711
                          Z24       X28       Y5        Y1        Y30
   1                    0.22321  -0.15163  -0.15039   0.14193   0.13523
 RFO step:  Lambda0=4.055576002D-08 Lambda=-1.13562480D-04.
 Linear search not attempted -- option 19 set.
 B after Tr=    -0.000411    0.000853   -0.000840
         Rot=    1.000000   -0.000291   -0.000133    0.000146 Ang=  -0.04 deg.
 Variable       Old X    -DE/DX   Delta X   Delta X   Delta X     New X
                                 (Linear)    (Quad)   (Total)
    X1        0.65577   0.00006   0.00000   0.00380   0.00265   0.65842
    Y1       -1.23954  -0.00032   0.00000   0.00455   0.00604  -1.23350
    Z1       -1.41180  -0.00014   0.00000  -0.01733  -0.01906  -1.43087
    X2       -2.38139   0.00024   0.00000   0.01094   0.01112  -2.37027
    Y2        0.37096  -0.00005   0.00000  -0.01221  -0.01172   0.35924
    Z2        1.80720   0.00034   0.00000  -0.00043  -0.00043   1.80677
    X3       -0.20218  -0.00012   0.00000  -0.00235  -0.00216  -0.20434
    Y3        3.34692   0.00004   0.00000   0.00175   0.00349   3.35041
    Z3       -1.43339  -0.00029   0.00000  -0.00347  -0.00230  -1.43569
    X4       -2.66726   0.00021   0.00000   0.00515   0.00551  -2.66175
    Y4        2.64728  -0.00001   0.00000  -0.00870  -0.00708   2.64020
    Z4        0.00509  -0.00014   0.00000   0.00314   0.00454   0.00964
    X5        1.93248   0.00004   0.00000   0.00303   0.00274   1.93522
    Y5        1.39892   0.00056   0.00000   0.01032   0.01124   1.41016
    Z5       -1.08672   0.00134   0.00000  -0.00319  -0.00372  -1.09045
    X6       -1.25219   0.00009   0.00000   0.01907   0.01821  -1.23398
    Y6       -1.94947   0.00007   0.00000  -0.00525  -0.00429  -1.95377
    Z6        0.45661   0.00021   0.00000  -0.00545  -0.00710   0.44951
    X7       -3.18450   0.00006   0.00000   0.00294   0.00408  -3.18042
    Y7        4.29258  -0.00004   0.00000  -0.01154  -0.01043   4.28215
    Z7        1.15648  -0.00006   0.00000   0.00614   0.00864   1.16513
    X8       -0.32962   0.00010   0.00000   0.03581   0.03500  -0.29462
    Y8       -3.10200   0.00007   0.00000   0.00302   0.00284  -3.09916
    Z8        1.92193  -0.00018   0.00000  -0.01059  -0.01316   1.90877
    X9       -4.26203  -0.00019   0.00000   0.01003   0.01021  -4.25182
    Y9       -0.20138  -0.00009   0.00000  -0.01807  -0.01740  -0.21878
    Z9        2.46247  -0.00005   0.00000  -0.00819  -0.00803   2.45444
   X10       -0.71252  -0.00004   0.00000  -0.00728  -0.00759  -0.72011
   Y10        3.45813  -0.00002   0.00000  -0.00225   0.00081   3.45894
   Z10       -3.43400   0.00014   0.00000  -0.00189  -0.00052  -3.43452
   X11       -3.18185  -0.00008   0.00000   0.01561   0.01389  -3.16796
   Y11       -3.55738   0.00004   0.00000  -0.01533  -0.01298  -3.57036
   Z11       -0.99940   0.00005   0.00000   0.00955   0.00748  -0.99193
   X12       -2.18244   0.00000   0.00000   0.00371   0.00128  -2.18115
   Y12       -5.07891  -0.00018   0.00000  -0.06033  -0.05770  -5.13662
   Z12       -2.01113   0.00013   0.00000   0.06516   0.06191  -1.94922
   X13       -4.11709   0.00007   0.00000   0.05377   0.05201  -4.06508
   Y13       -2.36710  -0.00011   0.00000  -0.03729  -0.03383  -2.40094
   Z13       -2.39773  -0.00007   0.00000  -0.03467  -0.03582  -2.43356
   X14       -5.11011   0.00015   0.00000  -0.02329  -0.02484  -5.13496
   Y14       -4.52784   0.00028   0.00000   0.05776   0.05976  -4.46808
   Z14        0.59523   0.00023   0.00000   0.00734   0.00526   0.60049
   X15       -4.33538  -0.00021   0.00000  -0.06462  -0.06617  -4.40155
   Y15       -5.66112   0.00002   0.00000   0.06343   0.06449  -5.59663
   Z15        1.81123  -0.00008   0.00000   0.03848   0.03555   1.84679
   X16        0.77390  -0.00026   0.00000  -0.01118  -0.01011   0.76379
   Y16        5.73291   0.00006   0.00000   0.00713   0.00818   5.74109
   Z16       -0.71941  -0.00018   0.00000  -0.00744  -0.00514  -0.72455
   X17        1.87338   0.00025   0.00000  -0.00663  -0.00528   1.86810
   Y17        5.37346  -0.00004   0.00000   0.01514   0.01503   5.38849
   Z17        0.71652   0.00021   0.00000  -0.00842  -0.00662   0.70989
   X18       -4.54219  -0.00045   0.00000   0.00268   0.00239  -4.53980
   Y18        2.16807   0.00000   0.00000  -0.01227  -0.00899   2.15908
   Z18       -1.89055   0.00014   0.00000   0.00670   0.00833  -1.88222
   X19       -6.15071   0.00043   0.00000   0.00704   0.00691  -6.14380
   Y19        1.93293   0.00014   0.00000  -0.02352  -0.02028   1.91265
   Z19       -1.03878  -0.00020   0.00000   0.00974   0.01165  -1.02713
   X20       -1.01499  -0.00004   0.00000   0.00392   0.00487  -1.01013
   Y20        1.03103  -0.00079   0.00000  -0.02218  -0.02337   1.00766
   Z20        4.00725  -0.00013   0.00000   0.00569   0.00571   4.01296
   X21        0.73162  -0.00007   0.00000  -0.00329  -0.00239   0.72924
   Y21        1.35681   0.00046   0.00000   0.01315   0.01179   1.36860
   Z21        3.43924  -0.00012   0.00000   0.00510   0.00486   3.44411
   X22        3.17191   0.00038   0.00000   0.01028   0.00953   3.18145
   Y22        1.33840   0.00002   0.00000   0.01510   0.01663   1.35503
   Z22       -2.75903  -0.00016   0.00000   0.00061  -0.00029  -2.75932
   X23        3.13481  -0.00025   0.00000  -0.00644  -0.00608   3.12873
   Y23        1.62846  -0.00040   0.00000   0.00494   0.00423   1.63269
   Z23        1.10863  -0.00100   0.00000  -0.00115  -0.00187   1.10676
   X24        5.64737   0.00022   0.00000  -0.00311  -0.00448   5.64289
   Y24       -2.88688   0.00005   0.00000   0.00324   0.00270  -2.88418
   Z24       -0.42603   0.00015   0.00000  -0.00989  -0.01391  -0.43994
   X25        4.25753  -0.00032   0.00000   0.00551   0.00350   4.26103
   Y25       -4.06972   0.00014   0.00000   0.00969   0.01018  -4.05954
   Z25       -1.48556  -0.00033   0.00000  -0.03401  -0.03835  -1.52390
   X26        3.98996  -0.00002   0.00000  -0.00167  -0.00387   3.98608
   Y26       -5.61864  -0.00013   0.00000   0.00417   0.00421  -5.61443
   Z26       -0.54126   0.00021   0.00000  -0.04410  -0.04927  -0.59053
   X27        2.39610   0.00005   0.00000   0.00368   0.00205   2.39815
   Y27       -2.80743   0.00005   0.00000   0.01020   0.01124  -2.79618
   Z27       -1.48816  -0.00018   0.00000  -0.03300  -0.03611  -1.52426
   X28        6.89042  -0.00064   0.00000  -0.02409  -0.02459   6.86583
   Y28       -1.15177  -0.00057   0.00000  -0.01232  -0.01402  -1.16580
   Z28        0.92313   0.00027   0.00000   0.02312   0.01977   0.94290
   X29        8.22437   0.00056   0.00000  -0.00446  -0.00498   8.21939
   Y29       -0.36522   0.00049   0.00000  -0.00158  -0.00312  -0.36835
   Z29       -0.05445  -0.00035   0.00000   0.05569   0.05245  -0.00201
   X30        5.39282  -0.00020   0.00000  -0.02337  -0.02342   5.36940
   Y30        0.22038   0.00026   0.00000  -0.00628  -0.00766   0.21272
   Z30        1.13106   0.00023   0.00000   0.01769   0.01554   1.14660
         Item               Value     Threshold  Converged?
 Maximum Force            0.001335     0.000450     NO 
 RMS     Force            0.000298     0.000300     YES
 Maximum Displacement     0.066170     0.001800     NO 
 RMS     Displacement     0.021903     0.001200     NO 
 Predicted change in Energy=-5.909807D-05
 GradGradGradGradGradGradGradGradGradGradGradGradGradGradGradGradGradGrad

                          Input orientation:                          
 ---------------------------------------------------------------------
 Center     Atomic      Atomic             Coordinates (Angstroms)
 Number     Number       Type             X           Y           Z
 ---------------------------------------------------------------------
      1          8           0        0.348419   -0.652739   -0.757181
      2          6           0       -1.254293    0.190100    0.956103
      3          6           0       -0.108132    1.772962   -0.759736
      4          6           0       -1.408539    1.397134    0.005099
      5          6           0        1.024074    0.746224   -0.577039
      6          6           0       -0.652993   -1.033889    0.237870
      7          1           0       -1.683004    2.266015    0.616558
      8          1           0       -0.155907   -1.640003    1.010079
      9          1           0       -2.249966   -0.115774    1.298835
     10          1           0       -0.381067    1.830392   -1.817470
     11          6           0       -1.676411   -1.889353   -0.524905
     12          1           0       -1.154216   -2.718180   -1.031483
     13          1           0       -2.151148   -1.270523   -1.287783
     14          8           0       -2.717302   -2.364406    0.317765
     15          1           0       -2.329198   -2.961608    0.977278
     16          8           0        0.404182    3.038052   -0.383416
     17          1           0        0.988555    2.851466    0.375659
     18          8           0       -2.402357    1.142536   -0.996026
     19          1           0       -3.251158    1.012132   -0.543536
     20          8           0       -0.534535    0.533228    2.123567
     21          1           0        0.385896    0.724234    1.822543
     22          1           0        1.683550    0.717050   -1.460169
     23          8           0        1.655653    0.863983    0.585671
     24          1           0        2.986088   -1.526242   -0.232805
     25          8           0        2.254840   -2.148215   -0.806416
     26          1           0        2.109345   -2.971029   -0.312494
     27          1           0        1.269047   -1.479677   -0.806604
     28          8           0        3.633241   -0.616912    0.498960
     29          1           0        4.349514   -0.194920   -0.001061
     30          1           0        2.841365    0.112566    0.606757
 ---------------------------------------------------------------------
                    Distance matrix (angstroms):
                    1          2          3          4          5
     1  O    0.000000
     2  C    2.492872   0.000000
     3  C    2.468294   2.600623   0.000000
     4  C    2.805344   1.544387   1.554760   0.000000
     5  C    1.563988   2.801920   1.539305   2.584603   0.000000
     6  C    1.462268   1.541288   3.028284   2.556346   2.577873
     7  H    3.812213   2.146743   2.148839   1.097345   3.326065
     8  H    2.086202   2.135098   3.844848   3.435589   3.099254
     9  H    3.356656   1.096535   3.520297   2.161167   3.870566
    10  H    2.796838   3.338531   1.093889   2.136626   2.165297
    11  C    2.383925   2.587604   3.990889   3.339709   3.773805
    12  H    2.568890   3.524004   4.619361   4.251469   4.117470
    13  H    2.628884   2.823613   3.703451   3.056044   3.828114
    14  O    3.672051   3.012204   5.008652   3.994972   4.947180
    15  H    3.938129   3.330035   5.510581   4.559756   5.235299
    16  O    3.710088   3.557483   1.415817   2.475786   2.382065
    17  H    3.737988   3.528477   1.911809   2.828154   2.311047
    18  O    3.293453   2.456826   2.390970   1.433439   3.474629
    19  H    3.971699   2.629091   3.241021   1.960733   4.283624
    20  O    3.238030   1.413775   3.167365   2.449106   3.125364
    21  H    2.924455   1.930347   2.830558   2.641192   2.483092
    22  H    2.037913   3.840178   2.194466   3.488630   1.102578
    23  O    2.410925   3.009838   2.397353   3.163951   1.328402
    24  H    2.827591   4.726538   4.553746   5.283509   3.021936
    25  O    2.423492   4.570362   4.578367   5.162209   3.153597
    26  H    2.945008   4.787080   5.255728   5.617581   3.881464
    27  H    1.238476   3.501790   3.532489   4.013025   2.251077
    28  O    3.516991   4.974760   4.614508   5.451589   3.134273
    29  H    4.097570   5.697988   4.931406   5.974098   3.503720
    30  H    2.942923   4.111261   3.650171   4.480378   2.259522
                    6          7          8          9         10
     6  C    0.000000
     7  H    3.477599   0.000000
     8  H    1.100352   4.212346   0.000000
     9  H    2.125771   2.541627   2.606096   0.000000
    10  H    3.535884   2.794512   4.482117   4.122099   0.000000
    11  C    1.536564   4.309300   2.174921   2.607792   4.145497
    12  H    2.167791   5.276159   2.515365   3.661088   4.680282
    13  H    2.151298   4.043856   3.065562   2.834396   3.609630
    14  O    2.457241   4.753930   2.750419   2.497448   5.254860
    15  H    2.659415   5.279747   2.543799   2.865039   5.879549
    16  O    4.252566   2.439741   4.913220   4.452088   2.032627
    17  H    4.220148   2.745544   4.678202   4.488294   2.779977
    18  O    3.052802   2.092870   4.100429   2.621632   2.287691
    19  H    3.398126   2.318868   4.362123   2.380942   3.244978
    20  O    2.454739   2.567607   2.471063   2.010992   4.151862
    21  H    2.584855   2.848129   2.557981   2.815609   3.880917
    22  H    3.377655   4.248032   3.878327   4.876294   2.372728
    23  O    3.008775   3.621226   3.119586   4.089302   3.295036
    24  H    3.702277   6.074788   3.380803   5.634856   5.011575
    25  O    3.284471   6.084151   3.060985   5.371794   4.878478
    26  H    3.418467   6.532356   2.941461   5.454581   5.614334
    27  H    2.232463   4.976967   2.314418   4.321638   3.834225
    28  O    4.314375   6.048765   3.957978   5.958444   5.241165
    29  H    5.077995   6.544382   4.838335   6.726748   5.457072
    30  H    3.696075   5.010724   3.495397   5.143225   4.383135
                   11         12         13         14         15
    11  C    0.000000
    12  H    1.102843   0.000000
    13  H    1.091013   1.776309   0.000000
    14  O    1.420994   2.094962   2.023585   0.000000
    15  H    1.957656   2.339864   2.832308   0.970686   0.000000
    16  O    5.350534   5.998567   5.090325   6.278684   6.731922
    17  H    5.512570   6.131270   5.442018   6.398597   6.720213
    18  O    3.152984   4.057615   2.443579   3.758175   4.554479
    19  H    3.301332   4.307027   2.640916   3.525316   4.353560
    20  O    3.766588   4.572746   4.183810   4.052367   4.092514
    21  H    4.073630   4.729442   4.482162   4.629675   4.655281
    22  H    4.354008   4.476326   4.322623   5.658968   5.964547
    23  O    4.462834   4.831402   4.749493   5.442151   5.537828
    24  H    4.685730   4.381862   5.250673   5.790881   5.637095
    25  O    3.949809   3.463695   4.518273   5.102227   4.985638
    26  H    3.942979   3.351374   4.689852   4.905276   4.622149
    27  H    2.987124   2.730689   3.460204   4.235319   4.280855
    28  O    5.555160   5.447690   6.089237   6.589078   6.424723
    29  H    6.281503   6.141633   6.713508   7.399203   7.294992
    30  H    5.069382   5.163489   5.516104   6.092428   6.026819
                   16         17         18         19         20
    16  O    0.000000
    17  H    0.975961   0.000000
    18  O    3.441648   4.037357   0.000000
    19  H    4.182285   4.712031   0.970678   0.000000
    20  O    3.666101   3.278599   3.686717   3.837033   0.000000
    21  H    3.196927   2.642307   3.986686   4.348491   0.987063
    22  H    2.860635   2.899830   4.134139   5.027786   4.218632
    23  O    2.689217   2.106944   4.364265   5.037246   2.696563
    24  H    5.246113   4.850226   6.061371   6.741152   4.710488
    25  O    5.522792   5.291274   5.705653   6.353968   4.853406
    26  H    6.246732   5.969185   6.143621   6.682360   5.020390
    27  H    4.619194   4.498357   4.515649   5.168226   3.986302
    28  O    4.956225   4.363395   6.462127   7.150911   4.618715
    29  H    5.115071   4.551751   6.954604   7.715016   5.375704
    30  H    3.934307   3.314798   5.579101   6.265080   3.724832
                   21         22         23         24         25
    21  H    0.000000
    22  H    3.529895   0.000000
    23  O    1.778107   2.051299   0.000000
    24  H    4.006257   2.869736   2.855370   0.000000
    25  O    4.319183   2.993912   3.371982   1.118303   0.000000
    26  H    4.602567   3.885921   3.964826   1.691874   0.970644
    27  H    3.542540   2.329070   2.753295   1.810979   1.191105
    28  O    3.754436   3.069028   2.472129   1.334604   2.439033
    29  H    4.458772   3.173019   2.953374   1.919650   2.975166
    30  H    2.807419   2.445019   1.403917   1.847025   2.729871
                   26         27         28         29         30
    26  H    0.000000
    27  H    1.781678   0.000000
    28  O    2.919346   2.835185   0.000000
    29  H    3.580800   3.433479   0.970127   0.000000
    30  H    3.299914   2.646698   1.082047   1.654843   0.000000
 Stoichiometry    C6H16O8
 Framework group  C1[X(C6H16O8)]
 Deg. of freedom    84
 Full point group                 C1      NOp   1
 Largest Abelian subgroup         C1      NOp   1
 Largest concise Abelian subgroup C1      NOp   1
                         Standard orientation:                         
 ---------------------------------------------------------------------
 Center     Atomic      Atomic             Coordinates (Angstroms)
 Number     Number       Type             X           Y           Z
 ---------------------------------------------------------------------
      1          8           0        0.351672   -0.653142   -0.755472
      2          6           0       -1.255582    0.186643    0.955056
      3          6           0       -0.110940    1.771408   -0.760040
      4          6           0       -1.411490    1.392756    0.003155
      5          6           0        1.023569    0.747608   -0.575155
      6          6           0       -0.650200   -1.036239    0.238368
      7          1           0       -1.688998    2.261289    0.613734
      8          1           0       -0.152700   -1.640676    1.011623
      9          1           0       -2.250974   -0.121529    1.296542
     10          1           0       -0.382510    1.827564   -1.818194
     11          6           0       -1.670388   -1.894687   -0.525382
     12          1           0       -1.145401   -2.722487   -1.030751
     13          1           0       -2.145584   -1.277472   -1.289282
     14          8           0       -2.711287   -2.371871    0.316073
     15          1           0       -2.322632   -2.967731    0.976473
     16          8           0        0.397674    3.037986   -0.383703
     17          1           0        0.981429    2.853286    0.376307
     18          8           0       -2.403242    1.135113   -0.999241
     19          1           0       -3.252358    1.002839   -0.547885
     20          8           0       -0.538348    0.532223    2.123350
     21          1           0        0.382031    0.725362    1.823529
     22          1           0        1.684373    0.719590   -1.457329
     23          8           0        1.653195    0.867595    0.588386
     24          1           0        2.990767   -1.519751   -0.226852
     25          8           0        2.261895   -2.143871   -0.801153
     26          1           0        2.117754   -2.966770   -0.306976
     27          1           0        1.274434   -1.477801   -0.803120
     28          8           0        3.634601   -0.608397    0.505322
     29          1           0        4.350529   -0.184894    0.006084
     30          1           0        2.840751    0.119159    0.611582
 ---------------------------------------------------------------------
 Rotational constants (GHZ):      0.7199431      0.5673463      0.3996764
 Standard basis: 6-31G(d) (6D, 7F)
 There are   242 symmetry adapted cartesian basis functions of A   symmetry.
 There are   242 symmetry adapted basis functions of A   symmetry.
   242 basis functions,   456 primitive gaussians,   242 cartesian basis functions
    58 alpha electrons       58 beta electrons
       nuclear repulsion energy      1129.0007691583 Hartrees.
 NAtoms=   30 NActive=   30 NUniq=   30 SFac= 1.00D+00 NAtFMM=   60 NAOKFM=F Big=F
 Integral buffers will be    131072 words long.
 Raffenetti 2 integral format.
 Two-electron integral symmetry is turned on.
 One-electron integrals computed using PRISM.
 NBasis=   242 RedAO= T EigKep=  1.21D-03  NBF=   242
 NBsUse=   242 1.00D-06 EigRej= -1.00D+00 NBFU=   242
 Initial guess from the checkpoint file:  "/scratch/10461812.yak.local/Gau-4998.chk"
 B after Tr=     0.000000   -0.000000    0.000000
         Rot=    0.999999   -0.000261    0.000467   -0.000963 Ang=  -0.13 deg.
 ExpMin= 1.61D-01 ExpMax= 5.48D+03 ExpMxC= 8.25D+02 IAcc=1 IRadAn=         1 AccDes= 0.00D+00
 Harris functional with IExCor=  402 and IRadAn=       1 diagonalized for initial guess.
 HarFok:  IExCor=  402 AccDes= 0.00D+00 IRadAn=         1 IDoV= 1 UseB2=F ITyADJ=14
 ICtDFT=  3500011 ScaDFX=  1.000000  1.000000  1.000000  1.000000
 FoFCou: FMM=F IPFlag=           0 FMFlag=      100000 FMFlg1=           0
         NFxFlg=           0 DoJE=T BraDBF=F KetDBF=T FulRan=T
         wScrn=  0.000000 ICntrl=     500 IOpCl=  0 I1Cent=   200000004 NGrid=           0
         NMat0=    1 NMatS0=      1 NMatT0=    0 NMatD0=    1 NMtDS0=    0 NMtDT0=    0
 Petite list used in FoFCou.
 Requested convergence on RMS density matrix=1.00D-08 within 128 cycles.
 Requested convergence on MAX density matrix=1.00D-06.
 Requested convergence on             energy=1.00D-06.
 No special actions if energy rises.
 Integral accuracy reduced to 1.0D-05 until final iterations.
 Initial convergence to 1.0D-05 achieved.  Increase integral accuracy.
 SCF Done:  E(RB3LYP) =  -839.965344042     A.U. after   11 cycles
            NFock= 11  Conv=0.47D-08     -V/T= 2.0086
 Calling FoFJK, ICntrl=      2127 FMM=F ISym2X=0 I1Cent= 0 IOpClX= 0 NMat=1 NMatS=1 NMatT=0.
 ***** Axes restored to original set *****
 -------------------------------------------------------------------
 Center     Atomic                   Forces (Hartrees/Bohr)
 Number     Number              X              Y              Z
 -------------------------------------------------------------------
      1        8          -0.000000243    0.000007635    0.000021788
      2        6          -0.000015913    0.000000914    0.000013020
      3        6          -0.000003875    0.000006843   -0.000000326
      4        6           0.000002279   -0.000000473   -0.000000276
      5        6           0.000005716    0.000003701    0.000002838
      6        6           0.000028557   -0.000033777    0.000010864
      7        1          -0.000001168   -0.000004246   -0.000000553
      8        1          -0.000000761    0.000025341   -0.000030952
      9        1           0.000014304    0.000001116   -0.000012385
     10        1          -0.000000136   -0.000000783    0.000004003
     11        6          -0.000148181   -0.000220514   -0.000091113
     12        1          -0.000239068    0.000294164    0.000206695
     13        1           0.000090573   -0.000247427    0.000238469
     14        8           0.000385591   -0.000082075   -0.000089282
     15        1          -0.000103861    0.000237638   -0.000273446
     16        8          -0.000006983   -0.000006826    0.000007122
     17        1          -0.000009840    0.000001735   -0.000006862
     18        8          -0.000015687   -0.000006282    0.000005869
     19        1           0.000019149   -0.000007094   -0.000006324
     20        8           0.000141646    0.000021086   -0.000060922
     21        1          -0.000132014   -0.000025002    0.000055117
     22        1          -0.000003314    0.000002001    0.000004533
     23        8          -0.000010848    0.000005157   -0.000002811
     24        1          -0.000013098   -0.000007988   -0.000010368
     25        8           0.000032996    0.000022750    0.000033736
     26        1           0.000010167    0.000025476   -0.000013980
     27        1           0.000004153    0.000003878    0.000000010
     28        8           0.000131986    0.000076934   -0.000102111
     29        1          -0.000169785   -0.000092528    0.000099124
     30        1           0.000007657   -0.000001354   -0.000001479
 -------------------------------------------------------------------
 Cartesian Forces:  Max     0.000385591 RMS     0.000096254

 GradGradGradGradGradGradGradGradGradGradGradGradGradGradGradGradGradGrad
 Berny optimization.
 Search for a saddle point.
 Step number   2 out of a maximum of  180
 All quantities printed in internal units (Hartrees-Bohrs-Radians)
 Swapping is turned off.
 Update second derivatives using D2CorN and points    1    2
 ITU=  0  0
     Eigenvalues ---   -0.05335   0.00010   0.00052   0.00106   0.00141
     Eigenvalues ---    0.00316   0.00331   0.00485   0.00595   0.00695
     Eigenvalues ---    0.00784   0.00960   0.01137   0.01313   0.01531
     Eigenvalues ---    0.01637   0.01928   0.02224   0.02394   0.02469
     Eigenvalues ---    0.02634   0.03050   0.03672   0.04108   0.04364
     Eigenvalues ---    0.04525   0.04764   0.04947   0.05138   0.05514
     Eigenvalues ---    0.05702   0.06023   0.06166   0.06900   0.07119
     Eigenvalues ---    0.07618   0.08097   0.08426   0.09791   0.10192
     Eigenvalues ---    0.10840   0.11582   0.12202   0.12740   0.13702
     Eigenvalues ---    0.14582   0.15012   0.16322   0.16669   0.17534
     Eigenvalues ---    0.18446   0.19964   0.20613   0.21798   0.22601
     Eigenvalues ---    0.26191   0.26989   0.30639   0.32508   0.34732
     Eigenvalues ---    0.39188   0.41063   0.43174   0.48466   0.53285
     Eigenvalues ---    0.57702   0.60288   0.63918   0.65271   0.65876
     Eigenvalues ---    0.74032   0.78366   0.80330   0.81033   0.83393
     Eigenvalues ---    0.87095   0.89956   0.94035   0.96434   0.99286
     Eigenvalues ---    1.00511   1.03062   1.05475   1.07515
 Eigenvectors required to have negative eigenvalues:
                          X27       Y27       Y24       X30       X24
   1                    0.50444  -0.41473   0.38517  -0.36081   0.24715
                          Z24       X28       Y5        Y1        Y30
   1                    0.22309  -0.15156  -0.15043   0.14185   0.13530
 RFO step:  Lambda0=2.106404509D-09 Lambda=-2.27135671D-06.
 Linear search not attempted -- option 19 set.
 B after Tr=     0.000013    0.000157    0.000057
         Rot=    1.000000   -0.000001   -0.000004   -0.000002 Ang=  -0.00 deg.
 Variable       Old X    -DE/DX   Delta X   Delta X   Delta X     New X
                                 (Linear)    (Quad)   (Total)
    X1        0.65842  -0.00000   0.00000  -0.00144  -0.00143   0.65698
    Y1       -1.23350   0.00001   0.00000   0.00261   0.00277  -1.23073
    Z1       -1.43087   0.00002   0.00000  -0.00169  -0.00164  -1.43251
    X2       -2.37027  -0.00002   0.00000  -0.00050  -0.00048  -2.37075
    Y2        0.35924   0.00000   0.00000   0.00214   0.00229   0.36152
    Z2        1.80677   0.00001   0.00000  -0.00090  -0.00082   1.80595
    X3       -0.20434  -0.00000   0.00000   0.00088   0.00086  -0.20348
    Y3        3.35041   0.00001   0.00000   0.00258   0.00274   3.35316
    Z3       -1.43569  -0.00000   0.00000   0.00069   0.00076  -1.43494
    X4       -2.66175   0.00000   0.00000  -0.00049  -0.00049  -2.66224
    Y4        2.64020  -0.00000   0.00000   0.00066   0.00081   2.64101
    Z4        0.00964  -0.00000   0.00000  -0.00266  -0.00257   0.00706
    X5        1.93522   0.00001   0.00000   0.00015   0.00014   1.93536
    Y5        1.41016   0.00000   0.00000   0.00157   0.00174   1.41189
    Z5       -1.09045   0.00000   0.00000   0.00006   0.00011  -1.09034
    X6       -1.23398   0.00003   0.00000   0.00157   0.00160  -1.23238
    Y6       -1.95377  -0.00003   0.00000   0.00194   0.00210  -1.95167
    Z6        0.44951   0.00001   0.00000   0.00096   0.00102   0.45053
    X7       -3.18042  -0.00000   0.00000  -0.00411  -0.00411  -3.18452
    Y7        4.28215  -0.00000   0.00000   0.00093   0.00107   4.28322
    Z7        1.16513  -0.00000   0.00000  -0.00468  -0.00458   1.16054
    X8       -0.29462  -0.00000   0.00000   0.00466   0.00470  -0.28992
    Y8       -3.09916   0.00003   0.00000   0.00511   0.00526  -3.09390
    Z8        1.90877  -0.00003   0.00000   0.00133   0.00138   1.91016
    X9       -4.25182   0.00001   0.00000  -0.00057  -0.00053  -4.25235
    Y9       -0.21878   0.00000   0.00000   0.00168   0.00182  -0.21696
    Z9        2.45444  -0.00001   0.00000  -0.00162  -0.00153   2.45291
   X10       -0.72011  -0.00000   0.00000   0.00270   0.00267  -0.71744
   Y10        3.45894  -0.00000   0.00000   0.00534   0.00550   3.46444
   Z10       -3.43452   0.00000   0.00000   0.00039   0.00046  -3.43406
   X11       -3.16796  -0.00015   0.00000   0.00244   0.00246  -3.16550
   Y11       -3.57036  -0.00022   0.00000  -0.00255  -0.00241  -3.57277
   Z11       -0.99193  -0.00009   0.00000   0.00455   0.00462  -0.98730
   X12       -2.18115  -0.00024   0.00000   0.00303   0.00305  -2.17810
   Y12       -5.13662   0.00029   0.00000  -0.00166  -0.00150  -5.13812
   Z12       -1.94922   0.00021   0.00000   0.00638   0.00644  -1.94278
[...]
 0.00078501,0.00013160,-0.00036302,-0.00052946,-0.00018565,-0.00008112,
 0.00014143,-0.00000770,-0.00176782,-0.00107345,-0.00023393,0.00177395,
 0.00059274,-0.00109083,0.00016565,-0.00057682,0.00025134,-0.01543820,0
 .00542875,-0.00528515,-0.00295448,0.07845962,0.00602721,-0.01124102,-0
 .00238982,0.00077875,0.00080963,0.00083525,-0.00032300,0.00021544,-0.0
 0075913,0.00016589,0.00014908,-0.00004955,0.00548257,0.00640918,0.0080
 4493,-0.00111436,-0.00132526,0.00142032,0.00002105,-0.00012544,0.00000
 958,-0.00005426,0.00041715,0.00014735,0.00002496,-0.00015802,-0.000116
 63,-0.00025256,0.00026108,-0.00012266,-0.00065100,0.00044048,0.0004635
 5,-0.00001497,-0.00044384,-0.00029785,0.00001752,-0.00003558,-0.000062
 44,0.00051946,-0.00005611,-0.00050047,-0.00010948,0.00005967,0.0001882
 1,-0.00055262,-0.00063537,-0.00049089,0.00041240,-0.00047305,0.0001792
 6,-0.00015797,-0.00031614,-0.00017613,-0.00004319,0.00009454,0.0000009
 9,-0.00122343,-0.00054643,-0.00044288,0.00108744,0.00016498,-0.0004376
 9,0.00045666,-0.00015144,-0.00084967,-0.01134770,0.00414183,-0.0055307
 3,0.00860908,-0.00699269,0.07321123,-0.05226039,0.06690608,0.00589884,
 -0.00219209,-0.00252807,-0.00078983,0.00290580,0.00056934,0.00088724,0
 .00112036,-0.00116821,0.00031803,-0.02015227,-0.01758987,-0.00860189,0
 .00809372,0.00790213,-0.00935138,-0.00012121,0.00035247,-0.00008777,0.
 00008207,-0.00152879,0.00078365,-0.00050699,0.00082129,0.00058302,0.00
 026799,-0.00035524,0.00008262,0.00159089,0.00086410,0.00025358,0.00008
 059,0.00039561,0.00025262,0.00002213,0.00002263,0.00010411,-0.00209349
 ,-0.00130193,0.00067353,0.00037390,0.00045393,-0.00019145,0.00012892,0
 .00317076,0.00076461,-0.00043508,-0.00020495,-0.00036133,-0.00056465,0
 .00073112,-0.00021966,0.00026595,-0.00027292,0.00021075,0.00140600,0.0
 0137275,0.00142379,-0.00113642,-0.00068593,-0.00008003,0.00060212,0.00
 147408,-0.00074528,0.01679944,-0.00181833,0.00852630,-0.05689745,0.006
 51339,-0.03694701,0.23336006,0.05129172,-0.02471423,-0.00507164,0.0014
 9680,0.00114949,-0.00092659,-0.00082418,0.00025803,0.00008499,-0.00115
 730,0.00048147,-0.00008354,0.00328662,0.00623040,-0.00030425,-0.003647
 95,-0.00755549,0.00724963,0.00016518,-0.00002000,-0.00003053,0.0001505
 0,0.00079027,-0.00173978,0.00047322,-0.00061730,-0.00046665,0.00007393
 ,-0.00006648,0.00003608,0.00023032,-0.00211422,-0.00216064,0.00002744,
 0.00094525,0.00064959,-0.00024668,0.00004506,-0.00001057,0.00070263,0.
 00152911,0.00060670,0.00001425,-0.00051137,-0.00025687,0.00063111,-0.0
 0123101,-0.00004234,-0.00031390,0.00075674,0.00009362,0.00077346,0.000
 10032,0.00037170,-0.00010799,-0.00000311,-0.00016670,0.00058126,0.0000
 9325,-0.00069797,-0.00084779,-0.00004654,0.00098320,-0.00031853,-0.000
 42086,0.00018013,0.00236154,-0.00311073,-0.00125816,-0.02111459,-0.070
 85300,-0.02458686,0.07283838,0.53130716,-0.00304443,0.00484946,0.01205
 854,-0.00107516,-0.00078129,0.00002324,0.00020649,-0.00008494,0.000271
 86,-0.00016539,-0.00015593,-0.00018352,-0.00352387,-0.00297719,-0.0052
 1444,-0.00172165,0.00281219,-0.00066907,0.00000848,0.00000907,0.000054
 36,-0.00060416,-0.00039356,0.00082338,-0.00003922,0.00020707,0.0001351
 1,0.00014604,-0.00016026,0.00009794,0.00052771,-0.00091093,-0.00054423
 ,-0.00005897,0.00049711,0.00016215,0.00012130,0.00012255,0.00010276,-0
 .00027767,0.00020654,0.00050295,-0.00006286,-0.00014592,-0.00016500,0.
 00036204,0.00023719,0.00034574,-0.00028030,0.00040194,-0.00011977,0.00
 022721,0.00017523,0.00023491,-0.00001074,-0.00004023,-0.00002697,0.000
 97131,0.00016284,0.00034960,-0.00071855,0.00011549,0.00027780,-0.00048
 137,-0.00006159,0.00058108,0.00650656,-0.00307098,0.00375489,-0.023425
 48,0.00293403,-0.06878264,0.02578862,-0.16384225,0.24210247,-0.0081817
 7,0.00233939,0.00256082,-0.00037170,-0.00010573,0.00066658,0.00007147,
 -0.00001500,-0.00008070,0.00012055,-0.00004859,-0.00015532,0.00025995,
 -0.00041186,-0.00009749,-0.00017681,0.00190328,-0.00136505,-0.00000986
 ,-0.00007994,0.00004095,-0.00002313,-0.00009278,0.00082181,-0.00005439
 ,0.00010889,0.00008134,-0.00000972,0.00000159,0.00001248,-0.00058315,0
 .00049827,0.00079699,-0.00003389,-0.00042032,-0.00042749,0.00018642,-0
 .00005864,-0.00004358,0.00032419,-0.00021151,-0.00036392,-0.00020036,0
 .00004416,0.00017114,-0.00008290,-0.00009686,0.00000291,0.00003591,0.0
 0002009,0.00000259,-0.00001363,-0.00017948,0.00002801,-0.00004805,0.00
 007929,-0.00000260,-0.00009658,-0.00023490,-0.00013573,0.00013934,0.00
 010959,-0.00004775,-0.00002923,-0.00007854,0.00004050,-0.00024380,-0.0
 0000796,0.00012589,0.00280682,-0.01460621,0.01885970,-0.05557530,-0.06
 480633,0.02372143,0.04638620,0.00042862,0.00162503,-0.00077404,0.00004
 450,-0.00002670,-0.00033374,0.00012787,-0.00006314,0.00008081,0.000118
 63,0.00003759,0.00016113,-0.00043770,-0.00044342,0.00027706,0.00084653
 ,-0.00051359,0.00046625,-0.00002683,0.00005329,-0.00002842,0.00009848,
 0.00023880,-0.00057762,-0.00006687,0.00003770,0.00002642,-0.00000570,0
 .00001574,-0.00001976,0.00023219,0.00049504,-0.00000551,0.00006045,-0.
 00000252,-0.00000587,-0.00006759,-0.00007742,-0.00004570,-0.00028865,-
 0.00029583,0.00002543,0.00005485,0.00018258,0.00004680,-0.00009422,0.0
 0027755,0.00000340,0.00004417,-0.00015968,-0.00002175,-0.00016563,0.00
 001865,-0.00011114,0.00004238,-0.00002381,0.00003431,-0.00016969,0.000
 11369,0.00007836,0.00015299,-0.00015395,-0.00012897,0.00005034,-0.0000
 6534,-0.00003240,-0.00017153,0.00064903,-0.00013221,-0.00185312,-0.014
 17631,0.01081655,-0.06123713,-0.36108653,0.19448129,0.06530193,0.38316
 578,0.00140599,-0.00108809,-0.00003319,0.00005754,0.00006159,-0.000110
 05,-0.00007161,-0.00002020,0.00002813,0.00004985,0.00002689,0.00016964
 ,0.00028642,0.00023885,0.00013992,0.00048109,-0.00051931,0.00085624,-0
 .00001006,0.00002430,-0.00003120,0.00013619,0.00008577,-0.00039274,-0.
 00001657,0.00001502,0.00000061,-0.00000036,0.00001194,-0.00001770,-0.0
 0027200,0.00055586,0.00035377,0.00003868,-0.00025586,-0.00010669,-0.00
 004786,-0.00008842,-0.00009034,0.00012934,-0.00013223,-0.00030538,0.00
 008832,0.00008468,0.00009940,-0.00000204,0.00002385,-0.00003728,0.0000
 0674,-0.00004392,0.00001512,-0.00008479,-0.00003199,-0.00011234,0.0000
 2169,-0.00000024,0.00002260,-0.00013876,0.00013214,-0.00015466,0.00003
 810,-0.00017265,0.00007013,-0.00000021,-0.00006790,-0.00002445,-0.0000
 2294,0.00013196,-0.00032040,0.00247568,-0.01217407,0.01315088,0.027350
 18,0.22598440,-0.14440341,-0.02784697,-0.21000592,0.13715538,-0.022173
 23,-0.03042652,-0.00179505,0.00305297,0.00265923,0.00017865,-0.0057057
 6,-0.00182693,-0.00101643,-0.00214084,0.00153700,-0.00016675,0.0347093
 7,0.01997424,0.00778279,-0.01807714,-0.00738031,0.01376018,0.00020230,
 -0.00036869,0.00005662,0.00217317,0.00240240,-0.00323133,0.00086028,-0
 .00108845,-0.00087644,-0.00015428,0.00029097,-0.00001865,-0.00242532,-
 0.00199817,-0.00122521,-0.00018399,-0.00012948,0.00021567,-0.00018021,
 0.00001378,-0.00006525,0.00275040,0.00216838,-0.00046867,-0.00029466,-
 0.00086851,0.00002719,0.00071882,-0.00510702,-0.00093381,0.00029572,0.
 00067517,0.00056727,0.00115670,-0.00060896,0.00041994,-0.00030251,0.00
 025451,-0.00030888,-0.00114981,-0.00114575,-0.00181975,0.00069247,0.00
 046270,0.00075661,-0.00134759,-0.00244254,0.00184013,-0.01542312,0.000
 60532,-0.00991394,-0.03097117,-0.01789802,-0.01589123,-0.03859803,-0.0
 0430332,0.00988312,0.01761844,-0.00304459,-0.00110511,0.05972571,-0.02
 190505,-0.02337975,0.01083710,-0.00396968,-0.00362521,0.00097834,0.000
 54789,-0.00130827,0.00062527,0.00162312,-0.00126503,0.00018210,-0.0059
 2824,-0.03060533,-0.00609571,0.00515442,0.01815375,-0.01321816,-0.0002
 7204,0.00024844,0.00002043,-0.00148171,-0.00171654,0.00411281,-0.00098
 181,0.00147151,0.00106840,0.00017837,-0.00014474,0.00012421,0.00019217
 ,0.00357866,0.00363113,-0.00005638,-0.00141719,-0.00097424,0.00047264,
 -0.00006646,0.00008187,-0.00185514,-0.00281992,-0.00057364,0.00010026,
 0.00081917,0.00025158,-0.00002123,0.00255838,0.00046069,-0.00002820,-0
 .00069595,-0.00023064,-0.00109488,0.00036407,-0.00049258,0.00027243,-0
 .00014044,0.00030707,0.00053589,0.00081714,0.00157626,0.00005340,-0.00
 043812,-0.00102226,0.00043078,0.00142985,-0.00021191,0.01043035,0.0021
 0521,0.00758081,0.00868118,0.03340871,0.01623359,-0.03167384,-0.046500
 97,-0.00356488,0.01214555,-0.01084416,-0.00074451,0.04158213,0.0697677
 4,-0.00643624,0.01614389,-0.02826911,0.00278753,0.00174367,-0.00149157
 ,0.00048615,0.00002732,0.00039818,0.00004942,0.00016323,-0.00001271,0.
 00065304,-0.00428953,0.00290396,0.01216456,-0.01110145,-0.00332626,-0.
 00004225,0.00006183,-0.00007446,0.00030531,-0.00013406,-0.00060582,0.0
 0024285,-0.00066467,-0.00031405,-0.00000568,-0.00003684,-0.00001068,-0
 .00069314,0.00105073,0.00048403,0.00002568,-0.00049076,0.00007190,-0.0
 0019594,-0.00008597,-0.00002468,0.00005513,-0.00029137,-0.00033979,0.0
 0015356,0.00013248,0.00006464,-0.00023149,0.00044301,-0.00009487,0.000
 08453,-0.00029114,0.00000479,-0.00022369,-0.00003166,-0.00006518,0.000
 00238,0.00004060,0.00000321,-0.00078262,-0.00000428,-0.00023665,0.0003
 7634,-0.00029010,-0.00026778,0.00068363,0.00117536,-0.00072733,-0.0001
 7094,0.00179305,-0.00177552,-0.00917755,0.00689865,0.00115732,0.017987
 31,-0.00513132,-0.03077459,-0.01306417,0.00710508,-0.00170699,-0.00460
 617,-0.01171455,0.06595797,-0.00396638,-0.00343397,-0.00113079,0.00068
 202,0.00026228,0.00034200,-0.00084575,-0.00068906,-0.00263765,0.001225
 27,0.00013240,0.00015426,0.00427657,0.00777232,0.01670326,0.00167425,0
 .00079958,-0.00152719,-0.00021209,0.00002847,0.00007904,-0.00010556,-0
 .00013796,0.00015403,-0.00026771,-0.00000213,0.00006749,-0.00067980,0.
 00081682,-0.00024807,0.00076172,0.00052896,0.00012000,-0.00000176,-0.0
 0003692,0.00000036,-0.00003210,0.00003928,0.00004607,-0.00095972,-0.00
 072566,0.00020393,0.00021078,0.00027606,-0.00006236,-0.00118962,0.0013
 4346,-0.00110320,0.00050657,-0.00295014,0.00037461,-0.00093699,0.00002
 563,-0.00043537,0.00014140,-0.00015293,0.00013657,-0.00246871,-0.00074
 676,0.00170250,0.00256064,0.00087113,-0.00340649,0.00054410,-0.0005801
 4,-0.00226846,-0.04941888,0.03638489,-0.00629565,-0.02838867,0.0124978
 4,0.00726052,-0.01477939,-0.03246983,-0.02287941,-0.00289881,0.0000173
 1,-0.00264954,0.00202955,-0.00063403,0.00084813,0.47360195,-0.00407908
 ,0.01563314,0.00304330,-0.00124882,-0.00122236,-0.00123775,0.00066309,
 0.00014866,0.00313274,-0.00120212,-0.00040204,0.00011155,-0.00849310,-
 0.01428530,-0.02060231,0.00026039,0.00035122,0.00036042,0.00014824,0.0
 0017643,-0.00011013,0.00030588,0.00005335,-0.00055474,0.00014281,0.000
 22037,0.00005784,0.00079555,-0.00091979,0.00032566,0.00015846,-0.00063
 987,-0.00078518,0.00002877,0.00051232,0.00033384,-0.00008695,-0.000077
 84,-0.00002692,0.00006699,0.00058222,0.00039485,0.00005047,-0.00023205
 ,-0.00014103,0.00151909,0.00004774,0.00094302,-0.00098590,0.00227617,-
 0.00035776,0.00088890,0.00049972,0.00040961,-0.00000182,-0.00004630,-0
 .00008178,0.00333791,0.00174582,-0.00122265,-0.00309457,-0.00157929,0.
 00355974,-0.00126561,0.00098553,0.00223234,0.05604551,-0.01590447,0.00
 964382,0.02947618,0.00484106,0.00728225,-0.05423178,-0.02696070,-0.032
 55832,-0.00125477,0.00110190,-0.00241808,0.01745630,-0.01771299,-0.001
 25381,0.07563688,0.29764758,-0.00403749,0.00657121,0.00189159,-0.00050
 862,-0.00052831,-0.00061691,0.00051846,-0.00018316,0.00149099,-0.00007
 207,-0.00001221,0.00001302,0.00006609,-0.00569275,-0.00633214,0.000877
 58,0.00085441,-0.00105809,-0.00004515,0.00008720,0.00000683,0.00004831
 ,-0.00026863,-0.00006104,-0.00002584,0.00010746,0.00008811,0.00031581,
 -0.00029509,0.00009370,0.00042831,-0.00019224,-0.00023875,0.00000343,0
 .00026465,0.00016374,-0.00000330,0.00001253,0.00003308,-0.00040270,-0.
 00002669,0.00033755,0.00007609,-0.00002284,-0.00012821,0.00022206,0.00
 062898,0.00039997,-0.00028259,0.00024094,-0.00027047,0.00005882,0.0001
 9341,0.00014002,0.00002771,-0.00005860,-0.00000990,0.00059428,0.000253
 80,0.00067772,-0.00069200,0.00010143,-0.00026837,0.00014436,-0.0001804
 0,0.00194158,0.00914196,-0.00392375,0.01512821,0.02113859,0.01682652,-
 0.02768230,-0.03085510,-0.02658839,-0.00473343,-0.00459938,-0.00157174
 ,-0.00472616,0.00974431,-0.00863617,-0.00113037,-0.18745977,-0.0809689
 3,0.20424605,0.00061837,0.00007145,-0.00017927,-0.00003234,0.00000763,
 0.00002380,-0.00001071,0.00024541,-0.00029740,-0.00011581,-0.00009503,
 -0.00000813,-0.00122443,0.00005518,0.00054176,-0.00028208,-0.00008735,
 0.00028243,0.00005014,-0.00001007,-0.00002146,0.00001856,0.00002867,-0
 .00002870,0.00003717,-0.00000886,-0.00001878,-0.00001943,0.00000815,0.
 00001411,-0.00012119,-0.00009321,-0.00003758,-0.00000574,-0.00000135,-
 0.00000392,0.00000218,-0.00000449,-0.00000498,0.00017388,0.00012450,-0
 .00003910,-0.00003930,-0.00004589,0.00001134,0.00010754,-0.00023793,-0
 .00010802,-0.00009297,0.00010564,0.00009496,0.00015378,-0.00001238,0.0
 0005465,-0.00002233,0.00002485,-0.00001657,0.00025177,0.00001960,-0.00
 019594,-0.00024651,-0.00002608,0.00030491,-0.00014994,0.00012631,-0.00
 066942,0.00068886,0.00250256,-0.00153782,-0.00630215,-0.00369356,0.002
 93389,0.00110338,0.00050928,-0.00074218,0.00030814,-0.00011572,-0.0000
 1322,-0.00050757,0.00010582,0.00013615,-0.27911557,-0.13386820,0.17789
 035,0.30063666,-0.00010705,-0.00010288,0.00005191,-0.00001250,0.000010
 35,-0.00000244,0.00023506,0.00020302,0.00023320,0.00000563,-0.00000926
 ,0.00001544,0.00035190,-0.00027401,-0.00059072,0.00001625,-0.00002454,
 -0.00001237,0.00000726,-0.00000088,-0.00000904,-0.00000394,-0.00000293
 ,-0.00000249,-0.00000329,-0.00000090,0.00000426,0.00004148,-0.00006075
 ,0.00000545,0.00001434,0.00003064,0.00001437,0.00000457,-0.00000860,-0
 .00000354,-0.00000224,0.00000331,0.00000176,-0.00002284,-0.00003119,-0
 .00000603,0.00000568,0.00001554,0.00000377,-0.00011019,-0.00015990,0.0
 0012529,0.00014211,0.00019259,-0.00010169,-0.00002950,-0.00002446,-0.0
 0001326,0.00000027,0.00000792,0.00000203,-0.00000104,-0.00002573,-0.00
 000960,-0.00002474,0.00002969,0.00002434,0.00012319,0.00003045,0.00021
 804,0.00304161,-0.00471430,0.00170303,-0.00513329,-0.00090941,0.013066
 81,-0.00166337,-0.00234002,-0.00499884,0.00010615,0.00043522,0.0002960
 5,-0.00000830,0.00007616,0.00008348,-0.16115144,-0.13430619,0.10696566
 ,0.15133846,0.12287718,-0.00000124,0.00029943,-0.00025616,0.00002717,0
 .00001628,0.00005835,0.00013313,0.00017912,-0.00004591,-0.00002832,-0.
 00008001,0.00002636,-0.00048521,-0.00045740,0.00114574,-0.00005256,0.0
 0000956,0.00009703,0.00003173,-0.00000232,-0.00001985,0.00000269,0.000
 01431,-0.00003410,0.00000606,0.00000380,-0.00001121,-0.00001760,-0.000
 00823,-0.00001829,-0.00002475,-0.00003818,-0.00001832,0.00000556,0.000
 00204,0.00000624,-0.00000766,0.00000083,0.00000029,0.00005370,0.000040
 42,-0.00002247,-0.00000758,-0.00001088,0.00000690,0.00002822,-0.000111
 20,-0.00009276,0.00003137,0.00007301,0.00008647,0.00004463,0.00000736,
 -0.00001666,0.00000057,0.00000725,0.00000033,0.00002400,-0.00001959,-0
 .00010796,-0.00007500,0.00003302,0.00013794,-0.00000490,0.00002465,-0.
 00045352,-0.00069940,0.00028444,-0.00011400,-0.00390040,0.00275530,0.0
 1192512,-0.00374321,-0.00410001,-0.00608261,0.00014850,0.00006637,0.00
 007599,0.00045161,-0.00050801,0.00029247,0.19977847,0.10038929,-0.1446
 7966,-0.19267556,-0.10321520,0.14178842,0.00114886,0.01614078,0.004123
 43,-0.00154107,-0.00102285,-0.00110209,0.00264829,0.00076959,0.0043351
 5,-0.00189411,-0.00057450,-0.00004788,-0.01856722,-0.01507811,-0.03356
 473,-0.00188972,-0.00045576,0.00183214,0.00036986,0.00009038,-0.000185
 05,0.00036943,0.00009624,-0.00056018,0.00037144,0.00012791,-0.00003492
 ,0.00124274,-0.00138089,0.00048698,-0.00058649,-0.00105719,-0.00074137
 ,0.00002055,0.00042176,0.00025184,-0.00002034,-0.00007005,-0.00005156,
 0.00101682,0.00114947,0.00009679,-0.00016807,-0.00043964,-0.00004436,0
 .00237885,-0.00165689,0.00206626,-0.00122356,0.00518761,-0.00064426,0.
 00154616,0.00031132,0.00071035,-0.00013119,0.00013552,-0.00018819,0.00
 464244,0.00160875,-0.00230426,-0.00541761,-0.00134052,0.00587509,0.000
 28460,0.00054200,0.00549106,0.02033675,-0.01769452,0.01756042,0.031539
 83,0.01823450,0.01602569,-0.02289056,-0.00544925,-0.00935891,0.0003756
 5,0.00012373,-0.00028377,0.01364931,-0.01260415,-0.00141185,-0.1019472
 9,0.02283132,0.00768751,-0.01586235,0.01283974,0.00095598,0.09019803,-
 0.00031621,-0.01209552,-0.00297552,0.00122646,0.00104138,0.00108036,-0
 .00039006,-0.00033397,-0.00406740,0.00149005,0.00026175,-0.00007261,0.
 00526232,0.01477018,0.02329963,0.00035936,0.00045913,-0.00124119,-0.00
 019616,-0.00011419,0.00013164,-0.00033423,-0.00032848,0.00054700,-0.00
 020820,-0.00016096,0.00000727,-0.00092923,0.00105014,-0.00039402,0.000
 31400,0.00046480,0.00061899,-0.00003266,-0.00031268,-0.00019960,0.0000
 8193,0.00011615,0.00007092,-0.00048997,-0.00067985,-0.00013542,0.00003
 739,0.00024812,0.00004280,-0.00136754,0.00076168,-0.00046928,0.0009736
 9,-0.00234824,0.00025484,-0.00099932,-0.00033869,-0.00045212,0.0000553
 3,-0.00003631,0.00011753,-0.00392147,-0.00180218,0.00220964,0.00363011
 ,0.00177618,-0.00492532,0.00049288,-0.00119754,-0.00452371,-0.02694375
 ,-0.01068227,-0.01483760,-0.00579973,-0.02363525,-0.01347502,0.0118723
 3,0.00446599,0.00653512,0.00005127,-0.00051519,0.00009009,-0.01143656,
 0.00788227,-0.00105090,0.06627770,-0.11253405,-0.00395830,-0.01697341,
 0.01908389,0.00434457,-0.02178630,0.11473370,0.00095629,-0.00129905,-0
 .00059179,-0.00004061,0.00003635,0.00005585,-0.00083205,-0.00081334,-0
 .00237844,-0.00004617,-0.00000117,-0.00008074,-0.01446849,0.01013037,-
 0.00074611,-0.00028628,-0.00042762,0.00057843,0.00001487,-0.00000792,0
 .00000372,0.00001394,0.00015979,-0.00007068,0.00001293,-0.00002596,-0.
 00002646,-0.00043532,0.00038744,0.00001356,-0.00012365,0.00004631,-0.0
 0005518,0.00000630,-0.00004371,-0.00001453,-0.00002299,-0.00001504,-0.
 00001607,0.00012520,0.00004518,-0.00007584,-0.00000751,0.00000470,0.00
 003712,0.00028933,-0.00047221,0.00009660,0.00009176,0.00035740,0.00001
 122,-0.00001618,-0.00003077,-0.00002368,-0.00001400,-0.00000428,0.0000
 1563,0.00073646,0.00060481,-0.00122983,0.00014275,-0.00120429,0.001867
 53,-0.00045226,0.00038439,-0.00109987,0.00990896,-0.00889645,-0.027738
 86,0.00498733,-0.00985813,-0.00204251,0.00008516,0.00122505,-0.0001791
 2,0.00014853,0.00012553,0.00043518,-0.00224143,-0.00008443,-0.00009007
 ,0.00413273,0.01009911,-0.03471636,0.01430970,-0.01384966,-0.00367419,
 -0.01697530,0.01342761,0.07173548\\-0.00000327,-0.00000151,0.00000052,
 0.00000123,0.00000235,0.00000111,0.00000290,0.00000033,-0.00000033,0.0
 0000329,0.00000351,0.00000109,0.00000154,-0.00000259,-0.00000111,-0.00
 000094,0.00000147,0.00000034,0.00000234,0.00000155,0.00000039,-0.00000
 120,0.00000054,-0.00000033,0.00000062,0.00000187,0.00000093,0.00000089
 ,0.00000018,0.,0.00000484,0.00001221,0.00000820,0.00000890,-0.00001157
 ,-0.00000790,-0.00000748,0.00001441,-0.00001227,-0.00002665,0.00001564
 ,0.00000137,0.00000610,-0.00001466,0.00002159,0.00000718,-0.00000099,-
 0.00000157,0.00000277,-0.00000079,-0.00000083,0.00000489,0.00000618,0.
 00000153,-0.00000262,0.00000263,0.00000305,0.00000500,0.00000270,0.000
 00007,0.00000037,-0.00000086,0.00000018,-0.00000002,-0.00000162,-0.000
 00066,0.00000305,-0.00000398,-0.00000309,-0.00000200,-0.00000322,-0.00
 000168,-0.00000516,-0.00000590,-0.00000049,-0.00000245,-0.00000043,-0.
 00000196,-0.00000190,-0.00000084,-0.00000035,0.00000552,-0.00000522,-0
 .00000879,-0.00000832,-0.00000859,0.00000237,0.00000059,-0.00000280,-0
 .00000138\\\@


 "ANNA, YOU MUSN'T SPEAK OF OXIDIZED MURIATIC ACID
 ANYMORE, FROM NOW ON YOU MUST SAY CHLORINE."
   -- JENS JACOB BERZELIUS, IN 1820, TO HIS COOK, WHO HAD
 COMPLAINED OF THE SMELL OF THE FLASK SHE WAS CLEANING.
 Job cpu time:       0 days  0 hours 42 minutes 13.0 seconds.
 File lengths (MBytes):  RWF=    220 Int=      0 D2E=      0 Chk=      6 Scr=      1
 Normal termination of Gaussian 09 at Sat Jan 14 13:58:09 2017.
