 Entering Gaussian System, Link 0=g09
 Initial command:
 /global/software/gaussian/g09.e01/l1.exe "/scratch/10462973.yak.local/Gau-21023.inp" -scrdir="/scratch/10462973.yak.local/"
 Entering Link 1 = /global/software/gaussian/g09.e01/l1.exe PID=     21024.
  
 Copyright (c) 1988,1990,1992,1993,1995,1998,2003,2009,2015,
            Gaussian, Inc.  All Rights Reserved.
  
 This is part of the Gaussian(R) 09 program.  It is based on
 the Gaussian(R) 03 system (copyright 2003, Gaussian, Inc.),
 the Gaussian(R) 98 system (copyright 1998, Gaussian, Inc.),
 the Gaussian(R) 94 system (copyright 1995, Gaussian, Inc.),
 the Gaussian 92(TM) system (copyright 1992, Gaussian, Inc.),
 the Gaussian 90(TM) system (copyright 1990, Gaussian, Inc.),
 the Gaussian 88(TM) system (copyright 1988, Gaussian, Inc.),
 the Gaussian 86(TM) system (copyright 1986, Carnegie Mellon
 University), and the Gaussian 82(TM) system (copyright 1983,
 Carnegie Mellon University). Gaussian is a federally registered
 trademark of Gaussian, Inc.
  
 This software contains proprietary and confidential information,
 including trade secrets, belonging to Gaussian, Inc.
  
 This software is provided under written license and may be
 used, copied, transmitted, or stored only in accord with that
 written license.
  
 The following legend is applicable only to US Government
 contracts under FAR:
  
                    RESTRICTED RIGHTS LEGEND
  
 Use, reproduction and disclosure by the US Government is
 subject to restrictions as set forth in subparagraphs (a)
 and (c) of the Commercial Computer Software - Restricted
 Rights clause in FAR 52.227-19.
  
 Gaussian, Inc.
 340 Quinnipiac St., Bldg. 40, Wallingford CT 06492
  
  
 ---------------------------------------------------------------
 Warning -- This program may not be used in any manner that
 competes with the business of Gaussian, Inc. or will provide
 assistance to any competitor of Gaussian, Inc.  The licensee
 of this program is prohibited from giving any competitor of
 Gaussian, Inc. access to this program.  By using this program,
 the user acknowledges that Gaussian, Inc. is engaged in the
 business of creating and licensing software in the field of
 computational chemistry and represents and warrants to the
 licensee that it is not a competitor of Gaussian, Inc. and that
 it will not use this program in any manner prohibited above.
 ---------------------------------------------------------------
  

 Cite this work as:
 Gaussian 09, Revision E.01,
 M. J. Frisch, G. W. Trucks, H. B. Schlegel, G. E. Scuseria, 
 M. A. Robb, J. R. Cheeseman, G. Scalmani, V. Barone, B. Mennucci, 
 G. A. Petersson, H. Nakatsuji, M. Caricato, X. Li, H. P. Hratchian, 
 A. F. Izmaylov, J. Bloino, G. Zheng, J. L. Sonnenberg, M. Hada, 
 M. Ehara, K. Toyota, R. Fukuda, J. Hasegawa, M. Ishida, T. Nakajima, 
 Y. Honda, O. Kitao, H. Nakai, T. Vreven, J. A. Montgomery, Jr., 
 J. E. Peralta, F. Ogliaro, M. Bearpark, J. J. Heyd, E. Brothers, 
 K. N. Kudin, V. N. Staroverov, T. Keith, R. Kobayashi, J. Normand, 
 K. Raghavachari, A. Rendell, J. C. Burant, S. S. Iyengar, J. Tomasi, 
 M. Cossi, N. Rega, J. M. Millam, M. Klene, J. E. Knox, J. B. Cross, 
 V. Bakken, C. Adamo, J. Jaramillo, R. Gomperts, R. E. Stratmann, 
 O. Yazyev, A. J. Austin, R. Cammi, C. Pomelli, J. W. Ochterski, 
 R. L. Martin, K. Morokuma, V. G. Zakrzewski, G. A. Voth, 
 P. Salvador, J. J. Dannenberg, S. Dapprich, A. D. Daniels, 
 O. Farkas, J. B. Foresman, J. V. Ortiz, J. Cioslowski, 
 and D. J. Fox, Gaussian, Inc., Wallingford CT, 2013.
 
 ******************************************
 Gaussian 09:  ES64L-G09RevE.01 30-Nov-2015
                15-Jan-2017 
 ******************************************
 %NPROCS=4
 Will use up to    4 processors via shared memory.
 -----------------------------------------
 # opt=(MaxCycle=1000) freq B3LYP/6-31G(d)
 -----------------------------------------
 1/6=1000,14=-1,18=20,19=15,26=3,38=1/1,3;
 2/9=110,12=2,17=6,18=5,40=1/2;
 3/5=1,6=6,7=1,11=2,16=1,25=1,30=1,71=1,74=-5/1,2,3;
 4//1;
 5/5=2,38=5/2;
 6/7=2,8=2,9=2,10=2,28=1/1;
 7//1,2,3,16;
 1/6=1000,14=-1,18=20,19=15,26=3/3(2);
 2/9=110/2;
 99//99;
 2/9=110/2;
 3/5=1,6=6,7=1,11=2,16=1,25=1,30=1,71=1,74=-5/1,2,3;
 4/5=5,16=3,69=1/1;
 5/5=2,38=5/2;
 7//1,2,3,16;
 1/6=1000,14=-1,18=20,19=15,26=3/3(-5);
 2/9=110/2;
 6/7=2,8=2,9=2,10=2,19=2,28=1/1;
 99/9=1/99;
 --------------------------------------------------
 ./chairs/1/glo_1w_alpha_ircr_chair_B3LYP_631Gd.out
 --------------------------------------------------
 Symbolic Z-matrix:
 Charge =  0 Multiplicity = 1
 C                     1.2319   -1.07216  -0.95057 
 O                     1.20898  -1.10352   0.50165 
 H                     4.53952  -1.42291   0.06997 
 O                     3.99339  -0.63837   0.22957 
 H                     3.1896   -0.97211   0.67611 
 C                    -0.21261  -1.1104   -1.44052 
 C                    -0.99477   0.09479  -0.90807 
 C                    -0.88218   0.14832   0.62154 
 C                     0.5811    0.04316   1.09417 
 H                    -0.6676   -2.01702  -1.00696 
 H                    -1.46994  -0.67368   1.04367 
 H                     1.11748   0.95347   0.78851 
 H                    -0.54713   1.00748  -1.33288 
 O                    -0.25072  -1.15712  -2.84864 
 O                    -2.32341  -0.08431  -1.36508 
 O                    -1.49097   1.34746   1.17216 
 H                    -2.83114   0.74729  -1.2227 
 H                    -1.17761  -0.96708  -3.07752 
 H                    -0.94038   2.10238   0.89658 
 C                     0.7138   -0.1152    2.61414 
 O                     0.31515   1.04826   3.3155 
 H                     1.76721  -0.28385   2.85949 
 H                     0.15098  -1.00748   2.93461 
 H                    -0.59888   1.2374    3.04261 
 H                     1.75355  -2.00048  -1.21508 
 O                     1.88308   0.05165  -1.43251 
 H                     2.81389  -0.01784  -1.12209 
 O                    -3.70201   2.10399  -0.37982 
 H                    -4.57817   1.75365  -0.15687 
 H                    -3.14025   1.89446   0.39511 
 
 Add virtual bond connecting atoms O28        and H17        Dist= 3.44D+00.
 Add virtual bond connecting atoms H30        and O16        Dist= 3.60D+00.
 Add virtual bond connecting atoms O2         and H5         Dist= 3.77D+00.
 Add virtual bond connecting atoms H27        and O4         Dist= 3.59D+00.

 GradGradGradGradGradGradGradGradGradGradGradGradGradGradGradGradGradGrad
 Berny optimization.
 Initialization pass.
                           ----------------------------
                           !    Initial Parameters    !
                           ! (Angstroms and Degrees)  !
 --------------------------                            --------------------------
 ! Name  Definition              Value          Derivative Info.                !
 --------------------------------------------------------------------------------
 ! R1    R(1,2)                  1.4527         estimate D2E/DX2                !
 ! R2    R(1,6)                  1.5258         estimate D2E/DX2                !
 ! R3    R(1,25)                 1.0972         estimate D2E/DX2                !
 ! R4    R(1,26)                 1.3854         estimate D2E/DX2                !
 ! R5    R(2,5)                  1.9926         estimate D2E/DX2                !
 ! R6    R(2,9)                  1.4353         estimate D2E/DX2                !
 ! R7    R(3,4)                  0.9691         estimate D2E/DX2                !
 ! R8    R(4,5)                  0.9782         estimate D2E/DX2                !
 ! R9    R(4,27)                 1.8982         estimate D2E/DX2                !
 ! R10   R(6,7)                  1.5322         estimate D2E/DX2                !
 ! R11   R(6,10)                 1.1032         estimate D2E/DX2                !
 ! R12   R(6,14)                 1.4094         estimate D2E/DX2                !
 ! R13   R(7,8)                  1.5347         estimate D2E/DX2                !
 ! R14   R(7,13)                 1.1017         estimate D2E/DX2                !
 ! R15   R(7,15)                 1.4164         estimate D2E/DX2                !
 ! R16   R(8,9)                  1.5413         estimate D2E/DX2                !
 ! R17   R(8,11)                 1.0951         estimate D2E/DX2                !
 ! R18   R(8,16)                 1.4532         estimate D2E/DX2                !
 ! R19   R(9,12)                 1.0999         estimate D2E/DX2                !
 ! R20   R(9,20)                 1.5339         estimate D2E/DX2                !
 ! R21   R(14,18)                0.9735         estimate D2E/DX2                !
 ! R22   R(15,17)                0.9847         estimate D2E/DX2                !
 ! R23   R(16,19)                0.9742         estimate D2E/DX2                !
 ! R24   R(16,30)                1.9035         estimate D2E/DX2                !
 ! R25   R(17,28)                1.8192         estimate D2E/DX2                !
 ! R26   R(20,21)                1.4158         estimate D2E/DX2                !
 ! R27   R(20,22)                1.0947         estimate D2E/DX2                !
 ! R28   R(20,23)                1.1026         estimate D2E/DX2                !
 ! R29   R(21,24)                0.9725         estimate D2E/DX2                !
 ! R30   R(26,27)                0.9837         estimate D2E/DX2                !
 ! R31   R(28,29)                0.9696         estimate D2E/DX2                !
 ! R32   R(28,30)                0.9798         estimate D2E/DX2                !
 ! A1    A(2,1,6)              107.7891         estimate D2E/DX2                !
 ! A2    A(2,1,25)             103.3104         estimate D2E/DX2                !
 ! A3    A(2,1,26)             111.881          estimate D2E/DX2                !
 ! A4    A(6,1,25)             110.5781         estimate D2E/DX2                !
 ! A5    A(6,1,26)             110.7087         estimate D2E/DX2                !
 ! A6    A(25,1,26)            112.2716         estimate D2E/DX2                !
 ! A7    A(1,2,5)               94.0379         estimate D2E/DX2                !
 ! A8    A(1,2,9)              113.7232         estimate D2E/DX2                !
 ! A9    A(5,2,9)              110.2417         estimate D2E/DX2                !
 ! A10   A(3,4,5)              105.1908         estimate D2E/DX2                !
 ! A11   A(3,4,27)             119.8362         estimate D2E/DX2                !
 ! A12   A(5,4,27)              85.7563         estimate D2E/DX2                !
 ! A13   A(2,5,4)              143.0625         estimate D2E/DX2                !
 ! A14   A(1,6,7)              110.6078         estimate D2E/DX2                !
 ! A15   A(1,6,10)             106.5506         estimate D2E/DX2                !
 ! A16   A(1,6,14)             110.3187         estimate D2E/DX2                !
 ! A17   A(7,6,10)             107.4162         estimate D2E/DX2                !
 ! A18   A(7,6,14)             111.0664         estimate D2E/DX2                !
 ! A19   A(10,6,14)            110.7483         estimate D2E/DX2                !
 ! A20   A(6,7,8)              109.6537         estimate D2E/DX2                !
 ! A21   A(6,7,13)             108.0708         estimate D2E/DX2                !
 ! A22   A(6,7,15)             105.5012         estimate D2E/DX2                !
 ! A23   A(8,7,13)             109.002          estimate D2E/DX2                !
 ! A24   A(8,7,15)             113.2545         estimate D2E/DX2                !
 ! A25   A(13,7,15)            111.1901         estimate D2E/DX2                !
 ! A26   A(7,8,9)              111.8945         estimate D2E/DX2                !
 ! A27   A(7,8,11)             108.58           estimate D2E/DX2                !
 ! A28   A(7,8,16)             112.0677         estimate D2E/DX2                !
 ! A29   A(9,8,11)             109.8841         estimate D2E/DX2                !
 ! A30   A(9,8,16)             109.7453         estimate D2E/DX2                !
 ! A31   A(11,8,16)            104.3874         estimate D2E/DX2                !
 ! A32   A(2,9,8)              110.0733         estimate D2E/DX2                !
 ! A33   A(2,9,12)             109.4596         estimate D2E/DX2                !
 ! A34   A(2,9,20)             106.7819         estimate D2E/DX2                !
 ! A35   A(8,9,12)             108.741          estimate D2E/DX2                !
 ! A36   A(8,9,20)             113.1426         estimate D2E/DX2                !
 ! A37   A(12,9,20)            108.5794         estimate D2E/DX2                !
 ! A38   A(6,14,18)            104.725          estimate D2E/DX2                !
 ! A39   A(7,15,17)            109.2827         estimate D2E/DX2                !
 ! A40   A(8,16,19)            107.1875         estimate D2E/DX2                !
 ! A41   A(8,16,30)            116.4519         estimate D2E/DX2                !
 ! A42   A(19,16,30)            98.7161         estimate D2E/DX2                !
 ! A43   A(15,17,28)           160.6734         estimate D2E/DX2                !
 ! A44   A(9,20,21)            112.4374         estimate D2E/DX2                !
 ! A45   A(9,20,22)            108.738          estimate D2E/DX2                !
 ! A46   A(9,20,23)            109.111          estimate D2E/DX2                !
 ! A47   A(21,20,22)           106.6506         estimate D2E/DX2                !
 ! A48   A(21,20,23)           112.168          estimate D2E/DX2                !
 ! A49   A(22,20,23)           107.5416         estimate D2E/DX2                !
 ! A50   A(20,21,24)           106.587          estimate D2E/DX2                !
 ! A51   A(1,26,27)            106.1227         estimate D2E/DX2                !
 ! A52   A(4,27,26)            146.6977         estimate D2E/DX2                !
 ! A53   A(17,28,29)           105.6436         estimate D2E/DX2                !
 ! A54   A(17,28,30)            86.1295         estimate D2E/DX2                !
 ! A55   A(29,28,30)           105.0086         estimate D2E/DX2                !
 ! A56   A(16,30,28)           151.7772         estimate D2E/DX2                !
 ! D1    D(6,1,2,5)           -178.0266         estimate D2E/DX2                !
 ! D2    D(6,1,2,9)            -63.8295         estimate D2E/DX2                !
 ! D3    D(25,1,2,5)            64.8936         estimate D2E/DX2                !
 ! D4    D(25,1,2,9)           179.0907         estimate D2E/DX2                !
 ! D5    D(26,1,2,5)           -56.0843         estimate D2E/DX2                !
 ! D6    D(26,1,2,9)            58.1127         estimate D2E/DX2                !
 ! D7    D(2,1,6,7)             59.974          estimate D2E/DX2                !
 ! D8    D(2,1,6,10)           -56.4712         estimate D2E/DX2                !
 ! D9    D(2,1,6,14)          -176.7453         estimate D2E/DX2                !
 ! D10   D(25,1,6,7)           172.2289         estimate D2E/DX2                !
 ! D11   D(25,1,6,10)           55.7837         estimate D2E/DX2                !
 ! D12   D(25,1,6,14)          -64.4904         estimate D2E/DX2                !
 ! D13   D(26,1,6,7)           -62.691          estimate D2E/DX2                !
 ! D14   D(26,1,6,10)         -179.1362         estimate D2E/DX2                !
 ! D15   D(26,1,6,14)           60.5898         estimate D2E/DX2                !
 ! D16   D(2,1,26,27)           62.9398         estimate D2E/DX2                !
 ! D17   D(6,1,26,27)         -176.8085         estimate D2E/DX2                !
 ! D18   D(25,1,26,27)         -52.6917         estimate D2E/DX2                !
 ! D19   D(1,2,5,4)             27.2455         estimate D2E/DX2                !
 ! D20   D(9,2,5,4)            -89.8772         estimate D2E/DX2                !
 ! D21   D(1,2,9,8)             59.9101         estimate D2E/DX2                !
 ! D22   D(1,2,9,12)           -59.5557         estimate D2E/DX2                !
 ! D23   D(1,2,9,20)          -176.911          estimate D2E/DX2                !
 ! D24   D(5,2,9,8)            164.0345         estimate D2E/DX2                !
 ! D25   D(5,2,9,12)            44.5686         estimate D2E/DX2                !
 ! D26   D(5,2,9,20)           -72.7867         estimate D2E/DX2                !
 ! D27   D(3,4,5,2)           -119.1939         estimate D2E/DX2                !
 ! D28   D(27,4,5,2)             0.595          estimate D2E/DX2                !
 ! D29   D(3,4,27,26)          104.9211         estimate D2E/DX2                !
 ! D30   D(5,4,27,26)           -0.1694         estimate D2E/DX2                !
 ! D31   D(1,6,7,8)            -54.7492         estimate D2E/DX2                !
 ! D32   D(1,6,7,13)            63.9501         estimate D2E/DX2                !
 ! D33   D(1,6,7,15)          -177.0332         estimate D2E/DX2                !
 ! D34   D(10,6,7,8)            61.1582         estimate D2E/DX2                !
 ! D35   D(10,6,7,13)          179.8575         estimate D2E/DX2                !
 ! D36   D(10,6,7,15)          -61.1258         estimate D2E/DX2                !
 ! D37   D(14,6,7,8)          -177.5961         estimate D2E/DX2                !
 ! D38   D(14,6,7,13)          -58.8968         estimate D2E/DX2                !
 ! D39   D(14,6,7,15)           60.1199         estimate D2E/DX2                !
 ! D40   D(1,6,14,18)         -167.0095         estimate D2E/DX2                !
 ! D41   D(7,6,14,18)          -43.996          estimate D2E/DX2                !
 ! D42   D(10,6,14,18)          75.2735         estimate D2E/DX2                !
 ! D43   D(6,7,8,9)             50.3863         estimate D2E/DX2                !
 ! D44   D(6,7,8,11)           -71.0672         estimate D2E/DX2                !
 ! D45   D(6,7,8,16)           174.1527         estimate D2E/DX2                !
 ! D46   D(13,7,8,9)           -67.7358         estimate D2E/DX2                !
 ! D47   D(13,7,8,11)          170.8107         estimate D2E/DX2                !
 ! D48   D(13,7,8,16)           56.0306         estimate D2E/DX2                !
 ! D49   D(15,7,8,9)           167.9256         estimate D2E/DX2                !
 ! D50   D(15,7,8,11)           46.4721         estimate D2E/DX2                !
 ! D51   D(15,7,8,16)          -68.308          estimate D2E/DX2                !
 ! D52   D(6,7,15,17)         -167.9319         estimate D2E/DX2                !
 ! D53   D(8,7,15,17)           72.1292         estimate D2E/DX2                !
 ! D54   D(13,7,15,17)         -51.0107         estimate D2E/DX2                !
 ! D55   D(7,8,9,2)            -52.1124         estimate D2E/DX2                !
 ! D56   D(7,8,9,12)            67.79           estimate D2E/DX2                !
 ! D57   D(7,8,9,20)          -171.4853         estimate D2E/DX2                !
 ! D58   D(11,8,9,2)            68.5861         estimate D2E/DX2                !
 ! D59   D(11,8,9,12)         -171.5115         estimate D2E/DX2                !
 ! D60   D(11,8,9,20)          -50.7867         estimate D2E/DX2                !
 ! D61   D(16,8,9,2)          -177.1739         estimate D2E/DX2                !
 ! D62   D(16,8,9,12)          -57.2715         estimate D2E/DX2                !
 ! D63   D(16,8,9,20)           63.4533         estimate D2E/DX2                !
 ! D64   D(7,8,16,19)          -68.5004         estimate D2E/DX2                !
 ! D65   D(7,8,16,30)           40.833          estimate D2E/DX2                !
 ! D66   D(9,8,16,19)           56.4613         estimate D2E/DX2                !
 ! D67   D(9,8,16,30)          165.7947         estimate D2E/DX2                !
 ! D68   D(11,8,16,19)         174.1808         estimate D2E/DX2                !
 ! D69   D(11,8,16,30)         -76.4858         estimate D2E/DX2                !
 ! D70   D(2,9,20,21)          170.9767         estimate D2E/DX2                !
 ! D71   D(2,9,20,22)           53.1092         estimate D2E/DX2                !
 ! D72   D(2,9,20,23)          -63.9153         estimate D2E/DX2                !
 ! D73   D(8,9,20,21)          -67.7742         estimate D2E/DX2                !
 ! D74   D(8,9,20,22)          174.3582         estimate D2E/DX2                !
 ! D75   D(8,9,20,23)           57.3338         estimate D2E/DX2                !
 ! D76   D(12,9,20,21)          53.0422         estimate D2E/DX2                !
 ! D77   D(12,9,20,22)         -64.8254         estimate D2E/DX2                !
 ! D78   D(12,9,20,23)         178.1502         estimate D2E/DX2                !
 ! D79   D(7,15,17,28)         -70.0927         estimate D2E/DX2                !
 ! D80   D(8,16,30,28)         -49.4042         estimate D2E/DX2                !
 ! D81   D(19,16,30,28)         64.8123         estimate D2E/DX2                !
 ! D82   D(15,17,28,29)        -79.0707         estimate D2E/DX2                !
 ! D83   D(15,17,28,30)         25.442          estimate D2E/DX2                !
 ! D84   D(9,20,21,24)          56.5403         estimate D2E/DX2                !
 ! D85   D(22,20,21,24)        175.6354         estimate D2E/DX2                !
 ! D86   D(23,20,21,24)        -66.8771         estimate D2E/DX2                !
 ! D87   D(1,26,27,4)          -30.832          estimate D2E/DX2                !
 ! D88   D(17,28,30,16)         36.2541         estimate D2E/DX2                !
 ! D89   D(29,28,30,16)        141.4237         estimate D2E/DX2                !
 --------------------------------------------------------------------------------
 Trust Radius=3.00D-01 FncErr=1.00D-07 GrdErr=1.00D-06
 Number of steps in this run=    180 maximum allowed number of steps=    180.
 GradGradGradGradGradGradGradGradGradGradGradGradGradGradGradGradGradGrad

                          Input orientation:                          
 ---------------------------------------------------------------------
 Center     Atomic      Atomic             Coordinates (Angstroms)
 Number     Number       Type             X           Y           Z
 ---------------------------------------------------------------------
      1          6           0        1.231900   -1.072160   -0.950570
      2          8           0        1.208980   -1.103520    0.501650
      3          1           0        4.539520   -1.422910    0.069970
      4          8           0        3.993390   -0.638370    0.229570
      5          1           0        3.189600   -0.972110    0.676110
      6          6           0       -0.212610   -1.110400   -1.440520
      7          6           0       -0.994770    0.094790   -0.908070
      8          6           0       -0.882180    0.148320    0.621540
      9          6           0        0.581100    0.043160    1.094170
     10          1           0       -0.667600   -2.017020   -1.006960
     11          1           0       -1.469940   -0.673680    1.043670
     12          1           0        1.117480    0.953470    0.788510
     13          1           0       -0.547130    1.007480   -1.332880
     14          8           0       -0.250720   -1.157120   -2.848640
     15          8           0       -2.323410   -0.084310   -1.365080
     16          8           0       -1.490970    1.347460    1.172160
     17          1           0       -2.831140    0.747290   -1.222700
     18          1           0       -1.177610   -0.967080   -3.077520
     19          1           0       -0.940380    2.102380    0.896580
     20          6           0        0.713800   -0.115200    2.614140
     21          8           0        0.315150    1.048260    3.315500
     22          1           0        1.767210   -0.283850    2.859490
     23          1           0        0.150980   -1.007480    2.934610
     24          1           0       -0.598880    1.237400    3.042610
     25          1           0        1.753550   -2.000480   -1.215080
     26          8           0        1.883080    0.051650   -1.432510
     27          1           0        2.813890   -0.017840   -1.122090
     28          8           0       -3.702010    2.103990   -0.379820
     29          1           0       -4.578170    1.753650   -0.156870
     30          1           0       -3.140250    1.894460    0.395110
 ---------------------------------------------------------------------
                    Distance matrix (angstroms):
                    1          2          3          4          5
     1  C    0.000000
     2  O    1.452739   0.000000
     3  H    3.479206   3.373552   0.000000
     4  O    3.034260   2.836077   0.969140   0.000000
     5  H    2.547290   1.992627   1.546903   0.978192   0.000000
     6  C    1.525819   2.406863   4.996197   4.549994   4.009274
     7  C    2.514287   2.877459   5.821369   5.168509   4.599658
     8  C    2.903521   2.440169   5.671669   4.954160   4.223474
     9  C    2.418355   1.435336   4.343666   3.585490   2.830162
    10  H    2.122272   2.575255   5.350406   5.015427   4.336191
    11  H    3.381674   2.766796   6.133763   5.523765   4.683532
    12  H    2.672203   2.078910   4.227746   3.334251   2.830932
    13  H    2.763333   3.302385   5.809371   5.076061   4.681663
    14  O    2.409990   3.654865   5.615632   5.268486   4.928884
    15  O    3.713206   4.123257   7.137999   6.538490   5.945412
    16  O    4.215989   3.707643   6.727301   5.908486   5.247305
    17  H    4.460129   4.766702   7.791495   7.113603   6.543021
    18  H    3.215695   4.304055   6.542175   6.146880   5.758671
    19  H    4.267138   3.879886   6.568124   5.683194   5.153429
    20  C    3.727111   2.384239   4.776928   4.088471   3.258810
    21  O    4.851388   3.653333   5.872431   5.088923   4.394398
    22  H    3.927410   2.557907   4.094458   3.463819   2.695189
    23  H    4.033261   2.654785   5.257188   4.713555   3.786197
    24  H    4.962994   3.899326   6.505151   5.702688   4.983456
    25  H    1.097207   2.012028   3.121950   2.993199   2.587737
    26  O    1.385370   2.351553   3.389461   2.773454   2.683534
    27  H    1.908848   2.528037   2.524486   1.898226   2.070100
    28  O    5.895520   5.931520   8.975754   8.192135   7.620477
    29  H    6.509384   6.487540   9.657860   8.907454   8.274169
    30  H    5.452283   5.283468   8.371949   7.571753   6.954364
                    6          7          8          9         10
     6  C    0.000000
     7  C    1.532240   0.000000
     8  C    2.506949   1.534682   0.000000
     9  C    2.895743   2.548528   1.541307   0.000000
    10  H    1.103155   2.139290   2.717858   3.196614   0.000000
    11  H    2.818298   2.150726   1.095144   2.173287   2.579418
    12  H    3.316214   2.842062   2.162125   1.099907   3.903080
    13  H    2.146836   1.101748   2.161058   2.844888   3.044394
    14  O    1.409410   2.426252   3.760992   4.204563   2.074850
    15  O    2.348197   1.416411   2.465344   3.807931   2.570083
    16  O    3.808067   2.478458   1.453184   2.449644   4.092216
    17  H    3.217943   1.974083   2.749260   4.184145   3.516939
    18  H    1.905659   2.422295   3.874847   4.638604   2.376910
    19  H    4.039015   2.700025   1.974180   2.567943   4.546134
    20  C    4.276555   3.920366   2.566525   1.533948   4.317123
    21  O    5.249578   4.523664   3.082355   2.452603   5.389378
    22  H    4.805513   4.686834   3.494919   2.151778   4.886882
    23  H    4.391418   4.158597   2.784526   2.162422   4.150327
    24  H    5.075414   4.131605   2.669819   2.571960   5.195670
    25  H    2.169989   3.469535   3.864917   3.299051   2.430135
    26  O    2.396318   2.925563   3.446031   2.842417   3.311564
    27  H    3.233386   3.816331   4.090084   3.146566   4.016310
    28  O    4.861409   3.412489   3.574746   4.976414   5.155936
    29  H    5.376677   4.019561   4.104065   5.577539   5.498469
    30  H    4.579279   3.088717   2.863417   4.214789   4.835233
                   11         12         13         14         15
    11  H    0.000000
    12  H    3.067159   0.000000
    13  H    3.053828   2.697061   0.000000
    14  O    4.107346   4.422151   2.659113   0.000000
    15  O    2.622565   4.189828   2.085237   2.765486   0.000000
    16  O    2.025329   2.665788   2.698452   4.896731   3.029935
    17  H    3.001409   4.436110   2.301421   3.595695   0.984693
    18  H    4.141950   4.888981   2.709273   0.973461   2.241560
    19  H    2.829943   2.359335   2.514745   5.012648   3.436494
    20  C    2.747180   2.153587   4.292939   5.644277   5.005975
    21  O    3.363456   2.652998   4.727856   6.571190   5.491133
    22  H    3.732065   2.498413   4.959805   6.116976   5.883875
    23  H    2.512859   3.063526   4.770628   5.799115   5.046007
    24  H    2.899437   2.847363   4.381832   6.368812   4.914128
    25  H    4.153702   3.625573   3.788777   2.719719   4.507306
    26  O    4.230876   2.516417   2.613323   2.831899   4.209227
    27  H    4.844775   2.733431   3.520251   3.697400   5.143473
    28  O    3.837175   5.090793   3.473316   5.351758   2.767658
    29  H    4.122417   5.828761   4.264863   5.868989   3.149891
    30  H    3.131439   4.378183   3.239900   5.308808   2.771467
                   16         17         18         19         20
    16  O    0.000000
    17  H    2.809202   0.000000
    18  H    4.849234   3.018871   0.000000
    19  H    0.974165   3.146838   5.027060   0.000000
    20  C    3.013253   5.294509   6.057898   3.256376   0.000000
    21  O    2.818776   5.530369   6.867360   2.922105   1.415792
    22  H    4.015469   6.234769   6.662346   4.108303   1.094674
    23  H    3.368675   5.408834   6.157312   3.875031   1.102557
    24  H    2.075216   4.839015   6.530747   2.338858   1.932936
    25  H    5.237798   5.345061   3.623299   5.343204   4.392982
    26  O    4.455069   4.769885   3.621007   4.195483   4.215499
    27  H    5.065515   5.697535   4.544979   4.760767   4.287105
    28  O    2.805295   1.819202   4.804337   3.042335   5.778233
    29  H    3.385575   2.280541   5.243699   3.803273   6.259077
    30  H    1.903455   2.007201   4.909127   2.265862   4.880218
                   21         22         23         24         25
    21  O    0.000000
    22  H    2.022607   0.000000
    23  H    2.097164   1.772423   0.000000
    24  H    0.972468   2.818886   2.369270   0.000000
    25  H    5.647120   4.421439   4.557873   5.843434   0.000000
    26  O    5.098552   4.306652   4.815980   5.252888   2.067678
    27  H    5.203122   4.125443   4.952504   5.528775   2.250295
    28  O    5.559454   6.790234   5.959213   4.700364   6.878042
    29  H    6.041482   7.315305   6.288557   5.132050   7.436664
    30  H    4.602665   5.907738   5.069764   3.728209   6.458525
                   26         27         28         29         30
    26  O    0.000000
    27  H    0.983665   0.000000
    28  O    6.042639   6.892756   0.000000
    29  H    6.802339   7.662400   0.969588   0.000000
    30  H    5.654201   6.435105   0.979793   1.546649   0.000000
 Stoichiometry    C6H16O8
 Framework group  C1[X(C6H16O8)]
 Deg. of freedom    84
 Full point group                 C1      NOp   1
 Largest Abelian subgroup         C1      NOp   1
 Largest concise Abelian subgroup C1      NOp   1
                         Standard orientation:                         
 ---------------------------------------------------------------------
 Center     Atomic      Atomic             Coordinates (Angstroms)
 Number     Number       Type             X           Y           Z
 ---------------------------------------------------------------------
      1          6           0       -1.414835   -1.265367   -0.239640
      2          8           0       -1.551248    0.097924   -0.722630
      3          1           0       -4.744985   -0.385295    0.250713
      4          8           0       -3.994569    0.015418    0.714974
      5          1           0       -3.390947    0.322633    0.009199
      6          6           0       -0.017616   -1.753662   -0.610413
      7          6           0        1.052444   -0.865872    0.033450
      8          6           0        0.807936    0.599324   -0.352124
      9          6           0       -0.651361    1.024887   -0.097226
     10          1           0        0.074551   -1.641523   -1.703976
     11          1           0        1.053484    0.726951   -1.411726
     12          1           0       -0.831972    1.035628    0.987698
     13          1           0        0.968259   -0.967828    1.127236
     14          8           0        0.146608   -3.101089   -0.231061
     15          8           0        2.291888   -1.367695   -0.433638
     16          8           0        1.711015    1.503833    0.339293
     17          1           0        3.023067   -0.967677    0.090750
     18          1           0        1.103540   -3.263938   -0.304456
     19          1           0        1.463928    1.492750    1.281537
     20          6           0       -0.982045    2.412415   -0.661506
     21          8           0       -0.303600    3.449747    0.022686
     22          1           0       -2.052853    2.598870   -0.531444
     23          1           0       -0.772250    2.421303   -1.743882
     24          1           0        0.645420    3.245088   -0.033610
     25          1           0       -2.177823   -1.812159   -0.807733
     26          8           0       -1.616801   -1.351136    1.128243
     27          1           0       -2.546909   -1.072026    1.285066
     28          8           0        4.193799    0.262126    0.743795
     29          1           0        4.882964    0.351838    0.067700
     30          1           0        3.518660    0.932018    0.508370
 ---------------------------------------------------------------------
 Rotational constants (GHZ):      0.7026907      0.5092007      0.3250324
 Standard basis: 6-31G(d) (6D, 7F)
 There are   242 symmetry adapted cartesian basis functions of A   symmetry.
 There are   242 symmetry adapted basis functions of A   symmetry.
   242 basis functions,   456 primitive gaussians,   242 cartesian basis functions
    58 alpha electrons       58 beta electrons
       nuclear repulsion energy      1096.7669064266 Hartrees.
 NAtoms=   30 NActive=   30 NUniq=   30 SFac= 1.00D+00 NAtFMM=   60 NAOKFM=F Big=F
 Integral buffers will be    131072 words long.
 Raffenetti 2 integral format.
 Two-electron integral symmetry is turned on.
 One-electron integrals computed using PRISM.
 NBasis=   242 RedAO= T EigKep=  1.88D-03  NBF=   242
 NBsUse=   242 1.00D-06 EigRej= -1.00D+00 NBFU=   242
 ExpMin= 1.61D-01 ExpMax= 5.48D+03 ExpMxC= 8.25D+02 IAcc=1 IRadAn=         1 AccDes= 0.00D+00
 Harris functional with IExCor=  402 and IRadAn=       1 diagonalized for initial guess.
 HarFok:  IExCor=  402 AccDes= 0.00D+00 IRadAn=         1 IDoV= 1 UseB2=F ITyADJ=14
 ICtDFT=  3500011 ScaDFX=  1.000000  1.000000  1.000000  1.000000
 FoFCou: FMM=F IPFlag=           0 FMFlag=      100000 FMFlg1=           0
         NFxFlg=           0 DoJE=T BraDBF=F KetDBF=T FulRan=T
         wScrn=  0.000000 ICntrl=     500 IOpCl=  0 I1Cent=   200000004 NGrid=           0
         NMat0=    1 NMatS0=      1 NMatT0=    0 NMatD0=    1 NMtDS0=    0 NMtDT0=    0
 Petite list used in FoFCou.
 Requested convergence on RMS density matrix=1.00D-08 within 128 cycles.
 Requested convergence on MAX density matrix=1.00D-06.
 Requested convergence on             energy=1.00D-06.
 No special actions if energy rises.
 Integral accuracy reduced to 1.0D-05 until final iterations.
 Initial convergence to 1.0D-05 achieved.  Increase integral accuracy.
 SCF Done:  E(RB3LYP) =  -840.003621040     A.U. after   13 cycles
            NFock= 13  Conv=0.95D-08     -V/T= 2.0085

 **********************************************************************

            Population analysis using the SCF density.

 **********************************************************************

 Orbital symmetries:
       Occupied  (A) (A) (A) (A) (A) (A) (A) (A) (A) (A) (A) (A)
                 (A) (A) (A) (A) (A) (A) (A) (A) (A) (A) (A) (A)
                 (A) (A) (A) (A) (A) (A) (A) (A) (A) (A) (A) (A)
                 (A) (A) (A) (A) (A) (A) (A) (A) (A) (A) (A) (A)
                 (A) (A) (A) (A) (A) (A) (A) (A) (A) (A)
       Virtual   (A) (A) (A) (A) (A) (A) (A) (A) (A) (A) (A) (A)
                 (A) (A) (A) (A) (A) (A) (A) (A) (A) (A) (A) (A)
                 (A) (A) (A) (A) (A) (A) (A) (A) (A) (A) (A) (A)
                 (A) (A) (A) (A) (A) (A) (A) (A) (A) (A) (A) (A)
                 (A) (A) (A) (A) (A) (A) (A) (A) (A) (A) (A) (A)
                 (A) (A) (A) (A) (A) (A) (A) (A) (A) (A) (A) (A)
                 (A) (A) (A) (A) (A) (A) (A) (A) (A) (A) (A) (A)
                 (A) (A) (A) (A) (A) (A) (A) (A) (A) (A) (A) (A)
                 (A) (A) (A) (A) (A) (A) (A) (A) (A) (A) (A) (A)
                 (A) (A) (A) (A) (A) (A) (A) (A) (A) (A) (A) (A)
                 (A) (A) (A) (A) (A) (A) (A) (A) (A) (A) (A) (A)
                 (A) (A) (A) (A) (A) (A) (A) (A) (A) (A) (A) (A)
                 (A) (A) (A) (A) (A) (A) (A) (A) (A) (A) (A) (A)
                 (A) (A) (A) (A) (A) (A) (A) (A) (A) (A) (A) (A)
                 (A) (A) (A) (A) (A) (A) (A) (A) (A) (A) (A) (A)
                 (A) (A) (A) (A)
 The electronic state is 1-A.
 Alpha  occ. eigenvalues --  -19.20088 -19.17597 -19.16309 -19.16176 -19.14775
 Alpha  occ. eigenvalues --  -19.14457 -19.14142 -19.13834 -10.29013 -10.25886
 Alpha  occ. eigenvalues --  -10.25230 -10.24186 -10.23911 -10.23759  -1.07947
 Alpha  occ. eigenvalues --   -1.06429  -1.03103  -1.02070  -1.01973  -1.01761
 Alpha  occ. eigenvalues --   -1.00732  -0.99980  -0.79096  -0.77238  -0.69188
 Alpha  occ. eigenvalues --   -0.65350  -0.62707  -0.59045  -0.55623  -0.54608
 Alpha  occ. eigenvalues --   -0.54245  -0.53455  -0.52356  -0.51873  -0.49957
 Alpha  occ. eigenvalues --   -0.47743  -0.45870  -0.44900  -0.44349  -0.43396
 Alpha  occ. eigenvalues --   -0.42485  -0.40605  -0.40317  -0.39719  -0.38135
 Alpha  occ. eigenvalues --   -0.37656  -0.36578  -0.35479  -0.34845  -0.32527
 Alpha  occ. eigenvalues --   -0.31855  -0.31473  -0.30507  -0.29519  -0.28389
 Alpha  occ. eigenvalues --   -0.27587  -0.26751  -0.25827
 Alpha virt. eigenvalues --    0.02973   0.05076   0.07127   0.08108   0.09270
 Alpha virt. eigenvalues --    0.10582   0.11308   0.13107   0.13493   0.14713
 Alpha virt. eigenvalues --    0.15077   0.16377   0.16733   0.17506   0.18684
 Alpha virt. eigenvalues --    0.19367   0.19601   0.21454   0.22169   0.23020
 Alpha virt. eigenvalues --    0.23958   0.25350   0.25698   0.27156   0.28179
 Alpha virt. eigenvalues --    0.29349   0.31801   0.33482   0.51488   0.52837
 Alpha virt. eigenvalues --    0.54406   0.55223   0.55614   0.57483   0.58600
 Alpha virt. eigenvalues --    0.61470   0.62253   0.63802   0.64385   0.68453
 Alpha virt. eigenvalues --    0.68677   0.70282   0.72178   0.75639   0.76030
 Alpha virt. eigenvalues --    0.76789   0.78002   0.78882   0.80714   0.81204
 Alpha virt. eigenvalues --    0.82338   0.82502   0.83455   0.84063   0.86065
 Alpha virt. eigenvalues --    0.86551   0.87116   0.87410   0.88051   0.89048
 Alpha virt. eigenvalues --    0.89465   0.90304   0.91244   0.91955   0.95209
 Alpha virt. eigenvalues --    0.96847   0.97878   0.98990   1.01739   1.02772
 Alpha virt. eigenvalues --    1.03303   1.05114   1.06549   1.07399   1.07788
 Alpha virt. eigenvalues --    1.08397   1.10899   1.12562   1.14088   1.15675
 Alpha virt. eigenvalues --    1.18381   1.20004   1.20981   1.24050   1.26390
 Alpha virt. eigenvalues --    1.27947   1.28602   1.31893   1.33994   1.37369
 Alpha virt. eigenvalues --    1.39322   1.41558   1.43593   1.45727   1.47225
 Alpha virt. eigenvalues --    1.49335   1.52566   1.56605   1.57252   1.59554
 Alpha virt. eigenvalues --    1.60844   1.63248   1.65023   1.67512   1.69038
 Alpha virt. eigenvalues --    1.69479   1.70863   1.71165   1.72424   1.73002
 Alpha virt. eigenvalues --    1.73913   1.75893   1.77934   1.79109   1.79846
 Alpha virt. eigenvalues --    1.79941   1.81665   1.82395   1.86570   1.86845
 Alpha virt. eigenvalues --    1.88825   1.90299   1.91515   1.93762   1.96160
 Alpha virt. eigenvalues --    1.98024   1.98684   2.00808   2.04672   2.05951
 Alpha virt. eigenvalues --    2.08338   2.10191   2.11161   2.12547   2.15122
 Alpha virt. eigenvalues --    2.16690   2.18392   2.21529   2.23873   2.25947
 Alpha virt. eigenvalues --    2.29017   2.29874   2.30881   2.34735   2.36700
 Alpha virt. eigenvalues --    2.39940   2.42461   2.44094   2.46561   2.47889
 Alpha virt. eigenvalues --    2.51163   2.53903   2.55984   2.56429   2.57935
 Alpha virt. eigenvalues --    2.58145   2.60281   2.62775   2.68316   2.68666
 Alpha virt. eigenvalues --    2.75270   2.77449   2.84006   2.84679   2.89372
 Alpha virt. eigenvalues --    2.93726   2.95180   2.99767   3.05326   3.06290
 Alpha virt. eigenvalues --    3.68258   3.70671   3.74083   3.82533   3.89086
 Alpha virt. eigenvalues --    3.90858   3.98230   4.14082   4.26284   4.35387
 Alpha virt. eigenvalues --    4.40204   4.56064   4.65681   4.71637
          Condensed to atoms (all electrons):
               1          2          3          4          5          6
     1  C    4.774863   0.164322   0.000321   0.010348  -0.004090   0.295978
     2  O    0.164322   8.424013   0.000336  -0.015306   0.045194  -0.025057
     3  H    0.000321   0.000336   0.373307   0.241309  -0.013845   0.000014
     4  O    0.010348  -0.015306   0.241309   8.315128   0.209787   0.000228
     5  H   -0.004090   0.045194  -0.013845   0.209787   0.347660   0.000577
     6  C    0.295978  -0.025057   0.000014   0.000228   0.000577   4.934362
     7  C   -0.004394  -0.011056   0.000000  -0.000011   0.000011   0.298053
     8  C   -0.008435  -0.033038  -0.000001  -0.000006   0.000392  -0.031673
     9  C   -0.011106   0.144012  -0.000046   0.001011  -0.003358  -0.012733
    10  H   -0.060886   0.004684  -0.000001   0.000004  -0.000022   0.358881
    11  H   -0.000554   0.002670   0.000000   0.000000  -0.000012  -0.004168
    12  H   -0.008142  -0.035471  -0.000025   0.000727  -0.001089  -0.000912
    13  H   -0.009424   0.000125  -0.000000   0.000002  -0.000008  -0.038869
    14  O   -0.041780   0.001140  -0.000000   0.000000  -0.000008   0.239158
    15  O    0.002866   0.000007  -0.000000   0.000000   0.000000  -0.047966
    16  O   -0.000041   0.001277  -0.000000   0.000000  -0.000003   0.002561
    17  H   -0.000138   0.000002  -0.000000   0.000000  -0.000000   0.004790
    18  H    0.006967  -0.000097   0.000000   0.000000   0.000000  -0.033812
    19  H   -0.000004   0.000071   0.000000   0.000000  -0.000001   0.000022
    20  C    0.003092  -0.027895   0.000021  -0.000329  -0.000283  -0.000068
    21  O   -0.000037   0.001316  -0.000000   0.000000   0.000015   0.000001
    22  H   -0.000216   0.001341  -0.000029   0.000354   0.002898   0.000001
    23  H   -0.000253   0.005051  -0.000000   0.000005  -0.000060  -0.000002
    24  H   -0.000005   0.000000  -0.000000  -0.000000   0.000002  -0.000010
    25  H    0.378422  -0.052058   0.000424   0.002300  -0.001711  -0.047932
    26  O    0.237571  -0.058797   0.000838  -0.021149   0.003181  -0.052487
    27  H   -0.019723   0.002062  -0.002408   0.057383  -0.007511   0.006514
    28  O    0.000000   0.000000  -0.000000   0.000000  -0.000000   0.000002
    29  H   -0.000000  -0.000000   0.000000  -0.000000   0.000000   0.000001
    30  H   -0.000002  -0.000003   0.000000  -0.000000   0.000000   0.000059
               7          8          9         10         11         12
     1  C   -0.004394  -0.008435  -0.011106  -0.060886  -0.000554  -0.008142
     2  O   -0.011056  -0.033038   0.144012   0.004684   0.002670  -0.035471
     3  H    0.000000  -0.000001  -0.000046  -0.000001   0.000000  -0.000025
     4  O   -0.000011  -0.000006   0.001011   0.000004   0.000000   0.000727
     5  H    0.000011   0.000392  -0.003358  -0.000022  -0.000012  -0.001089
     6  C    0.298053  -0.031673  -0.012733   0.358881  -0.004168  -0.000912
     7  C    4.983017   0.297731  -0.035294  -0.055607  -0.042276  -0.005950
     8  C    0.297731   5.117497   0.275144  -0.004959   0.352046  -0.062982
     9  C   -0.035294   0.275144   5.041915   0.000555  -0.037686   0.352333
    10  H   -0.055607  -0.004959   0.000555   0.661969   0.006097   0.000209
    11  H   -0.042276   0.352046  -0.037686   0.006097   0.587282   0.006093
    12  H   -0.005950  -0.062982   0.352333   0.000209   0.006093   0.625158
    13  H    0.347003  -0.054271  -0.000338   0.007861   0.006510   0.003217
    14  O   -0.030468   0.003718  -0.000019  -0.040853  -0.000058   0.000022
    15  O    0.236880  -0.043518   0.003549  -0.000331   0.002500  -0.000033
    16  O   -0.028308   0.177544  -0.026303  -0.000074  -0.039393   0.000186
    17  H   -0.017430  -0.002279  -0.000049  -0.000269  -0.000335   0.000006
    18  H   -0.011327   0.000989  -0.000091  -0.001318  -0.000000  -0.000005
    19  H   -0.003209  -0.029168  -0.003964   0.000020   0.007371   0.008293
    20  C    0.003491  -0.023585   0.337405  -0.000047  -0.008192  -0.047728
    21  O    0.000049  -0.000979  -0.039666   0.000000   0.000066   0.006170
    22  H   -0.000126   0.004973  -0.036413   0.000003  -0.000009  -0.006562
    23  H   -0.000058  -0.014282  -0.046920   0.000005   0.006496   0.007135
    24  H    0.000280   0.000596  -0.007631   0.000001  -0.000879  -0.000809
    25  H    0.006432  -0.000580   0.006066  -0.004451  -0.000045   0.000469
    26  O   -0.005678  -0.002685  -0.001523   0.003839   0.000025   0.017109
    27  H   -0.000089   0.000087  -0.000067  -0.000209   0.000004  -0.000351
    28  O    0.000907   0.000954  -0.000005  -0.000000   0.000076   0.000000
    29  H   -0.000185   0.000122   0.000002   0.000000   0.000040   0.000000
    30  H   -0.000158  -0.002758   0.000517   0.000001  -0.000479  -0.000030
              13         14         15         16         17         18
     1  C   -0.009424  -0.041780   0.002866  -0.000041  -0.000138   0.006967
     2  O    0.000125   0.001140   0.000007   0.001277   0.000002  -0.000097
     3  H   -0.000000  -0.000000  -0.000000  -0.000000  -0.000000   0.000000
     4  O    0.000002   0.000000   0.000000   0.000000   0.000000   0.000000
     5  H   -0.000008  -0.000008   0.000000  -0.000003  -0.000000   0.000000
     6  C   -0.038869   0.239158  -0.047966   0.002561   0.004790  -0.033812
     7  C    0.347003  -0.030468   0.236880  -0.028308  -0.017430  -0.011327
     8  C   -0.054271   0.003718  -0.043518   0.177544  -0.002279   0.000989
     9  C   -0.000338  -0.000019   0.003549  -0.026303  -0.000049  -0.000091
    10  H    0.007861  -0.040853  -0.000331  -0.000074  -0.000269  -0.001318
    11  H    0.006510  -0.000058   0.002500  -0.039393  -0.000335  -0.000000
    12  H    0.003217   0.000022  -0.000033   0.000186   0.000006  -0.000005
    13  H    0.628583   0.001330  -0.039687  -0.003002  -0.004325  -0.000456
    14  O    0.001330   8.274451  -0.006883  -0.000009  -0.000050   0.234782
    15  O   -0.039687  -0.006883   8.372934   0.000204   0.200118   0.026761
    16  O   -0.003002  -0.000009   0.000204   8.282659   0.002101  -0.000007
    17  H   -0.004325  -0.000050   0.200118   0.002101   0.327727  -0.000412
    18  H   -0.000456   0.234782   0.026761  -0.000007  -0.000412   0.368603
    19  H    0.005069  -0.000001  -0.000172   0.228130   0.000007   0.000000
    20  C   -0.000093  -0.000000  -0.000038  -0.000471   0.000001   0.000000
    21  O   -0.000009  -0.000000   0.000000  -0.011307   0.000000   0.000000
    22  H    0.000007  -0.000000   0.000000  -0.000126  -0.000000  -0.000000
    23  H   -0.000005   0.000000  -0.000002   0.000324   0.000000   0.000000
    24  H   -0.000014   0.000000  -0.000001   0.035210  -0.000001   0.000000
    25  H    0.000128   0.001834  -0.000051   0.000004   0.000004  -0.000437
    26  O    0.009867   0.003915   0.000023   0.000011   0.000002  -0.000080
    27  H   -0.000125  -0.000164   0.000001  -0.000001  -0.000000   0.000021
    28  O    0.000200  -0.000000  -0.025046  -0.017090   0.078586   0.000007
    29  H    0.000012   0.000000   0.001813   0.000510  -0.003963  -0.000001
    30  H    0.000051   0.000000   0.005624   0.050285  -0.010149  -0.000003
              19         20         21         22         23         24
     1  C   -0.000004   0.003092  -0.000037  -0.000216  -0.000253  -0.000005
     2  O    0.000071  -0.027895   0.001316   0.001341   0.005051   0.000000
     3  H    0.000000   0.000021  -0.000000  -0.000029  -0.000000  -0.000000
     4  O    0.000000  -0.000329   0.000000   0.000354   0.000005  -0.000000
     5  H   -0.000001  -0.000283   0.000015   0.002898  -0.000060   0.000002
     6  C    0.000022  -0.000068   0.000001   0.000001  -0.000002  -0.000010
     7  C   -0.003209   0.003491   0.000049  -0.000126  -0.000058   0.000280
     8  C   -0.029168  -0.023585  -0.000979   0.004973  -0.014282   0.000596
     9  C   -0.003964   0.337405  -0.039666  -0.036413  -0.046920  -0.007631
    10  H    0.000020  -0.000047   0.000000   0.000003   0.000005   0.000001
    11  H    0.007371  -0.008192   0.000066  -0.000009   0.006496  -0.000879
    12  H    0.008293  -0.047728   0.006170  -0.006562   0.007135  -0.000809
    13  H    0.005069  -0.000093  -0.000009   0.000007  -0.000005  -0.000014
    14  O   -0.000001  -0.000000  -0.000000  -0.000000   0.000000   0.000000
    15  O   -0.000172  -0.000038   0.000000   0.000000  -0.000002  -0.000001
    16  O    0.228130  -0.000471  -0.011307  -0.000126   0.000324   0.035210
    17  H    0.000007   0.000001   0.000000  -0.000000   0.000000  -0.000001
    18  H    0.000000   0.000000   0.000000  -0.000000   0.000000   0.000000
    19  H    0.378089  -0.001528   0.003541  -0.000014   0.000271  -0.002852
    20  C   -0.001528   4.845661   0.267413   0.374225   0.350559  -0.030100
    21  O    0.003541   0.267413   8.247838  -0.035913  -0.035456   0.228984
    22  H   -0.000014   0.374225  -0.035913   0.578960  -0.044404   0.006163
    23  H    0.000271   0.350559  -0.035456  -0.044404   0.648358  -0.004695
    24  H   -0.002852  -0.030100   0.228984   0.006163  -0.004695   0.370956
    25  H   -0.000001  -0.000098   0.000001  -0.000009   0.000007  -0.000000
    26  O   -0.000057   0.000238   0.000001   0.000009  -0.000003  -0.000000
    27  H    0.000002  -0.000071   0.000000  -0.000005   0.000001   0.000000
    28  O    0.001628  -0.000000  -0.000000  -0.000000   0.000000   0.000003
    29  H   -0.000042  -0.000000   0.000000   0.000000   0.000000  -0.000001
    30  H   -0.004451  -0.000009   0.000012   0.000000  -0.000001   0.000041
              25         26         27         28         29         30
     1  C    0.378422   0.237571  -0.019723   0.000000  -0.000000  -0.000002
     2  O   -0.052058  -0.058797   0.002062   0.000000  -0.000000  -0.000003
     3  H    0.000424   0.000838  -0.002408  -0.000000   0.000000   0.000000
     4  O    0.002300  -0.021149   0.057383   0.000000  -0.000000  -0.000000
     5  H   -0.001711   0.003181  -0.007511  -0.000000   0.000000   0.000000
     6  C   -0.047932  -0.052487   0.006514   0.000002   0.000001   0.000059
     7  C    0.006432  -0.005678  -0.000089   0.000907  -0.000185  -0.000158
     8  C   -0.000580  -0.002685   0.000087   0.000954   0.000122  -0.002758
     9  C    0.006066  -0.001523  -0.000067  -0.000005   0.000002   0.000517
    10  H   -0.004451   0.003839  -0.000209  -0.000000   0.000000   0.000001
    11  H   -0.000045   0.000025   0.000004   0.000076   0.000040  -0.000479
    12  H    0.000469   0.017109  -0.000351   0.000000   0.000000  -0.000030
    13  H    0.000128   0.009867  -0.000125   0.000200   0.000012   0.000051
    14  O    0.001834   0.003915  -0.000164  -0.000000   0.000000   0.000000
    15  O   -0.000051   0.000023   0.000001  -0.025046   0.001813   0.005624
    16  O    0.000004   0.000011  -0.000001  -0.017090   0.000510   0.050285
    17  H    0.000004   0.000002  -0.000000   0.078586  -0.003963  -0.010149
    18  H   -0.000437  -0.000080   0.000021   0.000007  -0.000001  -0.000003
    19  H   -0.000001  -0.000057   0.000002   0.001628  -0.000042  -0.004451
    20  C   -0.000098   0.000238  -0.000071  -0.000000  -0.000000  -0.000009
    21  O    0.000001   0.000001   0.000000  -0.000000   0.000000   0.000012
    22  H   -0.000009   0.000009  -0.000005  -0.000000   0.000000   0.000000
    23  H    0.000007  -0.000003   0.000001   0.000000   0.000000  -0.000001
    24  H   -0.000000  -0.000000   0.000000   0.000003  -0.000001   0.000041
    25  H    0.623012  -0.041374  -0.005419  -0.000000   0.000000  -0.000000
    26  O   -0.041374   8.318270   0.214121   0.000000  -0.000000  -0.000000
    27  H   -0.005419   0.214121   0.324474   0.000000  -0.000000   0.000000
    28  O   -0.000000   0.000000   0.000000   8.309458   0.240496   0.209058
    29  H    0.000000  -0.000000  -0.000000   0.240496   0.372100  -0.012346
    30  H   -0.000000  -0.000000   0.000000   0.209058  -0.012346   0.344323
 Mulliken charges:
               1
     1  C    0.294480
     2  O   -0.538844
     3  H    0.399784
     4  O   -0.801786
     5  H    0.422282
     6  C    0.154489
     7  C    0.077768
     8  C    0.083401
     9  C    0.100706
    10  H    0.124895
    11  H    0.156809
    12  H    0.142960
    13  H    0.140662
    14  O   -0.640055
    15  O   -0.689552
    16  O   -0.654871
    17  H    0.426056
    18  H    0.409915
    19  H    0.412948
    20  C   -0.041569
    21  O   -0.632039
    22  H    0.154893
    23  H    0.127930
    24  H    0.404761
    25  H    0.135063
    26  O   -0.625186
    27  H    0.431476
    28  O   -0.799234
    29  H    0.401440
    30  H    0.420418
 Sum of Mulliken charges =  -0.00000
 Mulliken charges with hydrogens summed into heavy atoms:
               1
     1  C    0.429543
     2  O   -0.538844
     4  O    0.020280
     6  C    0.279385
     7  C    0.218429
     8  C    0.240211
     9  C    0.243666
    14  O   -0.230140
    15  O   -0.263497
    16  O   -0.241923
    20  C    0.241254
    21  O   -0.227278
    26  O   -0.193710
    28  O    0.022624
 Electronic spatial extent (au):  <R**2>=           3394.5316
 Charge=              0.0000 electrons
 Dipole moment (field-independent basis, Debye):
    X=              0.5624    Y=              1.1323    Z=             -2.1467  Tot=              2.4913
 Quadrupole moment (field-independent basis, Debye-Ang):
   XX=            -66.3899   YY=            -98.2549   ZZ=            -85.2299
   XY=              7.5168   XZ=              2.1164   YZ=              0.8116
 Traceless Quadrupole moment (field-independent basis, Debye-Ang):
   XX=             16.9017   YY=            -14.9633   ZZ=             -1.9383
   XY=              7.5168   XZ=              2.1164   YZ=              0.8116
 Octapole moment (field-independent basis, Debye-Ang**2):
  XXX=            -14.6818  YYY=            -23.7314  ZZZ=              6.7986  XYY=             22.4925
  XXY=             -6.6343  XXZ=            -41.5045  XZZ=              3.7067  YZZ=              6.0602
  YYZ=             -4.1772  XYZ=              0.0920
 Hexadecapole moment (field-independent basis, Debye-Ang**3):
 XXXX=          -1477.0777 YYYY=          -1774.9347 ZZZZ=           -263.9103 XXXY=            149.7574
 XXXZ=            -52.8135 YYYX=              9.8632 YYYZ=             -0.4227 ZZZX=             -4.2771
 ZZZY=              8.2337 XXYY=           -562.6731 XXZZ=           -449.4361 YYZZ=           -298.0396
 XXYZ=            -19.2336 YYXZ=             14.4418 ZZXY=             12.4258
 N-N= 1.096766906427D+03 E-N=-4.165579602161D+03  KE= 8.328970718930D+02
 Calling FoFJK, ICntrl=      2127 FMM=F ISym2X=0 I1Cent= 0 IOpClX= 0 NMat=1 NMatS=1 NMatT=0.
 ***** Axes restored to original set *****
 -------------------------------------------------------------------
 Center     Atomic                   Forces (Hartrees/Bohr)
 Number     Number              X              Y              Z
 -------------------------------------------------------------------
      1        6          -0.000010006   -0.000005031   -0.000001411
      2        8          -0.000002913    0.000005980   -0.000003646
      3        1          -0.000000656   -0.000007985   -0.000004970
      4        8           0.000007669   -0.000000934   -0.000009171
      5        1          -0.000010409   -0.000007459   -0.000002920
      6        6           0.000002187    0.000003801    0.000005381
      7        6          -0.000002726    0.000001399    0.000003249
      8        6           0.000007228    0.000000469   -0.000006809
      9        6           0.000000036   -0.000002342   -0.000005649
     10        1          -0.000003920   -0.000000436   -0.000001833
     11        1          -0.000003007   -0.000001698   -0.000000510
     12        1           0.000002302   -0.000006086    0.000006591
     13        1          -0.000000693    0.000003596   -0.000000585
     14        8           0.000002587   -0.000001160   -0.000004658
     15        8          -0.000005523   -0.000004223    0.000005001
     16        8           0.000000581    0.000003992    0.000001900
     17        1           0.000000261    0.000021883    0.000006346
     18        1          -0.000008227    0.000009845    0.000001314
     19        1          -0.000007511   -0.000000546   -0.000000900
     20        6           0.000011534   -0.000001896    0.000000276
     21        8          -0.000001530   -0.000005389    0.000002728
     22        1           0.000003175   -0.000007994   -0.000003842
     23        1          -0.000001519   -0.000005804    0.000002899
     24        1           0.000002451    0.000002403    0.000001848
     25        1          -0.000003492    0.000000905   -0.000007232
     26        8           0.000002306   -0.000000575    0.000000160
     27        1          -0.000004626   -0.000005691   -0.000002023
     28        8          -0.000006607    0.000013937   -0.000005100
     29        1           0.000005572    0.000000148    0.000003725
     30        1           0.000025475   -0.000003110    0.000019841
 -------------------------------------------------------------------
 Cartesian Forces:  Max     0.000025475 RMS     0.000006329

 GradGradGradGradGradGradGradGradGradGradGradGradGradGradGradGradGradGrad
 Berny optimization.
 FormGI is forming the generalized inverse of G from B-inverse, IUseBI=4.
 Internal  Forces:  Max     0.000015440 RMS     0.000002909
 Search for a local minimum.
 Step number   1 out of a maximum of  180
 All quantities printed in internal units (Hartrees-Bohrs-Radians)
 Mixed Optimization -- En-DIIS/RFO-DIIS
 Second derivative matrix not updated -- first step.
 ITU=  0
     Eigenvalues ---    0.00317   0.00563   0.00624   0.00678   0.00716
     Eigenvalues ---    0.00770   0.00867   0.01460   0.01483   0.01567
     Eigenvalues ---    0.01712   0.02521   0.02843   0.03651   0.04158
     Eigenvalues ---    0.04292   0.04448   0.04559   0.04615   0.04789
     Eigenvalues ---    0.04794   0.04974   0.05105   0.05279   0.05512
     Eigenvalues ---    0.05563   0.05931   0.06028   0.06362   0.06500
     Eigenvalues ---    0.06752   0.06843   0.07032   0.08061   0.08520
     Eigenvalues ---    0.08688   0.09095   0.09328   0.09590   0.10571
     Eigenvalues ---    0.10828   0.11594   0.12377   0.13974   0.15262
     Eigenvalues ---    0.15526   0.15733   0.16000   0.16000   0.16803
     Eigenvalues ---    0.17791   0.18253   0.19354   0.19834   0.20585
     Eigenvalues ---    0.22052   0.25858   0.26909   0.28161   0.29062
     Eigenvalues ---    0.29267   0.33336   0.33401   0.33490   0.33692
     Eigenvalues ---    0.33898   0.33993   0.34225   0.34278   0.36797
     Eigenvalues ---    0.38557   0.41619   0.43100   0.44096   0.46183
     Eigenvalues ---    0.47843   0.48942   0.50238   0.50877   0.52535
     Eigenvalues ---    0.52676   0.52876   0.53461   0.53553
 RFO step:  Lambda=-1.62477743D-08 EMin= 3.16882575D-03
 Linear search not attempted -- first point.
 Iteration  1 RMS(Cart)=  0.00006934 RMS(Int)=  0.00000000
 Iteration  2 RMS(Cart)=  0.00000000 RMS(Int)=  0.00000000
 Variable       Old X    -DE/DX   Delta X   Delta X   Delta X     New X
                                 (Linear)    (Quad)   (Total)
    R1        2.74528  -0.00000   0.00000   0.00000   0.00000   2.74528
    R2        2.88338  -0.00001   0.00000  -0.00002  -0.00002   2.88336
    R3        2.07342  -0.00000   0.00000  -0.00000  -0.00000   2.07342
    R4        2.61797  -0.00000   0.00000  -0.00000  -0.00000   2.61797
    R5        3.76552  -0.00000   0.00000   0.00001   0.00001   3.76552
    R6        2.71239  -0.00000   0.00000  -0.00001  -0.00001   2.71239
    R7        1.83141   0.00000   0.00000   0.00000   0.00000   1.83141
    R8        1.84851   0.00001   0.00000   0.00002   0.00002   1.84853
    R9        3.58713  -0.00000   0.00000  -0.00003  -0.00003   3.58710
   R10        2.89551   0.00000   0.00000   0.00000   0.00000   2.89552
   R11        2.08466   0.00000   0.00000   0.00001   0.00001   2.08467
   R12        2.66340   0.00000   0.00000   0.00000   0.00000   2.66340
   R13        2.90013  -0.00000   0.00000  -0.00002  -0.00002   2.90011
   R14        2.08200   0.00000   0.00000   0.00000   0.00000   2.08201
   R15        2.67663   0.00000   0.00000  -0.00000  -0.00000   2.67663
   R16        2.91265  -0.00000   0.00000  -0.00000  -0.00000   2.91264
   R17        2.06952   0.00000   0.00000   0.00001   0.00001   2.06953
   R18        2.74612  -0.00000   0.00000   0.00000   0.00000   2.74612
   R19        2.07852  -0.00000   0.00000  -0.00001  -0.00001   2.07851
   R20        2.89874   0.00000   0.00000   0.00002   0.00002   2.89876
   R21        1.83957   0.00000   0.00000   0.00001   0.00001   1.83958
   R22        1.86080   0.00001   0.00000   0.00002   0.00002   1.86082
   R23        1.84091  -0.00001   0.00000  -0.00001  -0.00001   1.84089
   R24        3.59701  -0.00002   0.00000  -0.00028  -0.00028   3.59673
   R25        3.43779  -0.00001   0.00000  -0.00011  -0.00011   3.43768
   R26        2.67546   0.00001   0.00000   0.00001   0.00001   2.67547
   R27        2.06863   0.00000   0.00000   0.00000   0.00000   2.06864
   R28        2.08353   0.00000   0.00000   0.00001   0.00001   2.08354
   R29        1.83770   0.00000   0.00000   0.00001   0.00001   1.83770
   R30        1.85886  -0.00000   0.00000  -0.00001  -0.00001   1.85885
   R31        1.83226  -0.00000   0.00000  -0.00000  -0.00000   1.83225
   R32        1.85154   0.00001   0.00000   0.00003   0.00003   1.85157
    A1        1.88127  -0.00000   0.00000   0.00002   0.00002   1.88129
    A2        1.80311   0.00000   0.00000   0.00003   0.00003   1.80314
    A3        1.95269  -0.00000   0.00000  -0.00001  -0.00001   1.95269
    A4        1.92995  -0.00000   0.00000  -0.00000  -0.00000   1.92995
    A5        1.93223   0.00000   0.00000  -0.00000  -0.00000   1.93223
    A6        1.95951  -0.00000   0.00000  -0.00003  -0.00003   1.95948
    A7        1.64127  -0.00000   0.00000  -0.00000  -0.00000   1.64127
    A8        1.98484   0.00000   0.00000   0.00003   0.00003   1.98487
    A9        1.92408   0.00000   0.00000   0.00001   0.00001   1.92409
   A10        1.83593   0.00000   0.00000  -0.00000  -0.00000   1.83592
   A11        2.09154   0.00000   0.00000   0.00001   0.00001   2.09155
   A12        1.49673  -0.00000   0.00000  -0.00001  -0.00001   1.49671
   A13        2.49691   0.00000   0.00000   0.00001   0.00001   2.49692
   A14        1.93047   0.00000   0.00000  -0.00001  -0.00001   1.93047
   A15        1.85966  -0.00000   0.00000   0.00001   0.00001   1.85967
   A16        1.92542  -0.00000   0.00000  -0.00001  -0.00001   1.92541
   A17        1.87477   0.00000   0.00000   0.00001   0.00001   1.87478
   A18        1.93847  -0.00000   0.00000  -0.00000  -0.00000   1.93847
   A19        1.93292   0.00000   0.00000   0.00000   0.00000   1.93292
   A20        1.91382  -0.00000   0.00000  -0.00001  -0.00001   1.91381
   A21        1.88619   0.00000   0.00000   0.00000   0.00000   1.88620
   A22        1.84134   0.00000   0.00000   0.00003   0.00003   1.84137
   A23        1.90244   0.00000   0.00000   0.00001   0.00001   1.90246
   A24        1.97666  -0.00000   0.00000  -0.00002  -0.00002   1.97665
   A25        1.94063  -0.00000   0.00000  -0.00002  -0.00002   1.94062
   A26        1.95293   0.00000   0.00000   0.00003   0.00003   1.95296
   A27        1.89508  -0.00000   0.00000  -0.00002  -0.00002   1.89506
   A28        1.95595  -0.00000   0.00000  -0.00000  -0.00000   1.95595
   A29        1.91784  -0.00000   0.00000  -0.00001  -0.00001   1.91783
   A30        1.91542  -0.00000   0.00000  -0.00000  -0.00000   1.91542
   A31        1.82190   0.00000   0.00000  -0.00000  -0.00000   1.82190
   A32        1.92114  -0.00000   0.00000  -0.00001  -0.00001   1.92113
   A33        1.91043   0.00000   0.00000   0.00001   0.00001   1.91044
   A34        1.86370   0.00000   0.00000   0.00002   0.00002   1.86372
   A35        1.89789   0.00000   0.00000   0.00002   0.00002   1.89791
   A36        1.97471   0.00000   0.00000  -0.00000  -0.00000   1.97471
   A37        1.89507  -0.00000   0.00000  -0.00004  -0.00004   1.89503
   A38        1.82780  -0.00000   0.00000  -0.00003  -0.00003   1.82777
   A39        1.90734  -0.00000   0.00000  -0.00002  -0.00002   1.90732
   A40        1.87077   0.00000   0.00000   0.00001   0.00001   1.87078
   A41        2.03247   0.00000   0.00000   0.00001   0.00001   2.03248
   A42        1.72292  -0.00001   0.00000  -0.00009  -0.00009   1.72284
   A43        2.80428  -0.00000   0.00000  -0.00002  -0.00002   2.80426
   A44        1.96240  -0.00000   0.00000  -0.00001  -0.00001   1.96239
   A45        1.89784  -0.00000   0.00000  -0.00000  -0.00000   1.89783
   A46        1.90435   0.00000   0.00000   0.00001   0.00001   1.90436
   A47        1.86140   0.00000   0.00000   0.00003   0.00003   1.86144
   A48        1.95770  -0.00000   0.00000  -0.00003  -0.00003   1.95767
   A49        1.87696  -0.00000   0.00000  -0.00000  -0.00000   1.87695
   A50        1.86029   0.00001   0.00000   0.00005   0.00005   1.86034
   A51        1.85219   0.00000   0.00000  -0.00000  -0.00000   1.85219
   A52        2.56036   0.00000   0.00000   0.00001   0.00001   2.56037
   A53        1.84383  -0.00001   0.00000  -0.00009  -0.00009   1.84374
   A54        1.50324  -0.00000   0.00000  -0.00002  -0.00002   1.50323
   A55        1.83275  -0.00000   0.00000  -0.00001  -0.00001   1.83274
   A56        2.64901   0.00000   0.00000   0.00001   0.00001   2.64902
    D1       -3.10715  -0.00000   0.00000   0.00002   0.00002  -3.10713
    D2       -1.11403  -0.00000   0.00000   0.00003   0.00003  -1.11400
    D3        1.13261  -0.00000   0.00000   0.00000   0.00000   1.13261
    D4        3.12572  -0.00000   0.00000   0.00002   0.00002   3.12574
    D5       -0.97886   0.00000   0.00000   0.00002   0.00002  -0.97884
    D6        1.01426   0.00000   0.00000   0.00003   0.00003   1.01429
    D7        1.04674  -0.00000   0.00000  -0.00000  -0.00000   1.04674
    D8       -0.98561  -0.00000   0.00000  -0.00002  -0.00002  -0.98563
    D9       -3.08479  -0.00000   0.00000  -0.00002  -0.00002  -3.08481
   D10        3.00596   0.00000   0.00000   0.00004   0.00004   3.00600
   D11        0.97361   0.00000   0.00000   0.00002   0.00002   0.97363
   D12       -1.12557   0.00000   0.00000   0.00002   0.00002  -1.12555
   D13       -1.09416   0.00000   0.00000  -0.00000  -0.00000  -1.09417
   D14       -3.12652  -0.00000   0.00000  -0.00002  -0.00002  -3.12654
   D15        1.05749  -0.00000   0.00000  -0.00002  -0.00002   1.05747
   D16        1.09851   0.00000   0.00000   0.00002   0.00002   1.09853
   D17       -3.08589   0.00000   0.00000   0.00003   0.00003  -3.08586
   D18       -0.91964  -0.00000   0.00000   0.00000   0.00000  -0.91964
   D19        0.47552   0.00000   0.00000  -0.00002  -0.00002   0.47551
   D20       -1.56865  -0.00000   0.00000  -0.00005  -0.00005  -1.56870
   D21        1.04563  -0.00000   0.00000  -0.00007  -0.00007   1.04556
   D22       -1.03944  -0.00000   0.00000  -0.00010  -0.00010  -1.03954
   D23       -3.08768  -0.00000   0.00000  -0.00007  -0.00007  -3.08775
   D24        2.86294  -0.00000   0.00000  -0.00005  -0.00005   2.86289
   D25        0.77787  -0.00000   0.00000  -0.00008  -0.00008   0.77779
   D26       -1.27037  -0.00000   0.00000  -0.00005  -0.00005  -1.27042
   D27       -2.08033  -0.00000   0.00000  -0.00001  -0.00001  -2.08034
   D28        0.01038  -0.00000   0.00000  -0.00000  -0.00000   0.01038
   D29        1.83122  -0.00000   0.00000   0.00006   0.00006   1.83128
   D30       -0.00296   0.00000   0.00000   0.00007   0.00007  -0.00288
   D31       -0.95555  -0.00000   0.00000  -0.00001  -0.00001  -0.95557
   D32        1.11614   0.00000   0.00000  -0.00000  -0.00000   1.11614
   D33       -3.08981  -0.00000   0.00000  -0.00000  -0.00000  -3.08982
   D34        1.06741   0.00000   0.00000   0.00000   0.00000   1.06742
   D35        3.13911   0.00000   0.00000   0.00001   0.00001   3.13912
   D36       -1.06685   0.00000   0.00000   0.00001   0.00001  -1.06683
   D37       -3.09964   0.00000   0.00000   0.00001   0.00001  -3.09962
   D38       -1.02794   0.00000   0.00000   0.00002   0.00002  -1.02792
   D39        1.04929   0.00000   0.00000   0.00002   0.00002   1.04931
   D40       -2.91487   0.00000   0.00000   0.00014   0.00014  -2.91473
   D41       -0.76787   0.00000   0.00000   0.00012   0.00012  -0.76776
   D42        1.31377   0.00000   0.00000   0.00013   0.00013   1.31390
   D43        0.87941   0.00000   0.00000   0.00001   0.00001   0.87942
   D44       -1.24036  -0.00000   0.00000   0.00001   0.00001  -1.24034
   D45        3.03954  -0.00000   0.00000   0.00003   0.00003   3.03957
   D46       -1.18221   0.00000   0.00000   0.00001   0.00001  -1.18221
   D47        2.98121  -0.00000   0.00000   0.00001   0.00001   2.98122
   D48        0.97792   0.00000   0.00000   0.00003   0.00003   0.97795
   D49        2.93085   0.00000   0.00000   0.00003   0.00003   2.93088
   D50        0.81109   0.00000   0.00000   0.00003   0.00003   0.81112
   D51       -1.19220   0.00000   0.00000   0.00005   0.00005  -1.19215
   D52       -2.93096   0.00000   0.00000  -0.00005  -0.00005  -2.93102
   D53        1.25889   0.00000   0.00000  -0.00005  -0.00005   1.25885
   D54       -0.89030   0.00000   0.00000  -0.00004  -0.00004  -0.89034
   D55       -0.90953   0.00000   0.00000   0.00003   0.00003  -0.90950
   D56        1.18316   0.00000   0.00000   0.00006   0.00006   1.18321
   D57       -2.99298  -0.00000   0.00000   0.00002   0.00002  -2.99296
   D58        1.19705   0.00000   0.00000   0.00002   0.00002   1.19708
   D59       -2.99344   0.00000   0.00000   0.00004   0.00004  -2.99340
   D60       -0.88640  -0.00000   0.00000   0.00001   0.00001  -0.88639
   D61       -3.09227   0.00000   0.00000   0.00001   0.00001  -3.09225
   D62       -0.99958   0.00000   0.00000   0.00004   0.00004  -0.99954
   D63        1.10747  -0.00000   0.00000  -0.00000  -0.00000   1.10747
   D64       -1.19556   0.00000   0.00000   0.00016   0.00016  -1.19540
   D65        0.71267  -0.00000   0.00000   0.00006   0.00006   0.71273
   D66        0.98544   0.00000   0.00000   0.00020   0.00020   0.98563
   D67        2.89366   0.00000   0.00000   0.00010   0.00010   2.89377
   D68        3.04003   0.00000   0.00000   0.00019   0.00019   3.04022
   D69       -1.33493  -0.00000   0.00000   0.00009   0.00009  -1.33484
   D70        2.98411   0.00000   0.00000   0.00004   0.00004   2.98415
   D71        0.92693   0.00000   0.00000   0.00001   0.00001   0.92694
   D72       -1.11553  -0.00000   0.00000   0.00000   0.00000  -1.11553
   D73       -1.18288   0.00000   0.00000   0.00004   0.00004  -1.18284
   D74        3.04312  -0.00000   0.00000   0.00001   0.00001   3.04313
   D75        1.00066  -0.00000   0.00000   0.00000   0.00000   1.00067
   D76        0.92576   0.00000   0.00000   0.00004   0.00004   0.92580
   D77       -1.13142  -0.00000   0.00000   0.00001   0.00001  -1.13141
   D78        3.10931  -0.00000   0.00000   0.00000   0.00000   3.10931
   D79       -1.22335  -0.00000   0.00000  -0.00026  -0.00026  -1.22361
   D80       -0.86227  -0.00000   0.00000  -0.00015  -0.00015  -0.86242
   D81        1.13119  -0.00000   0.00000  -0.00019  -0.00019   1.13100
   D82       -1.38004   0.00000   0.00000   0.00029   0.00029  -1.37975
   D83        0.44405   0.00000   0.00000   0.00028   0.00028   0.44432
   D84        0.98681  -0.00000   0.00000  -0.00010  -0.00010   0.98672
   D85        3.06542  -0.00000   0.00000  -0.00009  -0.00009   3.06533
   D86       -1.16723  -0.00000   0.00000  -0.00008  -0.00008  -1.16731
   D87       -0.53812  -0.00000   0.00000  -0.00008  -0.00008  -0.53820
   D88        0.63275   0.00000   0.00000   0.00006   0.00006   0.63282
   D89        2.46831  -0.00001   0.00000  -0.00003  -0.00003   2.46828
         Item               Value     Threshold  Converged?
 Maximum Force            0.000015     0.000450     YES
 RMS     Force            0.000003     0.000300     YES
 Maximum Displacement     0.000319     0.001800     YES
 RMS     Displacement     0.000069     0.001200     YES
 Predicted change in Energy=-8.123843D-09
 Optimization completed.
    -- Stationary point found.
                           ----------------------------
                           !   Optimized Parameters   !
                           ! (Angstroms and Degrees)  !
 --------------------------                            --------------------------
 ! Name  Definition              Value          Derivative Info.                !
 --------------------------------------------------------------------------------
 ! R1    R(1,2)                  1.4527         -DE/DX =    0.0                 !
 ! R2    R(1,6)                  1.5258         -DE/DX =    0.0                 !
 ! R3    R(1,25)                 1.0972         -DE/DX =    0.0                 !
 ! R4    R(1,26)                 1.3854         -DE/DX =    0.0                 !
 ! R5    R(2,5)                  1.9926         -DE/DX =    0.0                 !
 ! R6    R(2,9)                  1.4353         -DE/DX =    0.0                 !
 ! R7    R(3,4)                  0.9691         -DE/DX =    0.0                 !
 ! R8    R(4,5)                  0.9782         -DE/DX =    0.0                 !
 ! R9    R(4,27)                 1.8982         -DE/DX =    0.0                 !
 ! R10   R(6,7)                  1.5322         -DE/DX =    0.0                 !
 ! R11   R(6,10)                 1.1032         -DE/DX =    0.0                 !
 ! R12   R(6,14)                 1.4094         -DE/DX =    0.0                 !
 ! R13   R(7,8)                  1.5347         -DE/DX =    0.0                 !
 ! R14   R(7,13)                 1.1017         -DE/DX =    0.0                 !
 ! R15   R(7,15)                 1.4164         -DE/DX =    0.0                 !
 ! R16   R(8,9)                  1.5413         -DE/DX =    0.0                 !
 ! R17   R(8,11)                 1.0951         -DE/DX =    0.0                 !
 ! R18   R(8,16)                 1.4532         -DE/DX =    0.0                 !
 ! R19   R(9,12)                 1.0999         -DE/DX =    0.0                 !
 ! R20   R(9,20)                 1.5339         -DE/DX =    0.0                 !
 ! R21   R(14,18)                0.9735         -DE/DX =    0.0                 !
 ! R22   R(15,17)                0.9847         -DE/DX =    0.0                 !
 ! R23   R(16,19)                0.9742         -DE/DX =    0.0                 !
 ! R24   R(16,30)                1.9035         -DE/DX =    0.0                 !
 ! R25   R(17,28)                1.8192         -DE/DX =    0.0                 !
 ! R26   R(20,21)                1.4158         -DE/DX =    0.0                 !
 ! R27   R(20,22)                1.0947         -DE/DX =    0.0                 !
 ! R28   R(20,23)                1.1026         -DE/DX =    0.0                 !
 ! R29   R(21,24)                0.9725         -DE/DX =    0.0                 !
 ! R30   R(26,27)                0.9837         -DE/DX =    0.0                 !
 ! R31   R(28,29)                0.9696         -DE/DX =    0.0                 !
 ! R32   R(28,30)                0.9798         -DE/DX =    0.0                 !
 ! A1    A(2,1,6)              107.7891         -DE/DX =    0.0                 !
 ! A2    A(2,1,25)             103.3104         -DE/DX =    0.0                 !
 ! A3    A(2,1,26)             111.881          -DE/DX =    0.0                 !
 ! A4    A(6,1,25)             110.5781         -DE/DX =    0.0                 !
 ! A5    A(6,1,26)             110.7087         -DE/DX =    0.0                 !
 ! A6    A(25,1,26)            112.2716         -DE/DX =    0.0                 !
 ! A7    A(1,2,5)               94.0379         -DE/DX =    0.0                 !
 ! A8    A(1,2,9)              113.7232         -DE/DX =    0.0                 !
 ! A9    A(5,2,9)              110.2417         -DE/DX =    0.0                 !
 ! A10   A(3,4,5)              105.1908         -DE/DX =    0.0                 !
 ! A11   A(3,4,27)             119.8362         -DE/DX =    0.0                 !
 ! A12   A(5,4,27)              85.7563         -DE/DX =    0.0                 !
 ! A13   A(2,5,4)              143.0625         -DE/DX =    0.0                 !
 ! A14   A(1,6,7)              110.6078         -DE/DX =    0.0                 !
 ! A15   A(1,6,10)             106.5506         -DE/DX =    0.0                 !
 ! A16   A(1,6,14)             110.3187         -DE/DX =    0.0                 !
 ! A17   A(7,6,10)             107.4162         -DE/DX =    0.0                 !
 ! A18   A(7,6,14)             111.0664         -DE/DX =    0.0                 !
 ! A19   A(10,6,14)            110.7483         -DE/DX =    0.0                 !
 ! A20   A(6,7,8)              109.6537         -DE/DX =    0.0                 !
 ! A21   A(6,7,13)             108.0708         -DE/DX =    0.0                 !
 ! A22   A(6,7,15)             105.5012         -DE/DX =    0.0                 !
 ! A23   A(8,7,13)             109.002          -DE/DX =    0.0                 !
 ! A24   A(8,7,15)             113.2545         -DE/DX =    0.0                 !
 ! A25   A(13,7,15)            111.1901         -DE/DX =    0.0                 !
 ! A26   A(7,8,9)              111.8945         -DE/DX =    0.0                 !
 ! A27   A(7,8,11)             108.58           -DE/DX =    0.0                 !
 ! A28   A(7,8,16)             112.0677         -DE/DX =    0.0                 !
 ! A29   A(9,8,11)             109.8841         -DE/DX =    0.0                 !
 ! A30   A(9,8,16)             109.7453         -DE/DX =    0.0                 !
 ! A31   A(11,8,16)            104.3874         -DE/DX =    0.0                 !
 ! A32   A(2,9,8)              110.0733         -DE/DX =    0.0                 !
 ! A33   A(2,9,12)             109.4596         -DE/DX =    0.0                 !
 ! A34   A(2,9,20)             106.7819         -DE/DX =    0.0                 !
 ! A35   A(8,9,12)             108.741          -DE/DX =    0.0                 !
 ! A36   A(8,9,20)             113.1426         -DE/DX =    0.0                 !
 ! A37   A(12,9,20)            108.5794         -DE/DX =    0.0                 !
 ! A38   A(6,14,18)            104.725          -DE/DX =    0.0                 !
 ! A39   A(7,15,17)            109.2827         -DE/DX =    0.0                 !
 ! A40   A(8,16,19)            107.1875         -DE/DX =    0.0                 !
 ! A41   A(8,16,30)            116.4519         -DE/DX =    0.0                 !
[...]
 .00018673,-0.00009859,0.00013839,0.00027850,-0.00496571,0.00024316,-0.
 00008675,0.00017585,0.00007015,0.00000194,0.00002328,-0.00000185,0.000
 39419,0.00021928,0.00326590,0.04134798,-0.01430293,0.00696476,0.055025
 91,-0.04670971,-0.00370774,0.00081146,-0.00467428,-0.00342839,0.000283
 56,0.00067808,0.00108405,-0.09706952,0.06776925,0.00027399,0.00001634,
 -0.00018114,-0.00141305,0.00095469,-0.00047021,0.00004960,0.00001020,0
 .00005066,-0.00036256,-0.00001342,-0.00028417,0.00032980,0.00004723,0.
 00031589,0.00048853,-0.00059303,-0.00001456,-0.00095870,0.00084894,-0.
 00031533,0.00155195,-0.00688899,-0.00430899,0.00342966,-0.00143759,0.0
 0098753,-0.00003326,0.00009802,-0.00000970,-0.00003608,0.00055668,0.00
 022567,0.00014712,0.00030824,-0.00031450,0.00008810,0.00002493,-0.0000
 7365,-0.00023221,0.00046215,0.00062416,0.00027887,0.00019877,0.0004860
 9,0.00174355,0.00284208,0.00390163,-0.00026174,-0.00003567,-0.00038289
 ,-0.00002114,-0.00016979,-0.00024114,-0.00053111,0.00180369,-0.0023752
 1,0.02445453,-0.00742649,0.00483320,-0.14573960,0.01425969,-0.06095079
 ,0.00182389,-0.00402046,-0.00183193,-0.00101860,-0.00078049,-0.0001592
 1,0.11705254,-0.00136650,0.06008374,-0.12391282,0.10793035,0.03123185,
 0.00323037,-0.00076835,-0.00042187,-0.00010637,-0.00000538,-0.00018607
 ,-0.00020346,0.00007185,0.00018553,-0.00001689,-0.00003818,-0.00004249
 ,-0.01629446,0.02782729,0.00909078,-0.00267755,-0.00333412,-0.00302130
 ,0.00005629,-0.00050776,-0.00108193,0.00077522,-0.00020872,-0.00034708
 ,0.00096383,-0.00037607,0.00036414,-0.00003823,0.00002062,0.00008768,-
 0.00005582,-0.00000974,0.00017595,0.00009615,0.00020867,-0.00001142,0.
 00194827,-0.00126617,0.00008403,-0.00218660,0.00205195,0.00020450,0.00
 011349,0.00024558,0.00058089,-0.00021111,-0.00063898,-0.00018171,-0.00
 002946,-0.00011306,0.00021505,-0.00007325,-0.00003788,-0.00011066,0.00
 016043,0.00005411,-0.00003378,0.00003574,-0.00005433,0.00003055,0.0000
 3359,-0.00001016,0.00005759,-0.00001574,-0.00001397,0.00000396,-0.0000
 3798,0.00001442,-0.00010771,0.12525918,0.10491906,-0.22438651,-0.05173
 443,0.00243086,0.00119598,-0.00498379,-0.00066131,-0.00002987,-0.00050
 635,-0.00007829,0.00152588,0.00056035,0.00037721,-0.00057562,-0.000801
 45,-0.00031688,0.00174280,-0.00081066,-0.00078157,0.00081711,-0.000387
 96,-0.00007535,0.00005916,0.00002515,-0.00089293,0.00225109,0.00037788
 ,0.00058438,0.00092746,0.00021864,0.00005180,-0.00001686,-0.00003202,-
 0.00009648,0.00021423,0.00048812,-0.00024345,0.00028301,-0.00003380,0.
 00004022,0.00034002,0.00062668,0.00001024,0.00017552,0.00012192,0.0000
 4503,-0.00001814,0.00002711,-0.00010925,0.00000788,0.00005027,0.000036
 23,0.00000923,0.00016238,-0.00006480,0.00002180,0.00002291,0.00013812,
 -0.00011646,0.00019233,0.00003052,-0.00004275,-0.00016290,-0.00000771,
 -0.00000539,-0.00000580,0.00002109,0.00003063,-0.00006013,-0.00004046,
 0.00000417,0.00004436,-0.10879306,0.25326021,0.02301828,-0.04779081,-0
 .05753898,0.01984298,-0.03227152,-0.02755607,-0.00037772,-0.00010286,-
 0.00002879,0.00023601,0.00041283,0.00066249,0.00054915,-0.00048044,-0.
 00072469,-0.00567735,0.00945050,0.00596501,-0.00114740,-0.00120239,-0.
 00145226,-0.00082930,-0.00023311,-0.00071587,-0.00096827,0.00327540,-0
 .00529035,0.00055977,-0.00036531,0.00018235,0.00003395,0.00001800,0.00
 006814,0.00005916,-0.00039435,-0.00013718,0.00011713,-0.00001836,0.000
 04872,0.00119634,-0.00029245,0.00114031,-0.00094085,0.00097668,0.00041
 289,0.00066251,-0.00022762,0.00042758,-0.00011638,-0.00022877,-0.00015
 475,0.00016517,-0.00012589,0.00018418,-0.00011235,0.00011506,-0.000169
 96,0.00099641,-0.00177592,0.00081931,0.00017208,-0.00041835,-0.0013346
 7,-0.00007996,-0.00000199,0.00001124,0.00002777,0.00013339,-0.00005503
 ,-0.00022667,0.00009744,0.00006651,-0.03489186,0.05275301,0.07932361,-
 0.13855336,-0.07349791,0.00985333,0.00532165,-0.00649784,0.02362571,0.
 00030939,-0.00066670,-0.00231595,-0.00938280,0.00679755,-0.01231474,-0
 .00474976,-0.00052057,0.00236392,-0.02340155,-0.04042247,0.01651676,0.
 00244200,-0.00056568,-0.00015221,0.00053380,-0.00053994,-0.00137892,0.
 00134560,-0.00383461,-0.00032348,-0.00812483,-0.00039842,-0.00266357,0
 .00021122,-0.00003024,0.00002076,-0.00126376,0.00094530,0.00127546,-0.
 00182864,-0.00040971,0.00056778,0.00084603,0.00053722,-0.00112938,-0.0
 0206807,0.00056391,-0.00002639,-0.00065165,0.00118634,0.00108411,0.000
 81356,-0.00065072,-0.00032634,0.00039464,-0.00033518,0.00053982,-0.000
 11396,-0.00034856,-0.00023379,-0.00039173,0.00000620,-0.00095199,0.000
 11259,0.00046896,0.00086463,0.00014729,-0.00009237,0.00027003,0.000128
 29,0.00012421,0.00003929,-0.00001070,-0.00008943,-0.00039884,0.0110139
 7,0.00068717,-0.00136695,0.55461534,-0.03730215,-0.21463286,0.03908274
 ,-0.01136740,-0.00110768,0.03468138,-0.00043044,0.00024512,-0.00060138
 ,0.00262882,0.00316418,0.00144010,-0.00174868,-0.00146871,0.00009793,-
 0.00975088,-0.00598116,0.00443934,-0.00033701,-0.00240937,-0.00006473,
 0.00038452,0.00046383,-0.00001731,0.00257974,-0.00865271,-0.00291656,0
 .00013080,0.00151817,-0.00035011,0.00053524,0.00002019,-0.00013914,0.0
 0032808,0.00442824,0.00076563,0.00030883,0.00161448,-0.00031607,0.0000
 1953,0.00189851,-0.00080818,-0.00003947,0.00166577,-0.00042331,-0.0009
 3521,0.00103704,0.00014846,-0.00009882,-0.00028239,0.00008317,0.000108
 57,-0.00031807,0.00005959,-0.00022633,-0.00016648,0.00025038,0.0000416
 2,0.00223622,-0.00055821,-0.00016215,0.00078901,0.00125148,-0.00007562
 ,-0.00008439,-0.00009760,0.00012698,0.00011976,-0.00078943,0.00009909,
 -0.00016173,0.00001064,-0.02224055,-0.03794873,0.01913499,0.06307363,0
 .30048989,0.00278584,0.04094871,-0.08401405,0.02504818,0.03923358,-0.0
 4143462,-0.00069976,-0.00008122,-0.00253864,-0.00802193,0.00396195,0.0
 0015933,0.00202092,-0.00104965,0.00093036,-0.00132528,-0.00754203,0.00
 308228,-0.00007672,0.00007672,-0.00121433,-0.00165448,0.00021300,-0.00
 145648,-0.00350136,0.00554610,0.00302824,-0.00282491,-0.00026788,-0.00
 009805,0.00024124,0.00000889,0.00017102,0.00131706,0.00044798,-0.00120
 828,0.00023871,-0.00034745,0.00036480,-0.00127145,-0.00082299,0.002620
 08,-0.00008013,0.00036018,0.00139140,0.00165600,-0.00073436,0.00091135
 ,0.00007992,-0.00009681,-0.00033158,0.00000146,-0.00021517,0.00037104,
 -0.00050535,0.00036881,-0.00040814,0.00047179,0.00118151,0.00130559,0.
 00046152,-0.00090988,-0.00100956,0.00006079,0.00005478,0.00020642,-0.0
 0003487,-0.00009202,-0.00040650,-0.00037024,0.00013696,0.00007962,-0.0
 0139674,0.00174624,0.00652816,0.10054610,-0.11401686,0.17762340,-0.029
 52579,-0.00922066,0.00181871,0.00119284,0.00257694,-0.00718640,-0.0015
 4333,0.00065543,0.00121374,-0.00388423,-0.00237757,0.00378976,0.006014
 28,-0.00111778,0.00015040,0.00036630,-0.00298601,0.00042408,-0.0003076
 1,0.00000784,0.00017043,-0.00049200,0.00042030,0.00024136,-0.00150325,
 0.00095429,0.00081094,0.00000821,0.00024729,-0.00017139,0.00011973,0.0
 0001463,-0.00002235,-0.00011928,0.00025129,0.00069105,-0.00016417,0.00
 022481,-0.00005068,0.00059043,0.00036558,0.00032974,0.00087100,-0.0002
 6290,-0.00001616,0.00047725,-0.00047607,-0.00034308,-0.00022454,0.0002
 9031,0.00007952,-0.00002662,0.00009427,-0.00017043,-0.00011696,0.00019
 728,0.00010136,0.00068603,-0.00006994,0.00077088,-0.00005238,-0.000214
 50,-0.00069414,-0.00012438,0.00003391,-0.00016513,-0.00006154,0.000038
 69,-0.00017914,-0.00006273,0.00004553,0.00026234,0.00228863,0.00280344
 ,-0.00076020,-0.38760101,0.01430635,-0.11283000,0.41320276,-0.04479630
 ,-0.00169655,-0.01222344,0.00259687,-0.00028799,0.00113270,0.00121081,
 -0.00124980,0.00140407,-0.00317067,-0.00352114,-0.00651444,-0.00062064
 ,0.00002439,0.00445472,-0.00187839,-0.00581819,0.00381551,0.00030676,-
 0.00084184,0.00022967,-0.00021013,-0.00024548,0.00005057,0.00016134,0.
 00131433,0.00017568,-0.00182348,0.00011363,-0.00042495,-0.00007351,0.0
 0000130,-0.00010071,0.00028462,-0.00047375,-0.00026659,-0.00013983,0.0
 0055035,-0.00004977,0.00064500,0.00034877,0.00000417,0.00015423,0.0002
 9419,-0.00010622,0.00016124,-0.00012400,0.00000888,-0.00003457,0.00005
 181,-0.00000876,0.00005473,-0.00005298,0.00003158,0.00006986,0.0000526
 5,0.00000646,-0.00021019,0.00004821,-0.00003320,0.00003857,-0.00017503
 ,0.00001241,0.00003066,0.00004317,0.00004979,-0.00001670,-0.00003561,0
 .00008187,0.00000966,0.00002252,-0.00003486,-0.00023286,0.00026999,-0.
 00056178,0.05419342,-0.04658354,0.03173240,-0.00670229,0.05797059,0.01
 763975,-0.00051093,0.00803633,-0.00207376,-0.00041900,-0.00156089,0.00
 013979,-0.00049388,0.00445366,0.00463865,-0.00296590,-0.00508783,0.000
 07641,0.00326873,-0.00606983,0.00034601,0.00294633,-0.00025757,-0.0003
 8236,-0.00000572,0.00058192,-0.00002809,-0.00019450,0.00064440,0.00108
 704,-0.00038672,-0.00108473,0.00088540,0.00036655,0.00018779,-0.000103
 82,0.00002971,-0.00005637,0.00055681,-0.00036712,-0.00001830,-0.000005
 12,0.00020435,-0.00017943,0.00014679,-0.00031207,0.00008486,0.00027126
 ,-0.00006520,-0.00043557,-0.00034327,0.00004567,-0.00045881,-0.0001127
 0,0.00010831,0.00012574,-0.00004997,0.00001330,0.00006609,0.00015639,-
 0.00003810,0.00018678,0.00039995,-0.00014878,-0.00006492,-0.00032000,0
 .00016443,0.00013043,-0.00013393,0.00005927,-0.00026727,-0.00011182,-0
 .00003400,0.00004991,0.00011154,-0.00002023,0.00008982,-0.00056302,0.0
 0210717,-0.00071558,-0.13412027,0.01958838,-0.06466810,0.11179005,-0.0
 2286746,0.06630298,0.00058911,0.00021288,-0.00020303,-0.00111144,0.000
 57736,0.00013580,0.00010276,0.00000805,0.00000532,-0.00047511,0.000010
 04,-0.00009529,0.00042257,-0.00003957,0.00007107,-0.00015036,-0.000555
 98,-0.00046605,0.00276837,0.00029739,0.00114402,0.00014771,-0.00370099
 ,-0.00157839,0.00086749,0.00033479,0.00029172,-0.00003703,0.00006069,0
 .00001886,-0.00006527,0.00036142,0.00001523,0.00006431,0.00003069,-0.0
 0003966,0.00009396,-0.00010366,-0.00026107,-0.00038105,0.00051482,0.00
 074680,-0.00374760,0.01115961,0.00445392,-0.01027756,0.00588043,-0.007
 20892,-0.00644024,-0.00463619,-0.00394299,0.00018822,-0.00037715,-0.00
 076687,0.00099967,0.00065692,0.00071571,0.00003988,-0.00033249,0.00039
 588,-0.00034949,0.00017320,-0.00094170,-0.00011547,0.00005931,-0.00011
 912,0.00004371,0.00008664,-0.00003208,0.00007720,-0.00003171,0.0012164
 0,-0.00021498,0.00006131,0.00001303,-0.00060789,-0.00012907,0.00023238
 ,0.00030341,-0.00001250,0.00000189,0.60196314,-0.00079052,-0.00072689,
 -0.00077466,0.00036596,0.00014664,0.00036182,-0.00010562,-0.00001849,-
 0.00001896,0.00042008,0.00003436,0.00017134,-0.00032681,0.00000321,-0.
 00011083,0.00144282,0.00063565,0.00056736,-0.00629659,-0.00270812,-0.0
 0273311,-0.00008812,-0.00060454,-0.00066465,-0.00058214,0.00012506,0.0
 0038279,-0.00015242,0.00018632,0.00003809,-0.00015441,0.00026403,-0.00
 021139,0.00013096,0.00003759,0.00000947,0.00113848,0.00061897,0.000201
 18,0.00073301,-0.00034775,-0.00028263,0.01481330,-0.00951711,-0.005804
 50,0.00190450,0.00444319,0.00166911,-0.00763613,-0.00318265,0.00470856
 ,-0.00066759,0.00048338,0.00112203,0.00192204,-0.00128869,0.00050118,0
 .00031004,-0.00028647,-0.00048375,-0.00006334,0.00038845,0.00051902,0.
 00006514,-0.00000153,0.00015325,-0.00001668,0.00004917,0.00001993,0.00
 004213,-0.00022441,-0.00044163,0.00035351,-0.00001019,0.00011762,0.000
 78431,0.00031465,0.00000904,-0.00029589,-0.00001959,-0.00008095,0.1088
 9801,0.12317730,-0.00021842,-0.00033350,-0.00136601,-0.00075698,0.0006
 8940,0.00079323,-0.00001482,-0.00000554,-0.00002906,0.00000666,0.00001
 028,0.00016298,0.00007674,-0.00002362,-0.00008937,0.00107627,0.0000900
 7,0.00014840,-0.00449363,-0.00143006,-0.00249886,0.00066812,-0.0038314
 0,-0.00247867,0.00037693,0.00038339,0.00074303,-0.00010152,0.00005985,
 0.00004922,-0.00004909,0.00014259,0.00003123,0.00006848,0.00003530,-0.
 00005519,0.00045523,0.00036801,0.00015634,0.00040061,-0.00008880,0.000
 56503,0.00969730,-0.00785385,0.00167249,-0.00786125,0.00404603,0.00102
 076,-0.00626777,0.00252591,-0.00394373,-0.00047707,0.00036232,0.000411
 96,-0.00056995,0.00049370,-0.00071170,0.00044695,-0.00055225,-0.000240
 09,-0.00045867,0.00047510,-0.00010725,-0.00007411,0.00004689,0.0000589
 6,0.00001599,0.00005637,0.00003052,0.00031006,-0.00017396,0.00048699,0
 .00018431,0.00001660,0.00016493,0.00023699,0.00001341,0.00038822,-0.00
 005793,0.00000132,-0.00014423,0.09465258,-0.13809905,0.38275048,-0.000
 16095,-0.00008740,-0.00003173,0.00014010,-0.00005426,-0.00001168,-0.00
 002546,-0.00000289,-0.00000131,0.00010640,-0.00000117,0.00002537,-0.00
 008908,0.00000941,-0.00001620,0.00011265,0.00015947,0.00014923,-0.0008
 4748,-0.00036178,-0.00033553,-0.00011142,0.00002608,0.00001320,-0.0001
 5056,0.00010341,0.00004589,-0.00001621,0.00001222,0.00000503,-0.000045
 53,0.00010298,-0.00006301,0.00003387,-0.00000310,0.00001263,0.00014485
 ,0.00011269,0.00002500,0.00010097,-0.00010423,-0.00014467,0.00188661,-
 0.00043807,-0.00059328,-0.00010723,0.00067436,-0.00079957,-0.00331129,
 0.00046869,0.00191015,-0.00007664,0.00010316,0.00017578,0.00024049,-0.
 00009034,0.00011339,0.00003339,-0.00000961,-0.00007066,0.00002706,0.00
 001247,0.00006747,0.00002605,-0.00000341,0.00002812,-0.00000958,0.0000
 0379,-0.00000157,-0.00006605,-0.00000301,-0.00008591,0.00006029,-0.000
 01025,0.00000749,0.00015354,0.00004132,-0.00003542,-0.00007010,0.00000
 195,-0.00000575,-0.41051270,-0.14523487,0.06681644,0.43675463,0.000147
 08,0.00007642,0.00005949,-0.00006434,-0.00003143,-0.00004106,0.0000210
 1,0.00000501,0.00000280,-0.00007886,-0.00000756,-0.00002791,0.00006192
 ,-0.00000020,0.00001722,-0.00009474,-0.00002849,-0.00011005,0.00045960
 ,0.00021881,0.00025701,0.00008884,0.00043817,0.00001680,0.00008031,-0.
 00009007,-0.00004014,0.00002752,-0.00003935,0.00000664,0.00004423,-0.0
 0011581,0.00008297,-0.00004428,-0.00000921,-0.00000586,-0.00020899,-0.
 00007462,-0.00000051,-0.00007367,0.00001171,0.00006629,-0.00101689,-0.
 00227959,-0.00018935,0.00065722,-0.00077299,0.00066680,0.00319891,0.00
 330678,-0.00015315,0.00007923,-0.00002665,-0.00010188,-0.00011023,0.00
 003695,-0.00000534,-0.00003960,0.00010846,0.00008691,0.00002950,-0.000
 11069,-0.00006896,-0.00001493,-0.00000697,-0.00002362,0.00000135,-0.00
 002695,0.00000104,-0.00000236,0.00006940,0.00004064,-0.00003673,0.0000
 0113,-0.00000920,-0.00013210,-0.00005302,0.00000908,0.00005279,0.00000
 427,0.00001275,-0.17268044,-0.07313875,0.04579586,0.15893774,0.0701565
 6,0.00001574,0.00003146,0.00010423,-0.00000363,-0.00004391,-0.00011841
 ,-0.00000128,0.00000032,0.00000731,0.00000616,-0.00000573,-0.00002259,
 -0.00000917,0.00000813,0.00001451,-0.00007939,-0.00002166,0.00007084,0
 .00005981,0.00028895,0.00012617,-0.00025543,-0.00009167,-0.00012272,-0
 .00000354,0.00011089,0.00003908,0.00002466,-0.00000865,-0.00001397,-0.
 00001444,0.00007558,0.00001712,0.00000834,-0.00000934,0.00000534,-0.00
 016067,-0.00002468,0.00000797,-0.00002059,-0.00003153,-0.00013257,-0.0
 0060526,-0.00160492,-0.00050733,-0.00136647,0.00123669,-0.00133108,0.0
 0285197,0.00300930,0.00014601,0.00006443,0.00000658,0.00005667,0.00031
 241,-0.00005508,0.00009452,-0.00004909,0.00004191,0.00007660,0.0000493
 1,-0.00005249,-0.00012050,0.00001417,-0.00000111,-0.00001096,-0.000001
 93,0.00000655,-0.00001045,-0.00009425,0.00001678,0.00009448,-0.0000037
 5,-0.00000808,-0.00000735,-0.00000338,-0.00001111,-0.00004733,-0.00000
 205,0.00000382,0.00001929,0.11963053,0.05978584,-0.06959559,-0.0824137
 7,-0.04695424,0.06150708,-0.00038389,0.00005633,0.00140082,0.00186325,
 -0.00121467,-0.00078553,-0.00008477,-0.00000307,0.00000999,0.00045271,
 -0.00000748,-0.00002470,-0.00047813,0.00004849,-0.00000794,-0.00079656
 ,0.00061285,0.00023790,0.00256023,-0.00007351,0.00165443,-0.00114764,0
 .00855156,0.00372758,-0.00120931,-0.00070790,-0.00104719,0.00010309,-0
 .00014711,-0.00003396,0.00019972,-0.00074901,-0.00006200,-0.00011866,-
 0.00005472,0.00010305,-0.00046957,-0.00025053,0.00010445,-0.00007771,-
 0.00041102,-0.00113229,-0.00455133,0.00216480,-0.00057220,0.00184401,-
 0.00799230,0.00167778,0.00622118,-0.00321102,0.00061645,0.00027252,0.0
 0000828,0.00012147,-0.00326560,-0.00107915,-0.00159707,-0.00036646,0.0
 0075159,-0.00033186,0.00074032,-0.00047338,0.00127582,0.00015878,-0.00
 009783,0.00009402,-0.00005662,-0.00014484,0.00002890,-0.00027892,0.000
 11500,-0.00199037,0.00003925,-0.00006487,-0.00016199,0.00036081,0.0001
 3068,-0.00053327,-0.00024093,0.00000235,0.00010615,-0.17418533,0.02908
 683,-0.15408842,-0.02422064,0.01071090,-0.03794943,0.19711622,0.000365
 82,0.00015880,-0.00017965,-0.00042992,0.00022330,0.00010729,0.00005226
 ,0.00000842,0.00000215,-0.00022944,-0.00001558,-0.00003972,0.00021198,
 -0.00001318,0.00002774,0.00006212,-0.00028452,-0.00013372,0.00199886,0
 .00034321,-0.00040317,0.00243350,-0.00180257,0.00036567,0.00043633,-0.
 00024858,-0.00006061,0.00000752,-0.00003983,0.00000131,0.00019834,-0.0
 0029564,0.00018683,-0.00007095,0.00001703,-0.00002301,-0.00026451,-0.0
 0015141,-0.00001438,-0.00020719,0.00021151,0.00045771,-0.00089012,-0.0
 0000009,0.00215946,-0.00150926,-0.00598023,-0.00082020,-0.00109622,-0.
 00019795,-0.00616081,0.00010173,-0.00013056,-0.00034932,-0.00399859,0.
 00229659,-0.00097553,-0.00002241,-0.00001026,0.00025034,-0.00018285,-0
 .00010182,-0.00053242,-0.00006503,0.00001161,-0.00007699,0.00001857,-0
 .00002010,-0.00000333,0.00007127,0.00017107,0.00068161,-0.00009227,0.0
 0001324,0.00001620,-0.00033575,-0.00015422,0.00014039,0.00014265,0.000
 01531,-0.00000440,0.05321618,-0.03883278,0.09677964,-0.01436536,0.0023
 7870,-0.01569860,-0.03555726,0.04243057,0.00008651,0.00010395,0.001060
 11,0.00090762,-0.00064675,-0.00058614,-0.00000403,0.00000302,0.0000177
 3,0.00006707,0.00000230,-0.00010690,-0.00013181,0.00001344,0.00005236,
 -0.00031364,0.00016996,-0.00017376,0.00359428,-0.00088255,0.00133933,0
 .00150757,0.00381549,0.00285702,-0.00044427,-0.00071902,-0.00085462,0.
 00001481,0.00004818,0.00001190,-0.00004863,-0.00014693,-0.00000615,-0.
 00006772,-0.00000310,0.00003592,-0.00008604,-0.00002646,-0.00028445,-0
 .00026555,0.00003790,-0.00033361,-0.00335876,0.00274561,0.00131832,-0.
 00060527,-0.00308362,-0.00678753,0.00162202,-0.00505153,-0.00715541,0.
 00026613,-0.00022707,-0.00029647,0.00146232,-0.00063172,0.00115424,-0.
 00031557,0.00042606,0.00011058,0.00033699,-0.00034340,0.00008516,0.000
 07052,-0.00004667,-0.00002883,-0.00001703,-0.00004408,-0.00001706,-0.0
 0037656,0.00016484,-0.00041257,-0.00009545,-0.00001374,-0.00012388,-0.
 00009848,0.00006236,-0.00032562,0.00000470,-0.00000344,0.00010945,-0.2
 0808597,0.07936848,-0.30837503,0.01521485,0.00060897,0.00965364,0.1891
 5940,-0.07570048,0.30806228\\0.00001014,0.00000522,0.00000127,0.000002
 88,-0.00000599,0.00000376,0.00000066,0.00000794,0.00000497,-0.00000763
 ,0.00000103,0.00000914,0.00001038,0.00000742,0.00000295,-0.00000227,-0
 .00000383,-0.00000551,0.00000258,-0.00000137,-0.00000335,-0.00000725,-
 0.00000042,0.00000695,-0.00000005,0.00000237,0.00000562,0.00000391,0.0
 0000042,0.00000187,0.00000303,0.00000170,0.00000048,-0.00000229,0.0000
 0605,-0.00000660,0.00000073,-0.00000361,0.00000060,-0.00000255,0.00000
 117,0.00000469,0.00000556,0.00000418,-0.00000498,-0.00000057,-0.000004
 03,-0.00000190,-0.00000023,-0.00002187,-0.00000634,0.00000822,-0.00000
 984,-0.00000129,0.00000752,0.00000053,0.00000088,-0.00001169,0.0000019
 8,-0.00000021,0.00000151,0.00000539,-0.00000276,-0.00000309,0.00000797
 ,0.00000385,0.00000154,0.00000578,-0.00000291,-0.00000241,-0.00000244,
 -0.00000185,0.00000351,-0.00000100,0.00000724,-0.00000238,0.00000058,-
 0.00000016,0.00000464,0.00000564,0.00000205,0.00000661,-0.00001393,0.0
 0000510,-0.00000557,-0.00000015,-0.00000372,-0.00002548,0.00000311,-0.
 00001984\\\@


 IF NO USE IS MADE OF THE LABOR OF PAST AGES,
 THE WORLD MUST REMAIN ALWAYS IN THE INFANCY OF KNOWLEDGE.

                          -- CICERO
 Job cpu time:       0 days  0 hours 32 minutes 11.4 seconds.
 File lengths (MBytes):  RWF=    221 Int=      0 D2E=      0 Chk=      6 Scr=      1
 Normal termination of Gaussian 09 at Sun Jan 15 12:47:10 2017.
