 Entering Gaussian System, Link 0=g09
 Initial command:
 /global/software/gaussian/g09.e01/l1.exe "/scratch/10462966.yak.local/Gau-8409.inp" -scrdir="/scratch/10462966.yak.local/"
 Entering Link 1 = /global/software/gaussian/g09.e01/l1.exe PID=      8410.
  
 Copyright (c) 1988,1990,1992,1993,1995,1998,2003,2009,2015,
            Gaussian, Inc.  All Rights Reserved.
  
 This is part of the Gaussian(R) 09 program.  It is based on
 the Gaussian(R) 03 system (copyright 2003, Gaussian, Inc.),
 the Gaussian(R) 98 system (copyright 1998, Gaussian, Inc.),
 the Gaussian(R) 94 system (copyright 1995, Gaussian, Inc.),
 the Gaussian 92(TM) system (copyright 1992, Gaussian, Inc.),
 the Gaussian 90(TM) system (copyright 1990, Gaussian, Inc.),
 the Gaussian 88(TM) system (copyright 1988, Gaussian, Inc.),
 the Gaussian 86(TM) system (copyright 1986, Carnegie Mellon
 University), and the Gaussian 82(TM) system (copyright 1983,
 Carnegie Mellon University). Gaussian is a federally registered
 trademark of Gaussian, Inc.
  
 This software contains proprietary and confidential information,
 including trade secrets, belonging to Gaussian, Inc.
  
 This software is provided under written license and may be
 used, copied, transmitted, or stored only in accord with that
 written license.
  
 The following legend is applicable only to US Government
 contracts under FAR:
  
                    RESTRICTED RIGHTS LEGEND
  
 Use, reproduction and disclosure by the US Government is
 subject to restrictions as set forth in subparagraphs (a)
 and (c) of the Commercial Computer Software - Restricted
 Rights clause in FAR 52.227-19.
  
 Gaussian, Inc.
 340 Quinnipiac St., Bldg. 40, Wallingford CT 06492
  
  
 ---------------------------------------------------------------
 Warning -- This program may not be used in any manner that
 competes with the business of Gaussian, Inc. or will provide
 assistance to any competitor of Gaussian, Inc.  The licensee
 of this program is prohibited from giving any competitor of
 Gaussian, Inc. access to this program.  By using this program,
 the user acknowledges that Gaussian, Inc. is engaged in the
 business of creating and licensing software in the field of
 computational chemistry and represents and warrants to the
 licensee that it is not a competitor of Gaussian, Inc. and that
 it will not use this program in any manner prohibited above.
 ---------------------------------------------------------------
  

 Cite this work as:
 Gaussian 09, Revision E.01,
 M. J. Frisch, G. W. Trucks, H. B. Schlegel, G. E. Scuseria, 
 M. A. Robb, J. R. Cheeseman, G. Scalmani, V. Barone, B. Mennucci, 
 G. A. Petersson, H. Nakatsuji, M. Caricato, X. Li, H. P. Hratchian, 
 A. F. Izmaylov, J. Bloino, G. Zheng, J. L. Sonnenberg, M. Hada, 
 M. Ehara, K. Toyota, R. Fukuda, J. Hasegawa, M. Ishida, T. Nakajima, 
 Y. Honda, O. Kitao, H. Nakai, T. Vreven, J. A. Montgomery, Jr., 
 J. E. Peralta, F. Ogliaro, M. Bearpark, J. J. Heyd, E. Brothers, 
 K. N. Kudin, V. N. Staroverov, T. Keith, R. Kobayashi, J. Normand, 
 K. Raghavachari, A. Rendell, J. C. Burant, S. S. Iyengar, J. Tomasi, 
 M. Cossi, N. Rega, J. M. Millam, M. Klene, J. E. Knox, J. B. Cross, 
 V. Bakken, C. Adamo, J. Jaramillo, R. Gomperts, R. E. Stratmann, 
 O. Yazyev, A. J. Austin, R. Cammi, C. Pomelli, J. W. Ochterski, 
 R. L. Martin, K. Morokuma, V. G. Zakrzewski, G. A. Voth, 
 P. Salvador, J. J. Dannenberg, S. Dapprich, A. D. Daniels, 
 O. Farkas, J. B. Foresman, J. V. Ortiz, J. Cioslowski, 
 and D. J. Fox, Gaussian, Inc., Wallingford CT, 2013.
 
 ******************************************
 Gaussian 09:  ES64L-G09RevE.01 30-Nov-2015
                15-Jan-2017 
 ******************************************
 %NPROCS=4
 Will use up to    4 processors via shared memory.
 -----------------------------------------
 # opt=(MaxCycle=1000) freq B3LYP/6-31G(d)
 -----------------------------------------
 1/6=1000,14=-1,18=20,19=15,26=3,38=1/1,3;
 2/9=110,12=2,17=6,18=5,40=1/2;
 3/5=1,6=6,7=1,11=2,16=1,25=1,30=1,71=1,74=-5/1,2,3;
 4//1;
 5/5=2,38=5/2;
 6/7=2,8=2,9=2,10=2,28=1/1;
 7//1,2,3,16;
 1/6=1000,14=-1,18=20,19=15,26=3/3(2);
 2/9=110/2;
 99//99;
 2/9=110/2;
 3/5=1,6=6,7=1,11=2,16=1,25=1,30=1,71=1,74=-5/1,2,3;
 4/5=5,16=3,69=1/1;
 5/5=2,38=5/2;
 7//1,2,3,16;
 1/6=1000,14=-1,18=20,19=15,26=3/3(-5);
 2/9=110/2;
 6/7=2,8=2,9=2,10=2,19=2,28=1/1;
 99/9=1/99;
 -------------------------------------------------
 ./chairs/1/glo_1w_beta_ircf_chair_B3LYP_631Gd.out
 -------------------------------------------------
 Symbolic Z-matrix:
 Charge =  0 Multiplicity = 1
 C                     0.12873   1.63195  -1.90969 
 O                    -0.30461   1.774     0.66399 
 H                     3.08805   1.74105   0.26531 
 O                     0.83268   2.62418  -1.91013 
 H                     2.11041   2.61645  -0.55178 
 O                     2.37969   2.394     0.36805 
 H                     0.66388   1.95137   0.74212 
 C                     0.65339   0.21444  -1.70529 
 C                    -0.24166  -0.73402  -0.85595 
 C                    -0.00019  -0.66946   0.66953 
 C                    -0.62377   0.57439   1.33737 
 C                    -0.23981   0.72023   2.81665 
 O                    -0.68259  -0.43917   3.53971 
 O                     0.70315  -0.26891  -3.03716 
 O                     0.07701  -2.03215  -1.3408 
 O                    -0.57693  -1.84877   1.25029 
 H                    -0.93163   1.68985  -2.22021 
 H                     1.66282   0.26604  -1.26841 
 H                     0.53187  -1.23006  -2.94016 
 H                    -0.69527  -2.62376  -1.16775 
 H                    -0.62714  -1.68478   2.21461 
 H                     1.08886  -0.68282   0.84582 
 H                    -1.7133    0.46228   1.27299 
 H                    -0.71244   1.629     3.20965 
 H                     0.85192   0.83587   2.89712 
 H                    -0.29628  -0.42336   4.4279 
 O                    -2.06506  -3.4432   -0.39618 
 H                    -1.75733  -4.34734  -0.22814 
 H                    -1.30103  -0.50712  -1.05776 
 H                    -1.76025  -2.93432   0.38876 
 
 Add virtual bond connecting atoms O27        and H20        Dist= 3.35D+00.
 Add virtual bond connecting atoms H30        and O16        Dist= 3.44D+00.
 Add virtual bond connecting atoms H30        and H20        Dist= 3.61D+00.
 Add virtual bond connecting atoms O4         and H5         Dist= 3.52D+00.
 Add virtual bond connecting atoms H7         and O6         Dist= 3.42D+00.

 GradGradGradGradGradGradGradGradGradGradGradGradGradGradGradGradGradGrad
 Berny optimization.
 Initialization pass.
                           ----------------------------
                           !    Initial Parameters    !
                           ! (Angstroms and Degrees)  !
 --------------------------                            --------------------------
 ! Name  Definition              Value          Derivative Info.                !
 --------------------------------------------------------------------------------
 ! R1    R(1,4)                  1.2166         estimate D2E/DX2                !
 ! R2    R(1,8)                  1.5252         estimate D2E/DX2                !
 ! R3    R(1,17)                 1.1064         estimate D2E/DX2                !
 ! R4    R(2,7)                  0.9877         estimate D2E/DX2                !
 ! R5    R(2,11)                 1.4122         estimate D2E/DX2                !
 ! R6    R(3,6)                  0.9689         estimate D2E/DX2                !
 ! R7    R(4,5)                  1.8649         estimate D2E/DX2                !
 ! R8    R(5,6)                  0.9839         estimate D2E/DX2                !
 ! R9    R(6,7)                  1.811          estimate D2E/DX2                !
 ! R10   R(8,9)                  1.5563         estimate D2E/DX2                !
 ! R11   R(8,14)                 1.4177         estimate D2E/DX2                !
 ! R12   R(8,18)                 1.1011         estimate D2E/DX2                !
 ! R13   R(9,10)                 1.5458         estimate D2E/DX2                !
 ! R14   R(9,15)                 1.4219         estimate D2E/DX2                !
 ! R15   R(9,29)                 1.102          estimate D2E/DX2                !
 ! R16   R(10,11)                1.5434         estimate D2E/DX2                !
 ! R17   R(10,16)                1.4355         estimate D2E/DX2                !
 ! R18   R(10,22)                1.1033         estimate D2E/DX2                !
 ! R19   R(11,12)                1.5352         estimate D2E/DX2                !
 ! R20   R(11,23)                1.0972         estimate D2E/DX2                !
 ! R21   R(12,13)                1.4363         estimate D2E/DX2                !
 ! R22   R(12,24)                1.0971         estimate D2E/DX2                !
 ! R23   R(12,25)                1.1008         estimate D2E/DX2                !
 ! R24   R(13,26)                0.9687         estimate D2E/DX2                !
 ! R25   R(14,19)                0.9811         estimate D2E/DX2                !
 ! R26   R(15,20)                0.9881         estimate D2E/DX2                !
 ! R27   R(16,21)                0.9795         estimate D2E/DX2                !
 ! R28   R(16,30)                1.8223         estimate D2E/DX2                !
 ! R29   R(20,27)                1.7729         estimate D2E/DX2                !
 ! R30   R(20,30)                1.9114         estimate D2E/DX2                !
 ! R31   R(27,28)                0.9697         estimate D2E/DX2                !
 ! R32   R(27,30)                0.9839         estimate D2E/DX2                !
 ! A1    A(4,1,8)              123.9859         estimate D2E/DX2                !
 ! A2    A(4,1,17)             120.7815         estimate D2E/DX2                !
 ! A3    A(8,1,17)             114.5768         estimate D2E/DX2                !
 ! A4    A(7,2,11)             109.6595         estimate D2E/DX2                !
 ! A5    A(1,4,5)              113.1293         estimate D2E/DX2                !
 ! A6    A(4,5,6)              150.3888         estimate D2E/DX2                !
 ! A7    A(3,6,5)              104.6748         estimate D2E/DX2                !
 ! A8    A(3,6,7)              123.3586         estimate D2E/DX2                !
 ! A9    A(5,6,7)               89.3733         estimate D2E/DX2                !
 ! A10   A(2,7,6)              163.0482         estimate D2E/DX2                !
 ! A11   A(1,8,9)              116.2118         estimate D2E/DX2                !
 ! A12   A(1,8,14)             101.714          estimate D2E/DX2                !
 ! A13   A(1,8,18)             108.963          estimate D2E/DX2                !
 ! A14   A(9,8,14)             108.9717         estimate D2E/DX2                !
 ! A15   A(9,8,18)             109.8314         estimate D2E/DX2                !
 ! A16   A(14,8,18)            110.8872         estimate D2E/DX2                !
 ! A17   A(8,9,10)             115.0413         estimate D2E/DX2                !
 ! A18   A(8,9,15)             103.9693         estimate D2E/DX2                !
 ! A19   A(8,9,29)             109.113          estimate D2E/DX2                !
 ! A20   A(10,9,15)            109.8539         estimate D2E/DX2                !
 ! A21   A(10,9,29)            108.8007         estimate D2E/DX2                !
 ! A22   A(15,9,29)            109.9359         estimate D2E/DX2                !
 ! A23   A(9,10,11)            113.4259         estimate D2E/DX2                !
 ! A24   A(9,10,16)            107.5882         estimate D2E/DX2                !
 ! A25   A(9,10,22)            108.1415         estimate D2E/DX2                !
 ! A26   A(11,10,16)           108.9475         estimate D2E/DX2                !
 ! A27   A(11,10,22)           109.8423         estimate D2E/DX2                !
 ! A28   A(16,10,22)           108.783          estimate D2E/DX2                !
 ! A29   A(2,11,10)            112.7651         estimate D2E/DX2                !
 ! A30   A(2,11,12)            108.7977         estimate D2E/DX2                !
 ! A31   A(2,11,23)            106.4538         estimate D2E/DX2                !
 ! A32   A(10,11,12)           113.107          estimate D2E/DX2                !
 ! A33   A(10,11,23)           107.0664         estimate D2E/DX2                !
 ! A34   A(12,11,23)           108.3367         estimate D2E/DX2                !
 ! A35   A(11,12,13)           109.3464         estimate D2E/DX2                !
 ! A36   A(11,12,24)           108.4271         estimate D2E/DX2                !
 ! A37   A(11,12,25)           109.1752         estimate D2E/DX2                !
 ! A38   A(13,12,24)           110.8233         estimate D2E/DX2                !
 ! A39   A(13,12,25)           110.7157         estimate D2E/DX2                !
 ! A40   A(24,12,25)           108.303          estimate D2E/DX2                !
 ! A41   A(12,13,26)           108.9933         estimate D2E/DX2                !
 ! A42   A(8,14,19)            103.591          estimate D2E/DX2                !
 ! A43   A(9,15,20)            108.1637         estimate D2E/DX2                !
 ! A44   A(10,16,21)           106.3417         estimate D2E/DX2                !
 ! A45   A(10,16,30)           123.9866         estimate D2E/DX2                !
 ! A46   A(21,16,30)           122.1344         estimate D2E/DX2                !
 ! A47   A(15,20,27)           163.1016         estimate D2E/DX2                !
 ! A48   A(15,20,30)           132.4832         estimate D2E/DX2                !
 ! A49   A(20,27,28)           105.1396         estimate D2E/DX2                !
 ! A50   A(28,27,30)           104.2217         estimate D2E/DX2                !
 ! A51   A(16,30,20)            85.7792         estimate D2E/DX2                !
 ! A52   A(16,30,27)           152.4306         estimate D2E/DX2                !
 ! D1    D(8,1,4,5)            -43.1052         estimate D2E/DX2                !
 ! D2    D(17,1,4,5)           146.6882         estimate D2E/DX2                !
 ! D3    D(4,1,8,9)            141.6157         estimate D2E/DX2                !
 ! D4    D(4,1,8,14)          -100.2104         estimate D2E/DX2                !
 ! D5    D(4,1,8,18)            16.9351         estimate D2E/DX2                !
 ! D6    D(17,1,8,9)           -47.6315         estimate D2E/DX2                !
 ! D7    D(17,1,8,14)           70.5425         estimate D2E/DX2                !
 ! D8    D(17,1,8,18)         -172.312          estimate D2E/DX2                !
 ! D9    D(11,2,7,6)           136.2687         estimate D2E/DX2                !
 ! D10   D(7,2,11,10)          -66.4171         estimate D2E/DX2                !
 ! D11   D(7,2,11,12)           59.9122         estimate D2E/DX2                !
 ! D12   D(7,2,11,23)          176.4665         estimate D2E/DX2                !
 ! D13   D(1,4,5,6)            -35.9434         estimate D2E/DX2                !
 ! D14   D(4,5,6,3)            115.5618         estimate D2E/DX2                !
 ! D15   D(4,5,6,7)             -8.8814         estimate D2E/DX2                !
 ! D16   D(3,6,7,2)           -104.6322         estimate D2E/DX2                !
 ! D17   D(5,6,7,2)              2.5925         estimate D2E/DX2                !
 ! D18   D(1,8,9,10)           -87.1942         estimate D2E/DX2                !
 ! D19   D(1,8,9,15)           152.6403         estimate D2E/DX2                !
 ! D20   D(1,8,9,29)            35.3781         estimate D2E/DX2                !
 ! D21   D(14,8,9,10)          158.6925         estimate D2E/DX2                !
 ! D22   D(14,8,9,15)           38.527          estimate D2E/DX2                !
 ! D23   D(14,8,9,29)          -78.7352         estimate D2E/DX2                !
 ! D24   D(18,8,9,10)           37.0407         estimate D2E/DX2                !
 ! D25   D(18,8,9,15)          -83.1248         estimate D2E/DX2                !
 ! D26   D(18,8,9,29)          159.613          estimate D2E/DX2                !
 ! D27   D(1,8,14,19)         -149.0166         estimate D2E/DX2                !
 ! D28   D(9,8,14,19)          -25.7678         estimate D2E/DX2                !
 ! D29   D(18,8,14,19)          95.2404         estimate D2E/DX2                !
 ! D30   D(8,9,10,11)           76.7232         estimate D2E/DX2                !
 ! D31   D(8,9,10,16)         -162.7083         estimate D2E/DX2                !
 ! D32   D(8,9,10,22)          -45.366          estimate D2E/DX2                !
 ! D33   D(15,9,10,11)        -166.406          estimate D2E/DX2                !
 ! D34   D(15,9,10,16)         -45.8376         estimate D2E/DX2                !
 ! D35   D(15,9,10,22)          71.5048         estimate D2E/DX2                !
 ! D36   D(29,9,10,11)         -46.0165         estimate D2E/DX2                !
 ! D37   D(29,9,10,16)          74.552          estimate D2E/DX2                !
 ! D38   D(29,9,10,22)        -168.1056         estimate D2E/DX2                !
 ! D39   D(8,9,15,20)         -154.8567         estimate D2E/DX2                !
 ! D40   D(10,9,15,20)          81.5318         estimate D2E/DX2                !
 ! D41   D(29,9,15,20)         -38.1678         estimate D2E/DX2                !
 ! D42   D(9,10,11,2)          -49.1327         estimate D2E/DX2                !
 ! D43   D(9,10,11,12)        -173.1183         estimate D2E/DX2                !
 ! D44   D(9,10,11,23)          67.6207         estimate D2E/DX2                !
 ! D45   D(16,10,11,2)        -168.9297         estimate D2E/DX2                !
 ! D46   D(16,10,11,12)         67.0847         estimate D2E/DX2                !
 ! D47   D(16,10,11,23)        -52.1763         estimate D2E/DX2                !
 ! D48   D(22,10,11,2)          72.0055         estimate D2E/DX2                !
 ! D49   D(22,10,11,12)        -51.9802         estimate D2E/DX2                !
 ! D50   D(22,10,11,23)       -171.2412         estimate D2E/DX2                !
 ! D51   D(9,10,16,21)        -165.4881         estimate D2E/DX2                !
 ! D52   D(9,10,16,30)         -15.4711         estimate D2E/DX2                !
 ! D53   D(11,10,16,21)        -42.1365         estimate D2E/DX2                !
 ! D54   D(11,10,16,30)        107.8806         estimate D2E/DX2                !
 ! D55   D(22,10,16,21)         77.5874         estimate D2E/DX2                !
 ! D56   D(22,10,16,30)       -132.3955         estimate D2E/DX2                !
 ! D57   D(2,11,12,13)         174.1924         estimate D2E/DX2                !
 ! D58   D(2,11,12,24)          53.2548         estimate D2E/DX2                !
 ! D59   D(2,11,12,25)         -64.5411         estimate D2E/DX2                !
 ! D60   D(10,11,12,13)        -59.6758         estimate D2E/DX2                !
 ! D61   D(10,11,12,24)        179.3866         estimate D2E/DX2                !
 ! D62   D(10,11,12,25)         61.5907         estimate D2E/DX2                !
 ! D63   D(23,11,12,13)         58.8505         estimate D2E/DX2                !
 ! D64   D(23,11,12,24)        -62.0871         estimate D2E/DX2                !
 ! D65   D(23,11,12,25)       -179.883          estimate D2E/DX2                !
 ! D66   D(11,12,13,26)        169.4017         estimate D2E/DX2                !
 ! D67   D(24,12,13,26)        -71.1287         estimate D2E/DX2                !
 ! D68   D(25,12,13,26)         49.0731         estimate D2E/DX2                !
 ! D69   D(9,15,20,27)         -44.2435         estimate D2E/DX2                !
 ! D70   D(9,15,20,30)         -48.4521         estimate D2E/DX2                !
 ! D71   D(10,16,30,20)         38.6669         estimate D2E/DX2                !
 ! D72   D(10,16,30,27)         45.5147         estimate D2E/DX2                !
 ! D73   D(21,16,30,20)       -175.8265         estimate D2E/DX2                !
 ! D74   D(21,16,30,27)       -168.9786         estimate D2E/DX2                !
 ! D75   D(15,20,27,28)       -108.8509         estimate D2E/DX2                !
 ! D76   D(15,20,30,16)         -5.8364         estimate D2E/DX2                !
 ! D77   D(20,27,28,30)         85.8904         estimate D2E/DX2                !
 ! D78   D(28,27,30,16)         96.3521         estimate D2E/DX2                !
 --------------------------------------------------------------------------------
 Trust Radius=3.00D-01 FncErr=1.00D-07 GrdErr=1.00D-06
 Number of steps in this run=    180 maximum allowed number of steps=    180.
 GradGradGradGradGradGradGradGradGradGradGradGradGradGradGradGradGradGrad

                          Input orientation:                          
 ---------------------------------------------------------------------
 Center     Atomic      Atomic             Coordinates (Angstroms)
 Number     Number       Type             X           Y           Z
 ---------------------------------------------------------------------
      1          6           0        0.128730    1.631950   -1.909690
      2          8           0       -0.304610    1.774000    0.663990
      3          1           0        3.088050    1.741050    0.265310
      4          8           0        0.832680    2.624180   -1.910130
      5          1           0        2.110410    2.616450   -0.551780
      6          8           0        2.379690    2.394000    0.368050
      7          1           0        0.663880    1.951370    0.742120
      8          6           0        0.653390    0.214440   -1.705290
      9          6           0       -0.241660   -0.734020   -0.855950
     10          6           0       -0.000190   -0.669460    0.669530
     11          6           0       -0.623770    0.574390    1.337370
     12          6           0       -0.239810    0.720230    2.816650
     13          8           0       -0.682590   -0.439170    3.539710
     14          8           0        0.703150   -0.268910   -3.037160
     15          8           0        0.077010   -2.032150   -1.340800
     16          8           0       -0.576930   -1.848770    1.250290
     17          1           0       -0.931630    1.689850   -2.220210
     18          1           0        1.662820    0.266040   -1.268410
     19          1           0        0.531870   -1.230060   -2.940160
     20          1           0       -0.695270   -2.623760   -1.167750
     21          1           0       -0.627140   -1.684780    2.214610
     22          1           0        1.088860   -0.682820    0.845820
     23          1           0       -1.713300    0.462280    1.272990
     24          1           0       -0.712440    1.629000    3.209650
     25          1           0        0.851920    0.835870    2.897120
     26          1           0       -0.296280   -0.423360    4.427900
     27          8           0       -2.065060   -3.443200   -0.396180
     28          1           0       -1.757330   -4.347340   -0.228140
     29          1           0       -1.301030   -0.507120   -1.057760
     30          1           0       -1.760250   -2.934320    0.388760
 ---------------------------------------------------------------------
                    Distance matrix (angstroms):
                    1          2          3          4          5
     1  C    0.000000
     2  O    2.613769   0.000000
     3  H    3.674249   3.416164   0.000000
     4  O    1.216580   2.939784   3.255634   0.000000
     5  H    2.596192   2.831985   1.545879   1.864878   0.000000
     6  O    3.291753   2.770821   0.968851   2.763390   0.983912
     7  H    2.724061   0.987693   2.479553   2.741459   2.051574
     8  C    1.525248   2.993907   3.484447   2.425067   3.036963
     9  C    2.616366   2.933316   4.297693   3.680083   4.104924
    10  C    3.459116   2.462356   3.938423   4.265722   4.091874
    11  C    3.496868   1.412221   4.035841   4.107206   3.900594
    12  C    4.827561   2.397619   4.315792   5.207467   4.523882
    13  O    5.885893   3.648391   5.449108   6.432800   5.820477
    14  O    2.283510   4.345984   4.542466   3.107562   4.059901
    15  O    3.708361   4.318749   5.087533   4.751482   5.134856
    16  O    4.753824   3.679996   5.223894   5.655310   5.514294
    17  H    1.106408   2.952769   4.726337   2.020374   3.591135
    18  H    2.151832   3.143071   2.561100   2.581039   2.497663
    19  H    3.068467   4.765918   5.063259   4.000827   4.794975
    20  H    4.397786   4.779977   5.951364   5.516034   5.975873
    21  H    5.346203   3.804157   5.416523   6.140985   5.800661
    22  H    3.724627   2.830333   3.195137   4.312440   3.725860
    23  H    3.858841   2.018885   5.069875   4.613901   4.752998
    24  H    5.187988   2.582196   4.808889   5.439662   4.805403
    25  H    4.925664   2.684124   3.570161   5.129140   4.080340
    26  H    6.676075   4.358380   5.784939   7.122687   6.311087
    27  O    5.732414   5.607345   7.339520   6.892173   7.360579
    28  H    6.491282   6.354297   7.796775   7.624915   7.972360
    29  H    2.710280   3.026679   5.105762   3.883850   4.653024
    30  H    5.449949   4.935881   6.736493   6.550199   6.832106
                    6          7          8          9         10
     6  O    0.000000
     7  H    1.811037   0.000000
     8  C    3.468333   3.001142   0.000000
     9  C    4.260770   3.253483   1.556300   0.000000
    10  C    3.890952   2.704627   2.616910   1.545822   0.000000
    11  C    3.642984   1.976977   3.319410   2.582363   1.543381
    12  C    3.957136   2.576050   4.636979   3.950043   2.568809
    13  O    5.240595   3.918440   5.451795   4.427548   2.959161
    14  O    4.636521   4.383394   1.417738   2.422121   3.794032
    15  O    5.273832   4.533366   2.347815   1.421890   2.429879
    16  O    5.246051   4.029753   3.808671   2.406516   1.435508
    17  H    4.261427   3.374825   2.225818   2.865730   3.845065
    18  H    2.778510   2.807214   1.101125   2.190271   2.719628
    19  H    5.243329   4.868070   1.904272   2.277792   3.691507
    20  H    6.082103   5.140691   3.187979   1.968273   2.770924
    21  H    5.393260   4.129957   4.540089   3.237418   1.952233
    22  H    3.370657   2.670266   2.739137   2.160770   1.103307
    23  H    4.615520   2.854855   3.812191   2.851183   2.140034
    24  H    4.268628   2.843745   5.293686   4.725950   3.498918
    25  H    3.340366   2.433870   4.648416   4.212601   2.820331
    26  H    5.619672   4.488455   6.238965   5.293256   3.778039
    27  O    7.376500   6.151766   4.741526   3.297853   3.618433
    28  H    7.931963   6.817434   5.366878   3.968310   4.173746
    29  H    4.898687   3.625550   2.181674   1.102033   2.168426
    30  H    6.747631   5.465458   4.486133   2.949023   2.882054
                   11         12         13         14         15
    11  C    0.000000
    12  C    1.535241   0.000000
    13  O    2.425091   1.436342   0.000000
    14  O    4.648482   6.011211   6.723428   0.000000
    15  O    3.802333   4.996035   5.189793   2.525610   0.000000
    16  O    2.425177   3.027688   2.690647   4.745186   2.678621
    17  H    3.741043   5.175784   6.145846   2.678928   3.955250
    18  H    3.480469   4.529239   5.395951   2.082214   2.793154
    19  H    4.784225   6.126988   6.639965   0.981099   1.846131
    20  H    4.063115   5.221605   5.189680   3.315960   0.988112
    21  H    2.423512   2.509293   1.819480   5.599594   3.641076
    22  H    2.180665   2.760088   3.233333   3.923981   2.761492
    23  H    1.097173   2.149557   2.648206   4.995124   4.032281
    24  H    2.150697   1.097129   2.094554   6.680464   5.893543
    25  H    2.163066   1.100783   2.096037   6.038075   5.175518
    26  H    3.264067   1.976642   0.968693   7.533249   6.000454
    27  O    4.606902   5.566683   5.140686   4.971306   2.733465
    28  H    5.287647   6.103596   5.534036   5.529751   3.156409
    29  H    2.713852   4.200432   4.639377   2.826925   2.074807
    30  H    3.808214   4.643503   4.161203   4.990960   2.679704
                   16         17         18         19         20
    16  O    0.000000
    17  H    4.969106   0.000000
    18  H    3.979039   3.108750   0.000000
    19  H    4.378597   3.344553   2.512392   0.000000
    20  H    2.541954   4.446433   3.731175   2.567043   0.000000
    21  H    0.979452   5.581081   4.602287   5.302992   3.510938
    22  H    2.073136   4.371783   2.387412   3.865663   3.317353
    23  H    2.575423   3.784228   4.230297   5.065120   4.064141
    24  H    3.994038   5.434623   5.249051   6.895121   6.103105
    25  H    3.458461   5.486110   4.281811   6.200350   5.557518
    26  H    3.493961   7.004762   6.063109   7.458211   6.025965
    27  O    2.732691   5.564167   5.330698   4.256039   1.772887
    28  H    3.133999   6.410756   5.836340   4.723656   2.231942
    29  H    2.766124   2.512852   3.070270   2.724994   2.204361
    30  H    1.822333   5.373666   4.970505   4.386345   1.911375
                   21         22         23         24         25
    21  H    0.000000
    22  H    2.412916   0.000000
    23  H    2.583846   3.057095   0.000000
    24  H    3.461000   3.765221   2.472571   0.000000
    25  H    3.001186   2.563278   3.059039   1.781559   0.000000
    26  H    2.568911   3.849315   3.570121   2.422706   2.290701
    27  O    3.460618   4.371438   4.261765   6.368579   6.137185
    28  H    3.785972   4.762656   5.038628   6.973294   6.590986
    29  H    3.542516   3.060402   2.557753   4.808351   4.698925
    30  H    2.485763   3.659998   3.510122   5.466188   5.227775
                   26         27         28         29         30
    26  H    0.000000
    27  O    5.959846   0.000000
    28  H    6.261868   0.969744   0.000000
    29  H    5.577545   3.105156   3.955220   0.000000
    30  H    4.976221   0.983869   1.541817   2.862622   0.000000
 Stoichiometry    C6H16O8
 Framework group  C1[X(C6H16O8)]
 Deg. of freedom    84
 Full point group                 C1      NOp   1
 Largest Abelian subgroup         C1      NOp   1
 Largest concise Abelian subgroup C1      NOp   1
                         Standard orientation:                         
 ---------------------------------------------------------------------
 Center     Atomic      Atomic             Coordinates (Angstroms)
 Number     Number       Type             X           Y           Z
 ---------------------------------------------------------------------
      1          6           0        2.310023   -0.619200   -0.865990
      2          8           0        0.784249    1.501836   -0.936783
      3          1           0        2.417460    1.597677    2.062152
      4          8           0        3.314013    0.032394   -0.648057
      5          1           0        3.086150    1.300156    0.700507
      6          8           0        2.525482    1.958709    1.169594
      7          1           0        1.275768    1.791140   -0.130402
      8          6           0        1.407780   -1.185908    0.225423
      9          6           0       -0.122011   -1.145881   -0.057787
     10          6           0       -0.829870    0.164730    0.355490
     11          6           0       -0.582383    1.331119   -0.624465
     12          6           0       -1.146271    2.668479   -0.124002
     13          8           0       -2.564361    2.544959    0.067937
     14          8           0        1.831879   -2.537769    0.276326
     15          8           0       -0.639590   -2.233341    0.698065
     16          8           0       -2.238885   -0.103325    0.414694
     17          1           0        2.077571   -0.976761   -1.886899
     18          1           0        1.625787   -0.670103    1.173523
     19          1           0        1.020836   -3.024157    0.537460
     20          1           0       -1.484062   -2.526723    0.277162
     21          1           0       -2.684339    0.768523    0.442623
     22          1           0       -0.478285    0.441818    1.363903
     23          1           0       -1.086280    1.074230   -1.564616
     24          1           0       -0.919392    3.441106   -0.869162
     25          1           0       -0.647958    2.940757    0.819010
     26          1           0       -2.888221    3.327550    0.538077
     27          8           0       -3.078891   -2.538606   -0.497116
     28          1           0       -3.686875   -2.872870    0.180399
     29          1           0       -0.294715   -1.319226   -1.132311
     30          1           0       -3.028215   -1.572006   -0.320719
 ---------------------------------------------------------------------
 Rotational constants (GHZ):      0.6362597      0.5254098      0.3215406
 Standard basis: 6-31G(d) (6D, 7F)
 There are   242 symmetry adapted cartesian basis functions of A   symmetry.
 There are   242 symmetry adapted basis functions of A   symmetry.
   242 basis functions,   456 primitive gaussians,   242 cartesian basis functions
    58 alpha electrons       58 beta electrons
       nuclear repulsion energy      1077.3703960630 Hartrees.
 NAtoms=   30 NActive=   30 NUniq=   30 SFac= 1.00D+00 NAtFMM=   60 NAOKFM=F Big=F
 Integral buffers will be    131072 words long.
 Raffenetti 2 integral format.
 Two-electron integral symmetry is turned on.
 One-electron integrals computed using PRISM.
 NBasis=   242 RedAO= T EigKep=  2.01D-03  NBF=   242
 NBsUse=   242 1.00D-06 EigRej= -1.00D+00 NBFU=   242
 ExpMin= 1.61D-01 ExpMax= 5.48D+03 ExpMxC= 8.25D+02 IAcc=1 IRadAn=         1 AccDes= 0.00D+00
 Harris functional with IExCor=  402 and IRadAn=       1 diagonalized for initial guess.
 HarFok:  IExCor=  402 AccDes= 0.00D+00 IRadAn=         1 IDoV= 1 UseB2=F ITyADJ=14
 ICtDFT=  3500011 ScaDFX=  1.000000  1.000000  1.000000  1.000000
 FoFCou: FMM=F IPFlag=           0 FMFlag=      100000 FMFlg1=           0
         NFxFlg=           0 DoJE=T BraDBF=F KetDBF=T FulRan=T
         wScrn=  0.000000 ICntrl=     500 IOpCl=  0 I1Cent=   200000004 NGrid=           0
         NMat0=    1 NMatS0=      1 NMatT0=    0 NMatD0=    1 NMtDS0=    0 NMtDT0=    0
 Petite list used in FoFCou.
 Requested convergence on RMS density matrix=1.00D-08 within 128 cycles.
 Requested convergence on MAX density matrix=1.00D-06.
 Requested convergence on             energy=1.00D-06.
 No special actions if energy rises.
 Integral accuracy reduced to 1.0D-05 until final iterations.
 Initial convergence to 1.0D-05 achieved.  Increase integral accuracy.
 SCF Done:  E(RB3LYP) =  -839.990906467     A.U. after   14 cycles
            NFock= 14  Conv=0.47D-08     -V/T= 2.0086

 **********************************************************************

            Population analysis using the SCF density.

 **********************************************************************

 Orbital symmetries:
       Occupied  (A) (A) (A) (A) (A) (A) (A) (A) (A) (A) (A) (A)
                 (A) (A) (A) (A) (A) (A) (A) (A) (A) (A) (A) (A)
                 (A) (A) (A) (A) (A) (A) (A) (A) (A) (A) (A) (A)
                 (A) (A) (A) (A) (A) (A) (A) (A) (A) (A) (A) (A)
                 (A) (A) (A) (A) (A) (A) (A) (A) (A) (A)
       Virtual   (A) (A) (A) (A) (A) (A) (A) (A) (A) (A) (A) (A)
                 (A) (A) (A) (A) (A) (A) (A) (A) (A) (A) (A) (A)
                 (A) (A) (A) (A) (A) (A) (A) (A) (A) (A) (A) (A)
                 (A) (A) (A) (A) (A) (A) (A) (A) (A) (A) (A) (A)
                 (A) (A) (A) (A) (A) (A) (A) (A) (A) (A) (A) (A)
                 (A) (A) (A) (A) (A) (A) (A) (A) (A) (A) (A) (A)
                 (A) (A) (A) (A) (A) (A) (A) (A) (A) (A) (A) (A)
                 (A) (A) (A) (A) (A) (A) (A) (A) (A) (A) (A) (A)
                 (A) (A) (A) (A) (A) (A) (A) (A) (A) (A) (A) (A)
                 (A) (A) (A) (A) (A) (A) (A) (A) (A) (A) (A) (A)
                 (A) (A) (A) (A) (A) (A) (A) (A) (A) (A) (A) (A)
                 (A) (A) (A) (A) (A) (A) (A) (A) (A) (A) (A) (A)
                 (A) (A) (A) (A) (A) (A) (A) (A) (A) (A) (A) (A)
                 (A) (A) (A) (A) (A) (A) (A) (A) (A) (A) (A) (A)
                 (A) (A) (A) (A) (A) (A) (A) (A) (A) (A) (A) (A)
                 (A) (A) (A) (A)
 The electronic state is 1-A.
 Alpha  occ. eigenvalues --  -19.18824 -19.16066 -19.15845 -19.15553 -19.15372
 Alpha  occ. eigenvalues --  -19.14976 -19.14503 -19.13836 -10.28199 -10.25535
 Alpha  occ. eigenvalues --  -10.24978 -10.24942 -10.24922 -10.24351  -1.06071
 Alpha  occ. eigenvalues --   -1.05464  -1.04270  -1.02942  -1.02303  -1.01222
 Alpha  occ. eigenvalues --   -1.01016  -0.99567  -0.78183  -0.75290  -0.69796
 Alpha  occ. eigenvalues --   -0.63979  -0.61123  -0.58540  -0.56088  -0.54884
 Alpha  occ. eigenvalues --   -0.53633  -0.52991  -0.51788  -0.49945  -0.48858
 Alpha  occ. eigenvalues --   -0.46815  -0.46663  -0.45534  -0.44592  -0.43463
 Alpha  occ. eigenvalues --   -0.42404  -0.40803  -0.39945  -0.39637  -0.38560
 Alpha  occ. eigenvalues --   -0.38144  -0.35844  -0.35241  -0.34106  -0.34009
 Alpha  occ. eigenvalues --   -0.31322  -0.30841  -0.30659  -0.30423  -0.27401
 Alpha  occ. eigenvalues --   -0.27274  -0.26788  -0.25415
 Alpha virt. eigenvalues --   -0.02499   0.03258   0.04535   0.06701   0.09267
 Alpha virt. eigenvalues --    0.11319   0.11394   0.13017   0.13682   0.13990
 Alpha virt. eigenvalues --    0.15177   0.16169   0.17025   0.17740   0.19026
 Alpha virt. eigenvalues --    0.19365   0.20474   0.21100   0.22709   0.23348
 Alpha virt. eigenvalues --    0.25077   0.25184   0.26009   0.28093   0.29086
 Alpha virt. eigenvalues --    0.30243   0.32459   0.34925   0.50724   0.52299
 Alpha virt. eigenvalues --    0.53745   0.54965   0.55924   0.58665   0.59255
 Alpha virt. eigenvalues --    0.61008   0.61952   0.64218   0.64950   0.66655
 Alpha virt. eigenvalues --    0.68704   0.69505   0.70902   0.74413   0.76342
 Alpha virt. eigenvalues --    0.77337   0.78124   0.78796   0.80539   0.81106
 Alpha virt. eigenvalues --    0.81541   0.82747   0.83213   0.84068   0.84556
 Alpha virt. eigenvalues --    0.85658   0.86357   0.86736   0.88094   0.89440
 Alpha virt. eigenvalues --    0.89994   0.91436   0.92035   0.94027   0.94647
 Alpha virt. eigenvalues --    0.96155   0.98033   0.99357   1.00547   1.00772
 Alpha virt. eigenvalues --    1.02956   1.04349   1.05546   1.07038   1.08824
 Alpha virt. eigenvalues --    1.09653   1.10779   1.12975   1.14192   1.15416
 Alpha virt. eigenvalues --    1.16158   1.18185   1.20170   1.21185   1.25700
 Alpha virt. eigenvalues --    1.27771   1.30645   1.31763   1.32499   1.34528
 Alpha virt. eigenvalues --    1.38095   1.38358   1.42715   1.45044   1.46991
 Alpha virt. eigenvalues --    1.49039   1.51909   1.53898   1.56992   1.59354
 Alpha virt. eigenvalues --    1.60375   1.62314   1.62908   1.64950   1.66390
 Alpha virt. eigenvalues --    1.69732   1.70776   1.71491   1.72176   1.72439
 Alpha virt. eigenvalues --    1.73770   1.74435   1.75399   1.76288   1.77077
 Alpha virt. eigenvalues --    1.78069   1.78744   1.80651   1.83581   1.84145
 Alpha virt. eigenvalues --    1.85924   1.88328   1.88798   1.90814   1.91300
 Alpha virt. eigenvalues --    1.97010   1.97307   1.98423   2.01830   2.02557
 Alpha virt. eigenvalues --    2.04015   2.04683   2.07313   2.10378   2.13125
 Alpha virt. eigenvalues --    2.13951   2.16105   2.18741   2.23359   2.24515
 Alpha virt. eigenvalues --    2.25801   2.28450   2.31222   2.31408   2.34624
 Alpha virt. eigenvalues --    2.39310   2.42230   2.43720   2.46671   2.48114
 Alpha virt. eigenvalues --    2.51957   2.52793   2.53533   2.56909   2.57897
 Alpha virt. eigenvalues --    2.58755   2.59996   2.62864   2.64458   2.68247
 Alpha virt. eigenvalues --    2.69544   2.73939   2.78835   2.85477   2.87235
 Alpha virt. eigenvalues --    2.94065   2.97419   2.97485   3.01272   3.03239
 Alpha virt. eigenvalues --    3.71062   3.72786   3.78700   3.82505   3.90149
 Alpha virt. eigenvalues --    4.00364   4.06082   4.08305   4.22602   4.31580
 Alpha virt. eigenvalues --    4.35524   4.48751   4.61348   4.62710
          Condensed to atoms (all electrons):
               1          2          3          4          5          6
     1  C    4.653940   0.022496  -0.000116   0.475861  -0.007493   0.004176
     2  O    0.022496   8.337435   0.001069  -0.007416   0.002732  -0.022470
     3  H   -0.000116   0.001069   0.372552   0.000789  -0.014513   0.240902
     4  O    0.475861  -0.007416   0.000789   8.021263   0.058715  -0.020192
     5  H   -0.007493   0.002732  -0.014513   0.058715   0.327148   0.206361
     6  O    0.004176  -0.022470   0.240902  -0.020192   0.206361   8.324077
     7  H   -0.002409   0.193043  -0.003429   0.002347  -0.008474   0.068741
     8  C    0.304126   0.000515  -0.000317  -0.048795  -0.003365  -0.002243
     9  C   -0.010359   0.001496  -0.000086   0.002210   0.000160  -0.000146
    10  C   -0.003648  -0.042735   0.000004   0.000088   0.000013  -0.000150
    11  C    0.000316   0.238409  -0.000042   0.000226  -0.000009   0.001156
    12  C    0.000113  -0.038379   0.000001  -0.000005   0.000030  -0.000551
    13  O   -0.000000   0.001304  -0.000000   0.000000  -0.000000   0.000000
    14  O   -0.037064   0.000089  -0.000008  -0.000532  -0.000017   0.000017
    15  O    0.001223   0.000041  -0.000001  -0.000013  -0.000001   0.000000
    16  O    0.000001   0.001691  -0.000000  -0.000000  -0.000000   0.000001
    17  H    0.340195   0.000687   0.000014  -0.047779   0.001261  -0.000104
    18  H   -0.052491  -0.000248   0.003815   0.001187   0.002849   0.007942
    19  H    0.004983  -0.000002  -0.000000  -0.000137  -0.000005   0.000000
    20  H   -0.000050   0.000000  -0.000000   0.000000   0.000000  -0.000000
    21  H   -0.000000   0.000013   0.000000  -0.000000   0.000000  -0.000000
    22  H    0.000052   0.001919   0.000577   0.000016  -0.000093   0.000868
    23  H   -0.000117  -0.036003   0.000007  -0.000000   0.000005  -0.000033
    24  H   -0.000003   0.004807  -0.000002   0.000000  -0.000001   0.000013
    25  H   -0.000007   0.000178   0.000071   0.000001  -0.000044   0.001090
    26  H    0.000000  -0.000089  -0.000000  -0.000000  -0.000000  -0.000000
    27  O   -0.000000   0.000000  -0.000000  -0.000000  -0.000000   0.000000
    28  H    0.000000  -0.000000   0.000000   0.000000   0.000000  -0.000000
    29  H   -0.004277   0.000078   0.000003   0.000086   0.000014  -0.000005
    30  H    0.000000  -0.000002   0.000000   0.000000   0.000000  -0.000000
               7          8          9         10         11         12
     1  C   -0.002409   0.304126  -0.010359  -0.003648   0.000316   0.000113
     2  O    0.193043   0.000515   0.001496  -0.042735   0.238409  -0.038379
     3  H   -0.003429  -0.000317  -0.000086   0.000004  -0.000042   0.000001
     4  O    0.002347  -0.048795   0.002210   0.000088   0.000226  -0.000005
     5  H   -0.008474  -0.003365   0.000160   0.000013  -0.000009   0.000030
     6  O    0.068741  -0.002243  -0.000146  -0.000150   0.001156  -0.000551
     7  H    0.328444   0.001247  -0.001986  -0.002248  -0.020066  -0.007999
     8  C    0.001247   5.065759   0.281345  -0.030683  -0.000998  -0.000147
     9  C   -0.001986   0.281345   4.992945   0.309251  -0.025933   0.004109
    10  C   -0.002248  -0.030683   0.309251   5.030788   0.292370  -0.040930
    11  C   -0.020066  -0.000998  -0.025933   0.292370   4.893663   0.345260
    12  C   -0.007999  -0.000147   0.004109  -0.040930   0.345260   4.979306
    13  O    0.000039   0.000000  -0.000034   0.007879  -0.039006   0.188371
    14  O   -0.000002   0.227199  -0.019903   0.001972   0.000021   0.000000
    15  O   -0.000004  -0.035215   0.210974  -0.047238   0.002905  -0.000051
    16  O   -0.000032   0.001852  -0.035186   0.192603  -0.023979   0.000893
    17  H    0.000067  -0.092339   0.000390   0.000260   0.000123   0.000004
    18  H    0.000214   0.322737  -0.047530  -0.005248   0.000043   0.000022
    19  H   -0.000001  -0.044817  -0.018539   0.001786  -0.000033   0.000001
    20  H   -0.000000   0.003628  -0.015685  -0.002163  -0.000105   0.000003
    21  H    0.000017  -0.000086   0.004112  -0.020618  -0.010136  -0.005158
    22  H    0.002799  -0.004725  -0.055861   0.342963  -0.048576  -0.009328
    23  H    0.005322   0.000282  -0.009254  -0.058875   0.367505  -0.051490
    24  H   -0.000441  -0.000001  -0.000098   0.006257  -0.036227   0.366585
    25  H    0.005793  -0.000003  -0.000138  -0.013139  -0.031297   0.353461
    26  H   -0.000011  -0.000000   0.000010  -0.000104   0.004713  -0.014769
    27  O   -0.000000   0.000025   0.002060   0.000331  -0.000026   0.000001
    28  H    0.000000  -0.000003  -0.000152   0.000058   0.000001  -0.000000
    29  H    0.000035  -0.044920   0.351607  -0.054009  -0.002714  -0.000018
    30  H    0.000000   0.000092  -0.001174  -0.004482   0.000222  -0.000044
              13         14         15         16         17         18
     1  C   -0.000000  -0.037064   0.001223   0.000001   0.340195  -0.052491
     2  O    0.001304   0.000089   0.000041   0.001691   0.000687  -0.000248
     3  H   -0.000000  -0.000008  -0.000001  -0.000000   0.000014   0.003815
     4  O    0.000000  -0.000532  -0.000013  -0.000000  -0.047779   0.001187
     5  H   -0.000000  -0.000017  -0.000001  -0.000000   0.001261   0.002849
     6  O    0.000000   0.000017   0.000000   0.000001  -0.000104   0.007942
     7  H    0.000039  -0.000002  -0.000004  -0.000032   0.000067   0.000214
     8  C    0.000000   0.227199  -0.035215   0.001852  -0.092339   0.322737
     9  C   -0.000034  -0.019903   0.210974  -0.035186   0.000390  -0.047530
    10  C    0.007879   0.001972  -0.047238   0.192603   0.000260  -0.005248
    11  C   -0.039006   0.000021   0.002905  -0.023979   0.000123   0.000043
    12  C    0.188371   0.000000  -0.000051   0.000893   0.000004   0.000022
    13  O    8.275881  -0.000000  -0.000000  -0.023183  -0.000000   0.000000
    14  O   -0.000000   8.313755  -0.029505  -0.000010   0.005170  -0.038569
    15  O   -0.000000  -0.029505   8.398738  -0.000828  -0.000204  -0.000956
    16  O   -0.023183  -0.000010  -0.000828   8.353412   0.000001   0.000005
    17  H   -0.000000   0.005170  -0.000204   0.000001   0.648400   0.006178
    18  H    0.000000  -0.038569  -0.000956   0.000005   0.006178   0.682854
    19  H   -0.000000   0.228945   0.057717  -0.000014  -0.000668   0.002164
    20  H    0.000000   0.000219   0.193867   0.002169   0.000010  -0.000246
    21  H    0.057301   0.000001   0.000167   0.219640  -0.000000   0.000000
    22  H    0.000053  -0.000011   0.001319  -0.039359   0.000026   0.009393
    23  H    0.003390  -0.000001  -0.000036   0.005542   0.000012   0.000005
    24  H   -0.033213  -0.000000   0.000000  -0.000303   0.000000   0.000002
    25  H   -0.033846   0.000000  -0.000000   0.000111   0.000000  -0.000016
    26  H    0.234531   0.000000  -0.000000   0.000933   0.000000   0.000000
    27  O   -0.000000  -0.000001  -0.029218  -0.021857  -0.000000   0.000000
    28  H    0.000000   0.000000   0.001729   0.001135   0.000000   0.000000
    29  H   -0.000003   0.001325  -0.038605   0.000215   0.007211   0.006662
    30  H    0.000016  -0.000000   0.005042   0.057969   0.000000   0.000002
              19         20         21         22         23         24
     1  C    0.004983  -0.000050  -0.000000   0.000052  -0.000117  -0.000003
     2  O   -0.000002   0.000000   0.000013   0.001919  -0.036003   0.004807
     3  H   -0.000000  -0.000000   0.000000   0.000577   0.000007  -0.000002
     4  O   -0.000137   0.000000  -0.000000   0.000016  -0.000000   0.000000
     5  H   -0.000005   0.000000   0.000000  -0.000093   0.000005  -0.000001
     6  O    0.000000  -0.000000  -0.000000   0.000868  -0.000033   0.000013
     7  H   -0.000001  -0.000000   0.000017   0.002799   0.005322  -0.000441
     8  C   -0.044817   0.003628  -0.000086  -0.004725   0.000282  -0.000001
     9  C   -0.018539  -0.015685   0.004112  -0.055861  -0.009254  -0.000098
    10  C    0.001786  -0.002163  -0.020618   0.342963  -0.058875   0.006257
    11  C   -0.000033  -0.000105  -0.010136  -0.048576   0.367505  -0.036227
    12  C    0.000001   0.000003  -0.005158  -0.009328  -0.051490   0.366585
    13  O   -0.000000   0.000000   0.057301   0.000053   0.003390  -0.033213
    14  O    0.228945   0.000219   0.000001  -0.000011  -0.000001  -0.000000
    15  O    0.057717   0.193867   0.000167   0.001319  -0.000036   0.000000
    16  O   -0.000014   0.002169   0.219640  -0.039359   0.005542  -0.000303
    17  H   -0.000668   0.000010  -0.000000   0.000026   0.000012   0.000000
    18  H    0.002164  -0.000246   0.000000   0.009393   0.000005   0.000002
    19  H    0.345516  -0.000810   0.000001  -0.000011  -0.000001  -0.000000
    20  H   -0.000810   0.320193  -0.000001  -0.000442  -0.000021  -0.000000
    21  H    0.000001  -0.000001   0.320278  -0.000503   0.000268   0.000811
    22  H   -0.000011  -0.000442  -0.000503   0.668270   0.007289  -0.000089
    23  H   -0.000001  -0.000021   0.000268   0.007289   0.609514  -0.007747
    24  H   -0.000000  -0.000000   0.000811  -0.000089  -0.007747   0.588783
    25  H   -0.000000   0.000000   0.000453   0.006095   0.006557  -0.048738
    26  H    0.000000   0.000000  -0.002041  -0.000029  -0.000213  -0.002085
    27  O    0.000028   0.088717   0.000591  -0.000073  -0.000041  -0.000000
    28  H   -0.000003  -0.003743  -0.000019   0.000004   0.000000   0.000000
    29  H    0.000670  -0.005398  -0.000154   0.006998   0.005631   0.000005
    30  H   -0.000014  -0.013415  -0.001429   0.000716   0.000402   0.000001
              25         26         27         28         29         30
     1  C   -0.000007   0.000000  -0.000000   0.000000  -0.004277   0.000000
     2  O    0.000178  -0.000089   0.000000  -0.000000   0.000078  -0.000002
     3  H    0.000071  -0.000000  -0.000000   0.000000   0.000003   0.000000
     4  O    0.000001  -0.000000  -0.000000   0.000000   0.000086   0.000000
     5  H   -0.000044  -0.000000  -0.000000   0.000000   0.000014   0.000000
     6  O    0.001090  -0.000000   0.000000  -0.000000  -0.000005  -0.000000
     7  H    0.005793  -0.000011  -0.000000   0.000000   0.000035   0.000000
     8  C   -0.000003  -0.000000   0.000025  -0.000003  -0.044920   0.000092
     9  C   -0.000138   0.000010   0.002060  -0.000152   0.351607  -0.001174
    10  C   -0.013139  -0.000104   0.000331   0.000058  -0.054009  -0.004482
    11  C   -0.031297   0.004713  -0.000026   0.000001  -0.002714   0.000222
    12  C    0.353461  -0.014769   0.000001  -0.000000  -0.000018  -0.000044
    13  O   -0.033846   0.234531  -0.000000   0.000000  -0.000003   0.000016
    14  O    0.000000   0.000000  -0.000001   0.000000   0.001325  -0.000000
    15  O   -0.000000  -0.000000  -0.029218   0.001729  -0.038605   0.005042
    16  O    0.000111   0.000933  -0.021857   0.001135   0.000215   0.057969
    17  H    0.000000   0.000000  -0.000000   0.000000   0.007211   0.000000
    18  H   -0.000016   0.000000   0.000000   0.000000   0.006662   0.000002
    19  H   -0.000000   0.000000   0.000028  -0.000003   0.000670  -0.000014
    20  H    0.000000   0.000000   0.088717  -0.003743  -0.005398  -0.013415
    21  H    0.000453  -0.002041   0.000591  -0.000019  -0.000154  -0.001429
    22  H    0.006095  -0.000029  -0.000073   0.000004   0.006998   0.000716
    23  H    0.006557  -0.000213  -0.000041   0.000000   0.005631   0.000402
    24  H   -0.048738  -0.002085  -0.000000   0.000000   0.000005   0.000001
    25  H    0.622135  -0.005642  -0.000000  -0.000000   0.000009   0.000000
    26  H   -0.005642   0.371409   0.000000  -0.000000   0.000000  -0.000002
    27  O   -0.000000   0.000000   8.306832   0.240585   0.001116   0.211562
    28  H   -0.000000  -0.000000   0.240585   0.377860  -0.000042  -0.015151
    29  H    0.000009   0.000000   0.001116  -0.000042   0.633142   0.000650
    30  H    0.000000  -0.000002   0.211562  -0.015151   0.000650   0.328912
 Mulliken charges:
               1
     1  C    0.310550
     2  O   -0.660658
     3  H    0.398712
     4  O   -0.437921
     5  H    0.434726
     6  O   -0.809451
     7  H    0.438993
     8  C    0.099851
     9  C    0.081393
    10  C    0.139647
    11  C    0.092214
    12  C   -0.069291
    13  O   -0.639481
    14  O   -0.653090
    15  O   -0.691848
    16  O   -0.693422
    17  H    0.131088
    18  H    0.099229
    19  H    0.423247
    20  H    0.433271
    21  H    0.436492
    22  H    0.109743
    23  H    0.152100
    24  H    0.161682
    25  H    0.136916
    26  H    0.413389
    27  O   -0.800631
    28  H    0.397738
    29  H    0.134687
    30  H    0.430126
 Sum of Mulliken charges =  -0.00000
 Mulliken charges with hydrogens summed into heavy atoms:
               1
     1  C    0.441638
     2  O   -0.221665
     4  O   -0.437921
     6  O    0.023987
     8  C    0.199080
     9  C    0.216080
    10  C    0.249390
    11  C    0.244314
    12  C    0.229307
    13  O   -0.226092
    14  O   -0.229843
    15  O   -0.258577
    16  O   -0.256930
    27  O    0.027232
 Electronic spatial extent (au):  <R**2>=           3433.1546
 Charge=             -0.0000 electrons
 Dipole moment (field-independent basis, Debye):
    X=             -4.7748    Y=              2.9323    Z=              2.8400  Tot=              6.2819
 Quadrupole moment (field-independent basis, Debye-Ang):
   XX=            -86.3250   YY=            -79.8425   ZZ=            -81.3933
   XY=             -5.0426   XZ=             -1.4629   YZ=              3.7265
 Traceless Quadrupole moment (field-independent basis, Debye-Ang):
   XX=             -3.8047   YY=              2.6778   ZZ=              1.1270
   XY=             -5.0426   XZ=             -1.4629   YZ=              3.7265
 Octapole moment (field-independent basis, Debye-Ang**2):
  XXX=            -85.2970  YYY=             30.5449  ZZZ=             14.0741  XYY=            -60.8080
  XXY=              3.5887  XXZ=             37.5549  XZZ=              9.3390  YZZ=              6.2762
  YYZ=             19.5759  XYZ=              8.9358
 Hexadecapole moment (field-independent basis, Debye-Ang**3):
 XXXX=          -1931.4315 YYYY=          -1514.6428 ZZZZ=           -271.5031 XXXY=             60.1940
 XXXZ=            -40.8270 YYYX=            -71.1019 YYYZ=            -14.0644 ZZZX=             28.1749
 ZZZY=             25.9886 XXYY=           -550.6129 XXZZ=           -371.4942 YYZZ=           -335.4807
 XXYZ=            -10.5304 YYXZ=            -80.3822 ZZXY=             -7.7626
 N-N= 1.077370396063D+03 E-N=-4.126946294549D+03  KE= 8.327924907360D+02
 Calling FoFJK, ICntrl=      2127 FMM=F ISym2X=0 I1Cent= 0 IOpClX= 0 NMat=1 NMatS=1 NMatT=0.
 ***** Axes restored to original set *****
 -------------------------------------------------------------------
 Center     Atomic                   Forces (Hartrees/Bohr)
 Number     Number              X              Y              Z
 -------------------------------------------------------------------
      1        6          -0.000006642   -0.000005840   -0.000001696
      2        8           0.000001218    0.000002986   -0.000000669
      3        1          -0.000002491   -0.000005865   -0.000006503
      4        8          -0.000001688   -0.000001094   -0.000005202
      5        1          -0.000009707   -0.000011088   -0.000003862
      6        8           0.000010924    0.000014854   -0.000013482
      7        1          -0.000007986   -0.000004904   -0.000006255
      8        6           0.000014169    0.000002829   -0.000002193
      9        6           0.000002793   -0.000012643    0.000001261
     10        6          -0.000006237   -0.000002263    0.000001628
     11        6          -0.000001056    0.000002560    0.000000093
     12        6           0.000003292    0.000017456   -0.000004304
     13        8           0.000001984    0.000000659    0.000005127
     14        8          -0.000003849    0.000001727    0.000002279
     15        8          -0.000008652    0.000008225    0.000018246
     16        8           0.000015899    0.000008907   -0.000008275
     17        1           0.000002757   -0.000000560    0.000002439
     18        1          -0.000007026   -0.000003786   -0.000002986
     19        1          -0.000006126   -0.000009719    0.000000125
     20        1          -0.000003222   -0.000008210   -0.000012882
     21        1          -0.000005728   -0.000000641    0.000011057
     22        1           0.000003048    0.000000457   -0.000002976
     23        1           0.000004272    0.000000373    0.000000934
     24        1           0.000005918    0.000000961   -0.000003837
     25        1           0.000005423    0.000003151    0.000000124
     26        1           0.000004520    0.000006597   -0.000002269
     27        8           0.000023721    0.000012193    0.000002168
     28        1          -0.000011617   -0.000003664    0.000012197
     29        1          -0.000007357    0.000000061    0.000002096
     30        1          -0.000010553   -0.000013721    0.000017616
 -------------------------------------------------------------------
 Cartesian Forces:  Max     0.000023721 RMS     0.000007662

 GradGradGradGradGradGradGradGradGradGradGradGradGradGradGradGradGradGrad
 Berny optimization.
 FormGI is forming the generalized inverse of G from B-inverse, IUseBI=4.
 Internal  Forces:  Max     0.000010080 RMS     0.000003359
 Search for a local minimum.
 Step number   1 out of a maximum of  180
 All quantities printed in internal units (Hartrees-Bohrs-Radians)
 Mixed Optimization -- En-DIIS/RFO-DIIS
 Second derivative matrix not updated -- first step.
 ITU=  0
     Eigenvalues ---    0.00300   0.00373   0.00525   0.00532   0.00612
     Eigenvalues ---    0.00735   0.00881   0.00981   0.01157   0.01211
     Eigenvalues ---    0.01457   0.01745   0.01899   0.02332   0.03444
     Eigenvalues ---    0.03822   0.03945   0.04071   0.04391   0.04547
     Eigenvalues ---    0.04721   0.05059   0.05146   0.05372   0.05567
     Eigenvalues ---    0.05984   0.05994   0.06125   0.06340   0.06492
     Eigenvalues ---    0.07316   0.07514   0.07860   0.08628   0.08672
     Eigenvalues ---    0.08826   0.09876   0.10883   0.11081   0.11627
     Eigenvalues ---    0.13627   0.13689   0.14785   0.14931   0.15919
     Eigenvalues ---    0.16000   0.16000   0.16267   0.16886   0.17506
     Eigenvalues ---    0.17828   0.18327   0.19587   0.20183   0.20847
     Eigenvalues ---    0.22030   0.22441   0.26543   0.26826   0.27744
     Eigenvalues ---    0.28945   0.29526   0.32983   0.33319   0.33458
     Eigenvalues ---    0.33558   0.33596   0.33997   0.34002   0.37421
     Eigenvalues ---    0.40091   0.40185   0.42803   0.42832   0.46880
     Eigenvalues ---    0.47959   0.48714   0.49974   0.51172   0.51491
     Eigenvalues ---    0.53429   0.53612   0.53645   0.94395
 RFO step:  Lambda=-2.23266114D-08 EMin= 2.99780973D-03
 Linear search not attempted -- first point.
 Iteration  1 RMS(Cart)=  0.00019263 RMS(Int)=  0.00000001
 Iteration  2 RMS(Cart)=  0.00000002 RMS(Int)=  0.00000000
 Variable       Old X    -DE/DX   Delta X   Delta X   Delta X     New X
                                 (Linear)    (Quad)   (Total)
    R1        2.29900  -0.00000   0.00000  -0.00001  -0.00001   2.29900
    R2        2.88230  -0.00000   0.00000  -0.00000  -0.00000   2.88230
    R3        2.09081  -0.00001   0.00000  -0.00002  -0.00002   2.09079
    R4        1.86647  -0.00000   0.00000  -0.00000  -0.00000   1.86647
    R5        2.66871  -0.00000   0.00000  -0.00000  -0.00000   2.66871
    R6        1.83086   0.00000   0.00000   0.00000   0.00000   1.83087
    R7        3.52411  -0.00001   0.00000  -0.00018  -0.00018   3.52392
    R8        1.85932  -0.00001   0.00000  -0.00002  -0.00002   1.85931
    R9        3.42236   0.00001   0.00000   0.00012   0.00012   3.42248
   R10        2.94098   0.00001   0.00000   0.00002   0.00002   2.94100
   R11        2.67914  -0.00000   0.00000  -0.00001  -0.00001   2.67913
   R12        2.08082  -0.00001   0.00000  -0.00002  -0.00002   2.08081
   R13        2.92118  -0.00000   0.00000  -0.00001  -0.00001   2.92117
   R14        2.68698  -0.00001   0.00000  -0.00002  -0.00002   2.68697
   R15        2.08254   0.00001   0.00000   0.00002   0.00002   2.08256
   R16        2.91657   0.00000   0.00000   0.00001   0.00001   2.91658
   R17        2.71272   0.00000   0.00000   0.00000   0.00000   2.71272
   R18        2.08495   0.00000   0.00000   0.00001   0.00001   2.08495
   R19        2.90118  -0.00000   0.00000  -0.00000  -0.00000   2.90118
   R20        2.07336  -0.00000   0.00000  -0.00001  -0.00001   2.07335
   R21        2.71429   0.00000   0.00000   0.00001   0.00001   2.71430
   R22        2.07327  -0.00000   0.00000  -0.00001  -0.00001   2.07326
   R23        2.08018   0.00000   0.00000   0.00001   0.00001   2.08018
   R24        1.83057  -0.00000   0.00000  -0.00001  -0.00001   1.83056
   R25        1.85401   0.00001   0.00000   0.00001   0.00001   1.85402
   R26        1.86726  -0.00000   0.00000  -0.00001  -0.00001   1.86725
   R27        1.85090   0.00001   0.00000   0.00001   0.00001   1.85091
   R28        3.44371   0.00000   0.00000   0.00007   0.00007   3.44378
   R29        3.35027  -0.00001   0.00000  -0.00008  -0.00008   3.35019
   R30        3.61197   0.00000   0.00000   0.00009   0.00009   3.61207
   R31        1.83255  -0.00000   0.00000  -0.00000  -0.00000   1.83255
   R32        1.85924  -0.00000   0.00000  -0.00001  -0.00001   1.85924
    A1        2.16396  -0.00000   0.00000  -0.00001  -0.00001   2.16395
    A2        2.10804  -0.00000   0.00000  -0.00001  -0.00001   2.10802
    A3        1.99974   0.00000   0.00000   0.00003   0.00003   1.99977
    A4        1.91392  -0.00001   0.00000  -0.00004  -0.00004   1.91388
    A5        1.97448  -0.00001   0.00000  -0.00011  -0.00011   1.97437
    A6        2.62478   0.00000   0.00000  -0.00001  -0.00001   2.62476
    A7        1.82692   0.00000   0.00000  -0.00001  -0.00001   1.82691
    A8        2.15301  -0.00001   0.00000  -0.00007  -0.00007   2.15294
    A9        1.55986  -0.00001   0.00000  -0.00008  -0.00008   1.55978
   A10        2.84573   0.00000   0.00000   0.00000   0.00000   2.84573
   A11        2.02828   0.00000   0.00000  -0.00002  -0.00002   2.02826
   A12        1.77524  -0.00000   0.00000  -0.00002  -0.00002   1.77523
   A13        1.90176   0.00000   0.00000   0.00002   0.00002   1.90179
   A14        1.90191  -0.00000   0.00000  -0.00001  -0.00001   1.90191
   A15        1.91692   0.00000   0.00000   0.00000   0.00000   1.91692
   A16        1.93535   0.00000   0.00000   0.00002   0.00002   1.93537
   A17        2.00785  -0.00000   0.00000  -0.00001  -0.00001   2.00784
   A18        1.81461  -0.00000   0.00000   0.00001   0.00001   1.81461
   A19        1.90438   0.00000   0.00000  -0.00000  -0.00000   1.90438
   A20        1.91731   0.00000   0.00000   0.00001   0.00001   1.91732
   A21        1.89893  -0.00000   0.00000  -0.00001  -0.00001   1.89892
   A22        1.91874   0.00000   0.00000   0.00001   0.00001   1.91876
   A23        1.97966  -0.00001   0.00000  -0.00003  -0.00003   1.97963
   A24        1.87777   0.00000   0.00000   0.00000   0.00000   1.87777
   A25        1.88742   0.00000   0.00000  -0.00003  -0.00003   1.88740
   A26        1.90149   0.00001   0.00000   0.00006   0.00006   1.90155
   A27        1.91711   0.00000   0.00000  -0.00001  -0.00001   1.91710
   A28        1.89862  -0.00000   0.00000  -0.00000  -0.00000   1.89862
   A29        1.96812  -0.00000   0.00000  -0.00001  -0.00001   1.96811
   A30        1.89888  -0.00000   0.00000  -0.00003  -0.00003   1.89885
   A31        1.85797   0.00000   0.00000   0.00001   0.00001   1.85798
   A32        1.97409   0.00000   0.00000   0.00002   0.00002   1.97411
   A33        1.86866  -0.00000   0.00000   0.00000   0.00000   1.86866
   A34        1.89083  -0.00000   0.00000   0.00001   0.00001   1.89084
   A35        1.90845  -0.00000   0.00000  -0.00002  -0.00002   1.90843
   A36        1.89241   0.00000   0.00000  -0.00000  -0.00000   1.89241
   A37        1.90547   0.00000   0.00000   0.00003   0.00003   1.90549
   A38        1.93423   0.00000   0.00000  -0.00000  -0.00000   1.93423
   A39        1.93235  -0.00000   0.00000  -0.00000  -0.00000   1.93235
   A40        1.89024  -0.00000   0.00000   0.00000   0.00000   1.89025
   A41        1.90229  -0.00000   0.00000  -0.00001  -0.00001   1.90229
   A42        1.80800   0.00000   0.00000   0.00002   0.00002   1.80802
   A43        1.88781   0.00001   0.00000   0.00002   0.00002   1.88783
   A44        1.85601   0.00001   0.00000   0.00004   0.00004   1.85606
   A45        2.16397   0.00000   0.00000  -0.00000  -0.00000   2.16397
   A46        2.13165  -0.00001   0.00000  -0.00005  -0.00005   2.13159
   A47        2.84666  -0.00001   0.00000  -0.00006  -0.00006   2.84660
   A48        2.31227  -0.00001   0.00000  -0.00004  -0.00004   2.31222
   A49        1.83503   0.00001   0.00000   0.00011   0.00011   1.83514
   A50        1.81901   0.00000   0.00000   0.00001   0.00001   1.81902
   A51        1.49713  -0.00000   0.00000   0.00001   0.00001   1.49714
   A52        2.66042  -0.00001   0.00000  -0.00006  -0.00006   2.66035
    D1       -0.75233  -0.00000   0.00000   0.00001   0.00001  -0.75232
    D2        2.56019   0.00000   0.00000  -0.00005  -0.00005   2.56014
    D3        2.47166   0.00000   0.00000   0.00015   0.00015   2.47181
    D4       -1.74900   0.00000   0.00000   0.00012   0.00012  -1.74888
    D5        0.29557   0.00000   0.00000   0.00014   0.00014   0.29572
    D6       -0.83133   0.00000   0.00000   0.00020   0.00020  -0.83112
    D7        1.23120   0.00000   0.00000   0.00017   0.00017   1.23137
    D8       -3.00741   0.00000   0.00000   0.00020   0.00020  -3.00722
    D9        2.37834   0.00000   0.00000  -0.00002  -0.00002   2.37832
   D10       -1.15920   0.00000   0.00000   0.00007   0.00007  -1.15913
   D11        1.04567   0.00000   0.00000   0.00006   0.00006   1.04573
   D12        3.07992   0.00000   0.00000   0.00006   0.00006   3.07999
   D13       -0.62733  -0.00000   0.00000  -0.00018  -0.00018  -0.62751
   D14        2.01693  -0.00000   0.00000   0.00002   0.00002   2.01695
   D15       -0.15501   0.00000   0.00000   0.00012   0.00012  -0.15489
   D16       -1.82618   0.00000   0.00000   0.00020   0.00020  -1.82598
   D17        0.04525   0.00000   0.00000   0.00012   0.00012   0.04537
   D18       -1.52183   0.00000   0.00000   0.00013   0.00013  -1.52169
   D19        2.66408   0.00000   0.00000   0.00013   0.00013   2.66420
   D20        0.61746  -0.00000   0.00000   0.00011   0.00011   0.61757
   D21        2.76971   0.00000   0.00000   0.00017   0.00017   2.76988
   D22        0.67242   0.00000   0.00000   0.00017   0.00017   0.67259
   D23       -1.37419   0.00000   0.00000   0.00015   0.00015  -1.37404
   D24        0.64648   0.00000   0.00000   0.00015   0.00015   0.64664
   D25       -1.45080   0.00000   0.00000   0.00015   0.00015  -1.45066
   D26        2.78577   0.00000   0.00000   0.00013   0.00013   2.78590
   D27       -2.60083   0.00000   0.00000   0.00008   0.00008  -2.60075
   D28       -0.44973   0.00000   0.00000   0.00005   0.00005  -0.44969
   D29        1.66226   0.00000   0.00000   0.00006   0.00006   1.66231
   D30        1.33907  -0.00000   0.00000  -0.00012  -0.00012   1.33896
   D31       -2.83980   0.00000   0.00000  -0.00005  -0.00005  -2.83985
   D32       -0.79179   0.00000   0.00000  -0.00007  -0.00007  -0.79185
   D33       -2.90433  -0.00000   0.00000  -0.00011  -0.00011  -2.90444
   D34       -0.80002   0.00000   0.00000  -0.00005  -0.00005  -0.80007
   D35        1.24799   0.00000   0.00000  -0.00006  -0.00006   1.24793
   D36       -0.80314  -0.00000   0.00000  -0.00009  -0.00009  -0.80323
   D37        1.30118   0.00000   0.00000  -0.00003  -0.00003   1.30115
   D38       -2.93400   0.00000   0.00000  -0.00005  -0.00005  -2.93404
   D39       -2.70276   0.00000   0.00000   0.00005   0.00005  -2.70271
   D40        1.42300   0.00000   0.00000   0.00006   0.00006   1.42305
   D41       -0.66615   0.00000   0.00000   0.00005   0.00005  -0.66610
   D42       -0.85753   0.00000   0.00000   0.00003   0.00003  -0.85750
   D43       -3.02148   0.00000   0.00000   0.00005   0.00005  -3.02143
   D44        1.18020   0.00000   0.00000   0.00003   0.00003   1.18024
   D45       -2.94838   0.00000   0.00000  -0.00001  -0.00001  -2.94838
   D46        1.17085   0.00000   0.00000   0.00002   0.00002   1.17087
   D47       -0.91065   0.00000   0.00000   0.00000   0.00000  -0.91065
   D48        1.25673  -0.00000   0.00000  -0.00003  -0.00003   1.25670
   D49       -0.90723   0.00000   0.00000  -0.00000  -0.00000  -0.90723
   D50       -2.98872  -0.00000   0.00000  -0.00003  -0.00003  -2.98875
   D51       -2.88831   0.00000   0.00000   0.00010   0.00010  -2.88821
   D52       -0.27002   0.00000   0.00000   0.00007   0.00007  -0.26996
   D53       -0.73542   0.00000   0.00000   0.00011   0.00011  -0.73531
   D54        1.88287  -0.00000   0.00000   0.00007   0.00007   1.88294
   D55        1.35416   0.00000   0.00000   0.00013   0.00013   1.35429
   D56       -2.31074   0.00000   0.00000   0.00010   0.00010  -2.31064
   D57        3.04023  -0.00000   0.00000  -0.00018  -0.00018   3.04005
   D58        0.92947  -0.00000   0.00000  -0.00016  -0.00016   0.92931
   D59       -1.12645  -0.00000   0.00000  -0.00018  -0.00018  -1.12663
   D60       -1.04154  -0.00000   0.00000  -0.00020  -0.00020  -1.04174
   D61        3.13089  -0.00000   0.00000  -0.00019  -0.00019   3.13070
   D62        1.07496  -0.00000   0.00000  -0.00020  -0.00020   1.07476
   D63        1.02713  -0.00000   0.00000  -0.00018  -0.00018   1.02696
   D64       -1.08362   0.00000   0.00000  -0.00016  -0.00016  -1.08379
   D65       -3.13955  -0.00000   0.00000  -0.00018  -0.00018  -3.13973
   D66        2.95662   0.00000   0.00000  -0.00001  -0.00001   2.95661
   D67       -1.24143  -0.00000   0.00000  -0.00003  -0.00003  -1.24145
   D68        0.85649  -0.00000   0.00000  -0.00003  -0.00003   0.85646
   D69       -0.77220  -0.00000   0.00000   0.00006   0.00006  -0.77213
   D70       -0.84565   0.00000   0.00000  -0.00002  -0.00002  -0.84567
   D71        0.67486  -0.00000   0.00000  -0.00006  -0.00006   0.67480
   D72        0.79438   0.00000   0.00000  -0.00027  -0.00027   0.79412
   D73       -3.06875  -0.00000   0.00000  -0.00007  -0.00007  -3.06882
   D74       -2.94923   0.00000   0.00000  -0.00028  -0.00028  -2.94951
   D75       -1.89981   0.00000   0.00000  -0.00016  -0.00016  -1.89997
   D76       -0.10186  -0.00000   0.00000   0.00003   0.00003  -0.10183
   D77        1.49907   0.00001   0.00000   0.00013   0.00013   1.49920
   D78        1.68166   0.00001   0.00000   0.00035   0.00035   1.68201
         Item               Value     Threshold  Converged?
 Maximum Force            0.000010     0.000450     YES
 RMS     Force            0.000003     0.000300     YES
 Maximum Displacement     0.000971     0.001800     YES
 RMS     Displacement     0.000193     0.001200     YES
 Predicted change in Energy=-1.116315D-08
 Optimization completed.
    -- Stationary point found.
                           ----------------------------
                           !   Optimized Parameters   !
                           ! (Angstroms and Degrees)  !
 --------------------------                            --------------------------
 ! Name  Definition              Value          Derivative Info.                !
 --------------------------------------------------------------------------------
 ! R1    R(1,4)                  1.2166         -DE/DX =    0.0                 !
 ! R2    R(1,8)                  1.5252         -DE/DX =    0.0                 !
 ! R3    R(1,17)                 1.1064         -DE/DX =    0.0                 !
 ! R4    R(2,7)                  0.9877         -DE/DX =    0.0                 !
 ! R5    R(2,11)                 1.4122         -DE/DX =    0.0                 !
 ! R6    R(3,6)                  0.9689         -DE/DX =    0.0                 !
 ! R7    R(4,5)                  1.8649         -DE/DX =    0.0                 !
 ! R8    R(5,6)                  0.9839         -DE/DX =    0.0                 !
 ! R9    R(6,7)                  1.811          -DE/DX =    0.0                 !
 ! R10   R(8,9)                  1.5563         -DE/DX =    0.0                 !
 ! R11   R(8,14)                 1.4177         -DE/DX =    0.0                 !
 ! R12   R(8,18)                 1.1011         -DE/DX =    0.0                 !
 ! R13   R(9,10)                 1.5458         -DE/DX =    0.0                 !
 ! R14   R(9,15)                 1.4219         -DE/DX =    0.0                 !
 ! R15   R(9,29)                 1.102          -DE/DX =    0.0                 !
 ! R16   R(10,11)                1.5434         -DE/DX =    0.0                 !
 ! R17   R(10,16)                1.4355         -DE/DX =    0.0                 !
 ! R18   R(10,22)                1.1033         -DE/DX =    0.0                 !
 ! R19   R(11,12)                1.5352         -DE/DX =    0.0                 !
 ! R20   R(11,23)                1.0972         -DE/DX =    0.0                 !
 ! R21   R(12,13)                1.4363         -DE/DX =    0.0                 !
 ! R22   R(12,24)                1.0971         -DE/DX =    0.0                 !
 ! R23   R(12,25)                1.1008         -DE/DX =    0.0                 !
 ! R24   R(13,26)                0.9687         -DE/DX =    0.0                 !
 ! R25   R(14,19)                0.9811         -DE/DX =    0.0                 !
 ! R26   R(15,20)                0.9881         -DE/DX =    0.0                 !
 ! R27   R(16,21)                0.9795         -DE/DX =    0.0                 !
 ! R28   R(16,30)                1.8223         -DE/DX =    0.0                 !
 ! R29   R(20,27)                1.7729         -DE/DX =    0.0                 !
 ! R30   R(20,30)                1.9114         -DE/DX =    0.0                 !
 ! R31   R(27,28)                0.9697         -DE/DX =    0.0                 !
 ! R32   R(27,30)                0.9839         -DE/DX =    0.0                 !
 ! A1    A(4,1,8)              123.9859         -DE/DX =    0.0                 !
 ! A2    A(4,1,17)             120.7815         -DE/DX =    0.0                 !
 ! A3    A(8,1,17)             114.5768         -DE/DX =    0.0                 !
 ! A4    A(7,2,11)             109.6595         -DE/DX =    0.0                 !
 ! A5    A(1,4,5)              113.1293         -DE/DX =    0.0                 !
 ! A6    A(4,5,6)              150.3888         -DE/DX =    0.0                 !
 ! A7    A(3,6,5)              104.6748         -DE/DX =    0.0                 !
 ! A8    A(3,6,7)              123.3586         -DE/DX =    0.0                 !
 ! A9    A(5,6,7)               89.3733         -DE/DX =    0.0                 !
 ! A10   A(2,7,6)              163.0482         -DE/DX =    0.0                 !
 ! A11   A(1,8,9)              116.2118         -DE/DX =    0.0                 !
 ! A12   A(1,8,14)             101.714          -DE/DX =    0.0                 !
 ! A13   A(1,8,18)             108.963          -DE/DX =    0.0                 !
 ! A14   A(9,8,14)             108.9717         -DE/DX =    0.0                 !
 ! A15   A(9,8,18)             109.8314         -DE/DX =    0.0                 !
 ! A16   A(14,8,18)            110.8872         -DE/DX =    0.0                 !
 ! A17   A(8,9,10)             115.0413         -DE/DX =    0.0                 !
 ! A18   A(8,9,15)             103.9693         -DE/DX =    0.0                 !
 ! A19   A(8,9,29)             109.113          -DE/DX =    0.0                 !
 ! A20   A(10,9,15)            109.8539         -DE/DX =    0.0                 !
 ! A21   A(10,9,29)            108.8007         -DE/DX =    0.0                 !
 ! A22   A(15,9,29)            109.9359         -DE/DX =    0.0                 !
 ! A23   A(9,10,11)            113.4259         -DE/DX =    0.0                 !
 ! A24   A(9,10,16)            107.5882         -DE/DX =    0.0                 !
 ! A25   A(9,10,22)            108.1415         -DE/DX =    0.0                 !
 ! A26   A(11,10,16)           108.9475         -DE/DX =    0.0                 !
 ! A27   A(11,10,22)           109.8423         -DE/DX =    0.0                 !
 ! A28   A(16,10,22)           108.783          -DE/DX =    0.0                 !
 ! A29   A(2,11,10)            112.7651         -DE/DX =    0.0                 !
 ! A30   A(2,11,12)            108.7977         -DE/DX =    0.0                 !
 ! A31   A(2,11,23)            106.4538         -DE/DX =    0.0                 !
 ! A32   A(10,11,12)           113.107          -DE/DX =    0.0                 !
 ! A33   A(10,11,23)           107.0664         -DE/DX =    0.0                 !
 ! A34   A(12,11,23)           108.3367         -DE/DX =    0.0                 !
 ! A35   A(11,12,13)           109.3464         -DE/DX =    0.0                 !
 ! A36   A(11,12,24)           108.4271         -DE/DX =    0.0                 !
 ! A37   A(11,12,25)           109.1752         -DE/DX =    0.0                 !
 ! A38   A(13,12,24)           110.8233         -DE/DX =    0.0                 !
 ! A39   A(13,12,25)           110.7157         -DE/DX =    0.0                 !
 ! A40   A(24,12,25)           108.303          -DE/DX =    0.0                 !
 ! A41   A(12,13,26)           108.9933         -DE/DX =    0.0                 !
 ! A42   A(8,14,19)            103.591          -DE/DX =    0.0                 !
 ! A43   A(9,15,20)            108.1637         -DE/DX =    0.0                 !
 ! A44   A(10,16,21)           106.3417         -DE/DX =    0.0                 !
 ! A45   A(10,16,30)           123.9866         -DE/DX =    0.0                 !
 ! A46   A(21,16,30)           122.1344         -DE/DX =    0.0                 !
 ! A47   A(15,20,27)           163.1016         -DE/DX =    0.0                 !
 ! A48   A(15,20,30)           132.4832         -DE/DX =    0.0                 !
 ! A49   A(20,27,28)           105.1396         -DE/DX =    0.0                 !
 ! A50   A(28,27,30)           104.2217         -DE/DX =    0.0                 !
 ! A51   A(16,30,20)            85.7792         -DE/DX =    0.0                 !
 ! A52   A(16,30,27)           152.4306         -DE/DX =    0.0                 !
 ! D1    D(8,1,4,5)            -43.1052         -DE/DX =    0.0                 !
 ! D2    D(17,1,4,5)           146.6882         -DE/DX =    0.0                 !
 ! D3    D(4,1,8,9)            141.6157         -DE/DX =    0.0                 !
 ! D4    D(4,1,8,14)          -100.2104         -DE/DX =    0.0                 !
 ! D5    D(4,1,8,18)            16.9351         -DE/DX =    0.0                 !
 ! D6    D(17,1,8,9)           -47.6315         -DE/DX =    0.0                 !
 ! D7    D(17,1,8,14)           70.5425         -DE/DX =    0.0                 !
 ! D8    D(17,1,8,18)         -172.312          -DE/DX =    0.0                 !
 ! D9    D(11,2,7,6)           136.2687         -DE/DX =    0.0                 !
 ! D10   D(7,2,11,10)          -66.4171         -DE/DX =    0.0                 !
 ! D11   D(7,2,11,12)           59.9122         -DE/DX =    0.0                 !
 ! D12   D(7,2,11,23)          176.4665         -DE/DX =    0.0                 !
 ! D13   D(1,4,5,6)            -35.9434         -DE/DX =    0.0                 !
 ! D14   D(4,5,6,3)            115.5618         -DE/DX =    0.0                 !
 ! D15   D(4,5,6,7)             -8.8814         -DE/DX =    0.0                 !
 ! D16   D(3,6,7,2)           -104.6322         -DE/DX =    0.0                 !
[...]
 00001083,0.00001044,0.00000334,-0.00001334,-0.00004830,-0.00002691,0.0
 0008128,0.00001246,0.00001583,0.00007950,0.00019156,0.00084412,0.00196
 643,0.00012750,0.00008043,0.00008942,-0.00016983,0.00020021,0.00014671
 ,-0.09961436,0.24339031,0.00011805,-0.00042070,-0.00028002,-0.00068515
 ,0.00073246,0.00359312,-0.00006174,-0.00005211,-0.00000355,0.00001822,
 0.00025624,0.00013563,-0.00003094,-0.00005351,-0.00007693,-0.00006414,
 0.00010769,0.00012318,0.00030808,-0.00012299,-0.00039081,-0.00021496,-
 0.00010062,0.00012940,0.00086165,-0.00146853,0.00113975,-0.00249526,0.
 00253945,-0.00724714,0.01578919,-0.02790610,-0.01388989,0.04383813,-0.
 08128255,-0.08957707,-0.00568083,0.02509968,0.00725436,0.00011337,0.00
 021529,-0.00020593,-0.00004193,-0.00083289,-0.00122407,-0.00029556,-0.
 00003853,0.00148368,-0.00002233,0.00002730,-0.00000542,0.00003378,0.00
 002609,-0.00001636,-0.00011999,-0.00012695,0.00019925,0.00024234,0.000
 22307,-0.00011987,-0.00005649,-0.00028158,-0.00159931,-0.00001673,0.00
 016866,0.00016485,-0.00017284,0.00030644,0.00161678,-0.04783120,0.0804
 5722,0.09422190,-0.00015682,-0.00015171,0.00006040,0.00238429,0.001074
 97,-0.00028770,0.00009177,0.00004946,-0.00016733,0.00022058,0.00015717
 ,0.00007956,-0.00029527,-0.00001923,-0.00016911,0.00011281,-0.00030926
 ,0.00074592,-0.00057805,0.00052254,-0.00129318,-0.00015991,-0.00004271
 ,-0.00008427,0.00046119,-0.00006079,0.00010345,0.00001524,0.00064546,0
 .00081971,-0.01039744,-0.00125162,-0.00044469,-0.29533900,-0.01275829,
 -0.02172735,-0.00509581,-0.01017410,0.00524401,0.00008185,0.00006583,0
 .00000494,0.00005224,0.00000831,-0.00014289,0.00050135,-0.00003095,-0.
 00047317,0.00004619,0.00000474,0.00000700,0.00008054,-0.00000165,-0.00
 000642,-0.00003726,-0.00003122,0.00003782,-0.00005445,-0.00000984,0.00
 003905,-0.00048576,0.00056579,0.00074091,0.00086174,-0.00062164,-0.000
 43905,0.00088232,-0.00028504,-0.00162143,-0.01446665,-0.00016712,-0.00
 264073,0.32055771,0.00006107,0.00010854,-0.00000350,0.00079149,0.00042
 571,-0.00020564,0.00004702,0.00006909,-0.00003539,-0.00008361,-0.00008
 336,-0.00003498,0.00014641,-0.00000800,0.00006578,-0.00024247,-0.00009
 409,-0.00018743,0.00029634,0.00028433,0.00048755,0.00000209,-0.0000158
 3,-0.00006392,0.00014488,-0.00002704,-0.00021006,-0.00192567,-0.000292
 70,0.00068404,-0.00464363,0.00025933,-0.00114261,-0.00947907,-0.054616
 93,-0.00284371,-0.03496382,-0.01402878,0.00569093,-0.00000552,-0.00000
 257,0.00005028,0.00004255,0.00012706,0.00007074,0.00057607,0.00019406,
 -0.00094079,-0.00001418,-0.00001359,0.00000387,0.00001653,0.00001839,0
 .00000639,0.00000766,-0.00000064,-0.00001847,-0.00006267,-0.00005405,0
 .00004266,-0.00057680,0.00069304,0.00134399,0.00053215,0.00001856,-0.0
 0003581,-0.00048742,0.00031024,-0.00023114,0.02613196,0.00458638,0.002
 02652,0.02354200,0.06108719,-0.00013810,-0.00008308,-0.00001248,0.0015
 4169,-0.00141613,0.00264202,0.00017860,0.00010819,-0.00010428,0.000133
 21,0.00006824,0.00007147,-0.00021012,-0.00001145,-0.00014753,0.0003735
 2,-0.00024223,0.00027115,-0.00011146,0.00091783,-0.00051024,-0.0000395
 3,-0.00003211,0.00000048,-0.00009635,0.00017075,-0.00020196,-0.0016145
 1,0.00174130,0.00204675,-0.03519606,-0.00346031,-0.00406537,-0.0231891
 5,-0.00468624,-0.05583588,0.02188641,0.01214582,-0.00147813,0.00004221
 ,0.00002104,0.00003163,0.00013166,-0.00008340,0.00005124,0.00032335,-0
 .00042098,0.00043618,0.00004314,-0.00000497,0.00002193,0.00006380,0.00
 001085,-0.00001665,-0.00001383,-0.00000577,0.00000660,-0.00001589,0.00
 003966,-0.00002653,-0.00005592,-0.00031634,-0.00101938,0.00111937,-0.0
 0040212,0.00001592,-0.00116322,-0.00034665,-0.00644572,0.01314429,-0.0
 0064073,0.00344445,0.02134539,-0.00268273,0.05892466,0.00008644,-0.000
 05826,-0.00009174,0.00044519,-0.00050844,0.00141257,-0.00001799,-0.000
 04333,0.00012053,-0.00008669,0.00000661,0.00000067,0.00008907,-0.00001
 276,0.00006592,-0.00015114,0.00008116,-0.00017941,0.00031637,0.0000540
 8,-0.00013115,0.00004378,-0.00001359,0.00004718,-0.00006525,0.00004504
 ,0.00005003,0.00037457,-0.00013207,-0.00009780,-0.00155345,-0.00231373
 ,0.00034811,0.00335064,-0.00326439,0.01822327,-0.09395937,-0.01396625,
 -0.19917034,-0.00001685,0.00002358,-0.00005485,-0.00004947,0.00001275,
 -0.00002708,0.00018407,0.00060660,0.00103451,-0.00002670,0.00000759,-0
 .00000091,-0.00003000,-0.00000027,-0.00000742,0.00000092,-0.00000433,0
 .00002719,0.00005608,0.00003288,0.00001601,-0.00055953,-0.00076403,-0.
 00042453,-0.00016656,0.00001674,0.00004625,0.00027721,0.00006849,0.000
 19487,-0.00020520,-0.00019350,-0.00073827,0.00067308,0.00006228,0.0012
 9264,0.09098739,0.00003923,-0.00009022,-0.00019084,0.00000210,-0.00069
 679,0.00269472,-0.00001791,0.00000233,0.00000888,-0.00004638,0.0000113
 8,0.00007039,0.00004424,0.00000838,0.00001718,-0.00006732,-0.00001324,
 -0.00006695,0.00025078,0.00012932,0.00002872,-0.00005159,-0.00007317,0
 .00000285,0.00012984,0.00008081,0.00002855,-0.00080487,-0.00096015,0.0
 0066732,-0.00281166,-0.00522672,-0.00054347,0.01469144,-0.00090849,0.0
 3599585,-0.03113453,-0.03673386,-0.03009860,0.00005050,0.00005973,-0.0
 0009333,0.00004383,-0.00002324,-0.00017011,0.00097518,-0.00189094,-0.0
 0379734,-0.00000619,0.00001292,0.00000872,0.00001097,0.00001112,-0.000
 00443,-0.00004328,-0.00000880,0.00006042,0.00002411,0.00007412,0.00008
 579,-0.00183818,0.00470044,0.00253108,0.00018138,0.00015319,-0.0000499
 0,0.00017203,-0.00001167,-0.00033889,0.00067498,-0.00043538,0.00047752
 ,-0.00081838,0.00106424,-0.00033703,0.02021941,0.04061646,-0.00003153,
 0.00010681,0.00006031,-0.00006946,0.00018395,-0.00142430,0.00006000,0.
 00005047,-0.00008114,0.00004347,-0.00004777,-0.00000456,-0.00008828,0.
 00001836,-0.00006732,0.00005935,-0.00012086,0.00021123,-0.00025021,-0.
 00001449,-0.00030608,-0.00001742,-0.00000093,-0.00009345,0.00008615,0.
 00004606,-0.00025079,-0.00033671,-0.00028875,0.00048367,0.00268977,0.0
 0451276,0.00108106,-0.00986930,-0.00338383,-0.01909473,-0.16954802,0.0
 0932943,-0.41645671,-0.00000536,-0.00001363,0.00009112,0.00000014,0.00
 014219,0.00016910,0.00030315,-0.00063903,0.00046524,0.00001759,-0.0000
 0834,-0.00000382,0.00002200,-0.00000449,0.00000626,0.00001954,0.000011
 74,-0.00004902,-0.00005701,-0.00005886,0.00001514,-0.00078447,0.000169
 92,-0.00198834,0.00019281,0.00001163,-0.00010855,-0.00002861,-0.000047
 39,0.00048850,-0.00052014,-0.00105578,0.00114388,0.00002870,-0.0019045
 2,0.00172964,0.17805611,-0.00698418,0.43397201,-0.00094144,0.00164729,
 0.00024071,0.00022830,-0.00076908,-0.00044240,0.00020003,0.00013851,0.
 00007492,-0.00017688,-0.00130609,-0.00009155,0.00023313,0.00022030,0.0
 0017196,-0.00033814,-0.00036656,-0.00022131,0.00014781,0.00026492,0.00
 016801,0.00109950,-0.00130901,0.00044551,-0.00372004,0.00601358,0.0026
 3485,0.00057879,0.00009345,-0.00107724,-0.00106252,0.00049324,0.000298
 01,0.00011871,-0.00011737,0.00023825,0.00033314,-0.00025137,-0.0009358
 3,-0.00025806,-0.00197923,0.00061932,-0.01162674,-0.01723861,0.0060390
 8,0.00003134,-0.00532806,-0.00574249,0.00018312,-0.00011603,0.00003391
 ,-0.00000142,0.00006729,-0.00007173,0.00046219,0.00134659,-0.00225875,
 -0.00109774,0.01027813,-0.00548070,-0.00182069,-0.00112674,0.00117652,
 -0.00008589,-0.00019456,0.00009426,0.00016236,-0.00005724,-0.00002113,
 0.00000171,-0.00011143,-0.00018640,0.00004376,0.00005146,0.00002310,-0
 .00010475,-0.00015798,0.00005779,0.13773741,-0.00023394,0.00112594,-0.
 00001494,-0.00016060,-0.00088099,-0.00013181,0.00019995,0.00010851,0.0
 0005453,-0.00028533,-0.00089422,0.00000219,0.00021572,0.00019156,0.000
 10019,-0.00043138,-0.00035248,-0.00012330,0.00031373,0.00025736,0.0000
 8377,0.00047354,-0.00004642,-0.00019442,-0.00005903,0.00290563,0.00126
 833,0.00079301,0.00202252,-0.00161110,-0.00025992,0.00077461,0.0002520
 8,0.00010764,0.00009414,0.00024061,0.00013755,-0.00031934,-0.00095742,
 -0.00036740,-0.00089599,0.00092533,-0.01286701,-0.00585031,0.00496770,
 -0.00649513,-0.00529795,-0.00851688,0.00006195,-0.00003527,-0.00000996
 ,-0.00011351,-0.00008896,0.00005257,0.00035741,0.00042522,-0.00138626,
 0.00599219,-0.00664525,-0.00425178,-0.00188428,-0.00102860,0.00162584,
 -0.00058999,-0.00066215,0.00015807,-0.00007111,0.00005659,0.00002629,0
 .00000741,-0.00010614,-0.00012977,-0.00004221,0.00002309,-0.00002282,-
 0.00005273,-0.00025224,0.00005684,-0.07661642,0.59889032,0.00031870,-0
 .00079826,-0.00056998,-0.00017349,-0.00108717,0.00059500,-0.00000066,0
 .00000614,-0.00010193,0.00016588,0.00063995,0.00027464,-0.00013018,-0.
 00003220,-0.00026042,-0.00009061,-0.00006564,0.00033372,0.00030663,0.0
 0010975,-0.00017954,-0.00038228,0.00076518,-0.00053153,0.00183337,-0.0
 0454230,-0.00304295,0.00045360,0.00372637,-0.00489727,-0.00037932,0.00
 029908,0.00068382,0.00016687,0.00088906,-0.00028011,-0.00012534,-0.000
 91585,-0.00039102,0.00014723,0.00125487,0.00061452,0.00901484,0.011541
 57,0.00166494,-0.00694724,-0.01150779,-0.00113051,-0.00003171,0.000034
 35,-0.00000519,0.00017147,0.00000391,0.00010767,-0.00049940,-0.0010260
 3,0.00092615,-0.00374592,-0.00783076,-0.00469080,-0.00097468,-0.000318
 84,0.00143524,-0.00068206,-0.00115262,0.00047261,-0.00006248,0.0001112
 9,-0.00001156,0.00000634,-0.00013839,0.00008135,-0.00007674,-0.0000585
 1,0.00003290,0.00001179,-0.00011566,0.00000856,0.15846486,0.09179758,0
 .36420321,0.00009535,-0.00020317,0.00001233,-0.00001656,0.00015057,0.0
 0005219,-0.00002768,-0.00003093,-0.00000516,0.00001818,0.00015756,-0.0
 0000445,-0.00002440,-0.00003692,-0.00001191,0.00004523,0.00006646,0.00
 001774,-0.00002140,-0.00004338,-0.00002258,-0.00007283,0.00015818,-0.0
 0000271,0.00025358,-0.00023245,-0.00016637,-0.00003710,-0.00005657,0.0
 0015885,0.00008968,-0.00008873,-0.00006548,0.00000800,0.00001294,-0.00
 004733,-0.00008106,0.00003992,0.00013094,0.00001567,0.00014960,-0.0000
 4516,-0.00255219,0.00055392,0.00040845,-0.00081840,0.00020631,-0.00053
 658,-0.00002229,0.00001114,-0.00000906,-0.00000424,-0.00001293,-0.0000
 0406,-0.00004231,-0.00015936,0.00015542,0.00334403,-0.00398477,0.00011
 411,0.00004600,-0.00001604,-0.00022926,-0.00002808,-0.00003328,-0.0000
 1190,-0.00002145,0.00000813,-0.00000137,-0.00000433,0.00002081,0.00002
 706,-0.00001039,-0.00001363,0.00000004,0.00004194,0.00000777,-0.000024
 13,-0.06112609,0.15837345,-0.03510007,0.05732839,0.00009948,-0.0002560
 5,0.00001147,0.00001384,0.00025081,0.00002497,-0.00004413,-0.00002846,
 -0.00000916,0.00004984,0.00020994,-0.00000587,-0.00004622,-0.00004445,
 -0.00001812,0.00009575,0.00008311,0.00002047,-0.00007389,-0.00006297,-
 0.00001618,-0.00017670,0.00013963,0.00002881,0.00048232,-0.00057010,-0
 .00020155,-0.00028855,-0.00020939,0.00039199,0.00014772,-0.00012980,-0
 .00009125,-0.00004478,-0.00004233,-0.00001579,-0.00001478,0.00010931,0
 .00014421,0.00008080,0.00020635,-0.00014473,0.00030422,0.00169587,-0.0
 0042560,-0.00006057,0.00107561,-0.00054596,-0.00002034,0.00001260,-0.0
 0000304,0.00000472,0.00000076,0.00000007,-0.00011084,-0.00016749,0.000
 27314,-0.00059369,-0.00383448,0.00171327,-0.00013680,-0.00008787,-0.00
 023350,0.00006535,0.00004204,-0.00003746,-0.00000873,-0.00000180,0.000
 00831,-0.00000068,0.00003135,0.00002791,0.00000956,-0.00000182,-0.0000
 0544,0.00001563,0.00002861,-0.00001824,0.12825340,-0.43470330,0.047535
 93,-0.14069222,0.46029160,-0.00003476,-0.00000104,0.00004715,0.0000390
 4,0.00013937,-0.00008700,-0.00001044,-0.00000578,0.00001390,0.00001434
 ,0.00000198,-0.00003063,-0.00000033,-0.00000743,0.00002536,0.00003683,
 0.00002514,-0.00003834,-0.00005569,-0.00002295,0.00002669,0.00001185,-
 0.00007511,0.00011043,-0.00024310,-0.00004759,0.00009706,-0.00013399,-
 0.00010875,0.00021098,0.00003257,-0.00002775,-0.00003781,-0.00004062,-
 0.00012300,0.00008278,0.00004271,0.00016339,-0.00007891,0.00004026,-0.
 00006318,-0.00021116,0.00187631,-0.00028368,-0.00059232,-0.00104874,0.
 00039508,-0.00143096,0.00000069,-0.00000440,0.00000918,-0.00000434,0.0
 0001486,-0.00003179,-0.00000265,0.00012993,0.00011692,-0.00310229,0.00
 325422,0.00035404,-0.00021820,-0.00037733,-0.00000208,0.00001184,0.000
 00084,0.00003355,0.00000423,-0.00000513,-0.00000005,0.00000050,0.00002
 607,-0.00000911,0.00001648,0.00001319,-0.00001040,-0.00000809,-0.00004
 355,-0.00001048,-0.04658942,0.09813637,-0.05649828,0.03519958,-0.06083
 538,0.05028592,-0.00134492,0.00235524,-0.00084469,0.00069088,-0.000335
 31,0.00018837,0.00018915,0.00014505,0.00009482,0.00078994,-0.00041218,
 0.00037148,-0.00013849,0.00024539,-0.00010438,0.00010678,-0.00038572,-
 0.00012353,-0.00035764,0.00013082,0.00025807,-0.01884893,-0.00036804,-
 0.00497491,-0.27588916,0.03924292,-0.04615168,-0.00746610,-0.00075366,
 -0.00145937,-0.00013243,0.00094791,0.00007551,0.00041973,-0.00008023,-
 0.00012085,0.00003429,-0.00010505,0.00003069,0.00222151,-0.00002699,0.
 00075915,-0.00259445,0.01134422,0.00208719,0.00153833,0.00064931,-0.00
 009031,0.00096614,-0.00110176,0.00051295,-0.00134955,-0.00167073,0.002
 08402,-0.00044575,0.00068263,-0.00047687,-0.00034606,-0.00112815,0.001
 64376,-0.00002970,0.00017876,0.00004461,0.00046149,0.00000126,-0.00104
 274,0.00062923,-0.00040967,-0.00052402,0.00001037,-0.00002620,-0.00010
 543,0.00002750,0.00006742,0.00024314,-0.00002793,0.00000993,0.00001600
 ,0.00099997,-0.00000271,-0.00036571,-0.00007993,-0.00016811,-0.0000118
 6,0.30025978,-0.00209817,0.00001524,-0.00077162,0.00036306,0.00028783,
 0.00014717,0.00015904,0.00008871,0.00009988,0.00079875,0.00028104,0.00
 034813,-0.00008146,0.00018083,-0.00006461,0.00002952,-0.00028012,-0.00
 010796,-0.00021616,0.00006445,0.00012997,-0.02097045,0.00369389,-0.005
 63653,0.03432631,-0.05631180,0.01087664,-0.00063436,0.00193242,0.00054
 144,-0.00061971,0.00016034,-0.00029912,-0.00015713,0.00007688,0.000057
 20,0.00001600,0.00000311,0.00000552,0.00137164,0.00103042,0.00011845,0
 .03653366,-0.02443338,-0.00212236,0.00013676,0.00046049,-0.00036573,0.
 00070999,-0.00026807,0.00024014,-0.00262045,-0.00222631,0.00243275,-0.
 00015134,-0.00104698,0.00114370,0.00339645,0.00301596,-0.00066416,-0.0
 0004246,0.00006562,-0.00001392,-0.00027050,0.00023901,-0.00062607,0.00
 000454,0.00002598,-0.00005300,0.00000669,0.00000025,0.00004259,0.00004
 973,-0.00002879,-0.00004609,-0.00000208,-0.00001055,0.00000311,-0.0011
 2969,0.00042459,0.00039151,0.00019541,0.00009318,-0.00028642,-0.049464
 38,0.07289303,0.00074620,-0.00015108,0.00091520,0.00030932,-0.00035964
 ,0.00027837,0.00003359,0.00005118,-0.00014244,-0.00042024,-0.00005116,
 -0.00019251,-0.00002767,-0.00008406,-0.00005565,0.00001094,-0.00006307
 ,0.00018395,-0.00007195,0.00023602,-0.00001350,0.01718035,-0.00233170,
 0.00425457,-0.04707941,0.01053231,-0.06445953,-0.03397113,0.00305593,-
 0.00909814,-0.00169526,0.00125889,0.00130613,0.00014061,0.00015617,-0.
 00009979,0.00012621,-0.00005415,0.00000041,-0.00158536,0.00049845,0.00
 104185,0.01459762,-0.00874139,0.00385443,0.00158654,-0.00041798,0.0022
 5683,-0.00041591,0.00005358,-0.00011376,0.00170272,0.00170001,-0.00159
 286,0.00026582,-0.00054087,0.00038302,0.00038598,0.00136241,0.00044481
 ,0.00006741,-0.00015310,0.00012896,-0.00115096,-0.00001242,-0.00617070
 ,0.00098404,-0.00034438,-0.00036664,0.00011626,-0.00002665,-0.00005408
 ,0.00023947,0.00006687,0.00019174,-0.00004049,0.00001768,0.00004769,-0
 .00013221,-0.00019716,0.00013614,0.00000355,0.00001978,0.00002110,0.04
 823999,-0.00564042,0.06728283,0.00029958,-0.00052460,0.00027093,-0.000
 19634,0.00149181,-0.00000088,-0.00013741,-0.00009886,0.00001066,0.0000
 2639,0.00039829,-0.00012550,-0.00007164,-0.00012797,0.00004773,0.00028
 126,0.00029289,-0.00005368,-0.00030341,-0.00027622,-0.00000868,-0.0004
 4146,-0.00009022,0.00006775,0.00099957,-0.00120278,0.00129535,-0.00261
 494,-0.00329111,0.00443543,0.00160187,-0.00048287,-0.00096491,-0.00018
 635,-0.00046922,-0.00008035,-0.00031273,0.00081379,0.00127656,0.000178
 77,0.00025956,-0.00081266,-0.00108606,-0.00030911,-0.00223378,-0.00562
 629,0.00008901,-0.00126283,-0.00008005,0.00004315,-0.00003147,-0.00008
 722,-0.00001054,-0.00002850,-0.00009668,-0.00011600,0.00058291,0.00101
 511,0.00187421,0.00733023,0.00314743,0.00194191,-0.00218834,0.00060078
 ,0.00082817,-0.00026860,-0.00013373,0.00000724,-0.00000456,-0.00000024
 ,0.00017653,0.00011106,-0.00001734,-0.00002092,-0.00004144,0.00009414,
 0.00027053,-0.00002194,-0.06020085,-0.06650087,-0.12129370,0.00370469,
 0.01285837,0.01417730,-0.00029405,0.00036079,-0.00014603,0.05993722,-0
 .00000757,-0.00035985,0.00044142,0.00035593,0.00137020,-0.00026244,-0.
 00016570,-0.00009240,0.00001509,0.00009973,0.00028410,-0.00018520,-0.0
 0008800,-0.00013607,0.00008372,0.00041273,0.00033598,-0.00010501,-0.00
 044231,-0.00026525,0.00002745,-0.00016770,-0.00052257,0.00064521,-0.00
 128926,0.00192849,0.00177164,-0.00234078,-0.00610704,0.00360925,0.0000
 4222,-0.00108370,-0.00048770,-0.00013520,-0.00056389,-0.00017131,-0.00
 009888,0.00072624,0.00124829,0.00021112,-0.00042597,-0.00103068,-0.002
 30459,-0.00434420,-0.00073396,0.00142934,-0.00014987,0.00247215,-0.000
 02355,0.00000756,-0.00000272,0.00001923,0.00008870,-0.00012440,0.00001
 987,0.00041122,0.00007772,0.00344580,0.00657551,0.00108404,0.00234005,
 0.00123759,-0.00320141,0.00125448,0.00149780,-0.00053584,0.00023027,-0
 .00025866,-0.00002928,-0.00000696,0.00016078,0.00008269,0.00008019,-0.
 00000105,0.00002297,0.00007691,0.00038239,-0.00005219,-0.04069269,-0.1
 4924046,-0.12951654,-0.01450779,-0.02413047,-0.03998198,0.00043806,-0.
 00042729,0.00015999,0.05181504,0.17310218,-0.00012678,0.00048280,0.000
 47633,0.00009381,0.00122428,-0.00045827,-0.00003881,-0.00003020,0.0000
 8026,-0.00011677,-0.00037659,-0.00023823,0.00007850,-0.00000551,0.0002
 0882,0.00015014,0.00013003,-0.00026820,-0.00031643,-0.00016481,0.00012
 073,-0.00008618,-0.00022694,0.00011956,0.00093855,0.00376082,0.0023085
 7,0.00039684,-0.00390896,0.00639294,0.00064228,-0.00039342,-0.00076565
 ,-0.00019594,-0.00076639,0.00019036,0.00014313,0.00071730,0.00034111,-
 0.00009352,-0.00088163,-0.00036261,-0.00362179,-0.00462044,0.00097254,
 0.00167246,0.00520849,-0.01044015,-0.00000141,-0.00000378,-0.00000707,
 -0.00025162,-0.00009642,0.00000113,0.00032545,0.00063833,-0.00070270,0
 .00828778,0.00329330,-0.00938166,-0.00112651,-0.00085643,-0.00210391,0
 .00094961,0.00166948,-0.00075743,0.00002882,-0.00012476,0.00005208,-0.
 00000321,0.00014128,-0.00003200,0.00006124,0.00004639,-0.00004420,0.00
 002442,0.00013864,-0.00003411,-0.10752988,-0.18220066,-0.29897941,0.00
 000733,0.01240696,0.00763424,-0.00025340,0.00011981,-0.00036840,0.0999
 6191,0.16467903,0.30604534\\0.00000667,0.00000595,0.00000167,-0.000001
 20,-0.00000299,0.00000066,0.00000248,0.00000588,0.00000651,0.00000164,
 0.00000100,0.00000522,0.00000970,0.00001109,0.00000387,-0.00001090,-0.
 00001487,0.00001345,0.00000797,0.00000490,0.00000626,-0.00001417,-0.00
 000279,0.00000223,-0.00000282,0.00001264,-0.00000125,0.00000628,0.0000
 0232,-0.00000166,0.00000104,-0.00000256,-0.00000012,-0.00000327,-0.000
 01745,0.00000433,-0.00000198,-0.00000067,-0.00000513,0.00000385,-0.000
 00175,-0.00000231,0.00000864,-0.00000823,-0.00001825,-0.00001590,-0.00
 000893,0.00000829,-0.00000274,0.00000055,-0.00000243,0.00000703,0.0000
 0378,0.00000298,0.00000613,0.00000972,-0.00000012,0.00000323,0.0000082
 1,0.00001288,0.00000572,0.00000065,-0.00001105,-0.00000307,-0.00000047
 ,0.00000298,-0.00000427,-0.00000037,-0.00000093,-0.00000592,-0.0000009
 6,0.00000384,-0.00000543,-0.00000315,-0.00000013,-0.00000452,-0.000006
 60,0.00000226,-0.00002371,-0.00001220,-0.00000215,0.00001161,0.0000036
 7,-0.00001220,0.00000737,-0.00000007,-0.00000210,0.00001055,0.00001372
 ,-0.00001763\\\@


 ABOVE ALL I AM AN OPTIMIST FOR NUMBER THEORY,
 AND I HOLD THE HOPE THAT WE MAY NOT BE FAR FROM
 A TIME WHEN IRREFUTABLE ARITHMETIC WILL CELEBRATE
 ITS TRIUMPHS IN PHYSICS AND CHEMISTRY.
   -- HERMANN MINKOWSKI, 1905
 Job cpu time:       0 days  0 hours 33 minutes 14.3 seconds.
 File lengths (MBytes):  RWF=    221 Int=      0 D2E=      0 Chk=      6 Scr=      1
 Normal termination of Gaussian 09 at Sun Jan 15 12:36:33 2017.
