 Entering Gaussian System, Link 0=g09
 Initial command:
 /global/software/gaussian/g09.e01/l1.exe "/scratch/10499781.yak.local/Gau-5756.inp" -scrdir="/scratch/10499781.yak.local/"
 Entering Link 1 = /global/software/gaussian/g09.e01/l1.exe PID=      5757.
  
 Copyright (c) 1988,1990,1992,1993,1995,1998,2003,2009,2015,
            Gaussian, Inc.  All Rights Reserved.
  
 This is part of the Gaussian(R) 09 program.  It is based on
 the Gaussian(R) 03 system (copyright 2003, Gaussian, Inc.),
 the Gaussian(R) 98 system (copyright 1998, Gaussian, Inc.),
 the Gaussian(R) 94 system (copyright 1995, Gaussian, Inc.),
 the Gaussian 92(TM) system (copyright 1992, Gaussian, Inc.),
 the Gaussian 90(TM) system (copyright 1990, Gaussian, Inc.),
 the Gaussian 88(TM) system (copyright 1988, Gaussian, Inc.),
 the Gaussian 86(TM) system (copyright 1986, Carnegie Mellon
 University), and the Gaussian 82(TM) system (copyright 1983,
 Carnegie Mellon University). Gaussian is a federally registered
 trademark of Gaussian, Inc.
  
 This software contains proprietary and confidential information,
 including trade secrets, belonging to Gaussian, Inc.
  
 This software is provided under written license and may be
 used, copied, transmitted, or stored only in accord with that
 written license.
  
 The following legend is applicable only to US Government
 contracts under FAR:
  
                    RESTRICTED RIGHTS LEGEND
  
 Use, reproduction and disclosure by the US Government is
 subject to restrictions as set forth in subparagraphs (a)
 and (c) of the Commercial Computer Software - Restricted
 Rights clause in FAR 52.227-19.
  
 Gaussian, Inc.
 340 Quinnipiac St., Bldg. 40, Wallingford CT 06492
  
  
 ---------------------------------------------------------------
 Warning -- This program may not be used in any manner that
 competes with the business of Gaussian, Inc. or will provide
 assistance to any competitor of Gaussian, Inc.  The licensee
 of this program is prohibited from giving any competitor of
 Gaussian, Inc. access to this program.  By using this program,
 the user acknowledges that Gaussian, Inc. is engaged in the
 business of creating and licensing software in the field of
 computational chemistry and represents and warrants to the
 licensee that it is not a competitor of Gaussian, Inc. and that
 it will not use this program in any manner prohibited above.
 ---------------------------------------------------------------
  

 Cite this work as:
 Gaussian 09, Revision E.01,
 M. J. Frisch, G. W. Trucks, H. B. Schlegel, G. E. Scuseria, 
 M. A. Robb, J. R. Cheeseman, G. Scalmani, V. Barone, B. Mennucci, 
 G. A. Petersson, H. Nakatsuji, M. Caricato, X. Li, H. P. Hratchian, 
 A. F. Izmaylov, J. Bloino, G. Zheng, J. L. Sonnenberg, M. Hada, 
 M. Ehara, K. Toyota, R. Fukuda, J. Hasegawa, M. Ishida, T. Nakajima, 
 Y. Honda, O. Kitao, H. Nakai, T. Vreven, J. A. Montgomery, Jr., 
 J. E. Peralta, F. Ogliaro, M. Bearpark, J. J. Heyd, E. Brothers, 
 K. N. Kudin, V. N. Staroverov, T. Keith, R. Kobayashi, J. Normand, 
 K. Raghavachari, A. Rendell, J. C. Burant, S. S. Iyengar, J. Tomasi, 
 M. Cossi, N. Rega, J. M. Millam, M. Klene, J. E. Knox, J. B. Cross, 
 V. Bakken, C. Adamo, J. Jaramillo, R. Gomperts, R. E. Stratmann, 
 O. Yazyev, A. J. Austin, R. Cammi, C. Pomelli, J. W. Ochterski, 
 R. L. Martin, K. Morokuma, V. G. Zakrzewski, G. A. Voth, 
 P. Salvador, J. J. Dannenberg, S. Dapprich, A. D. Daniels, 
 O. Farkas, J. B. Foresman, J. V. Ortiz, J. Cioslowski, 
 and D. J. Fox, Gaussian, Inc., Wallingford CT, 2013.
 
 ******************************************
 Gaussian 09:  ES64L-G09RevE.01 30-Nov-2015
                30-Jan-2017 
 ******************************************
 %NPROCS=4
 Will use up to    4 processors via shared memory.
 ----------------------------------------------------------------------
 # opt=(calcfc,ts,noeigentest,maxcycle=1000,cartesian) b3lyp 6-31g(d) f
 req
 ----------------------------------------------------------------------
 1/5=1,6=1000,10=4,11=1,14=-1,18=10,26=3,38=1/1,3;
 2/12=2,17=6,18=5,29=2,40=1/2;
 3/5=1,6=6,7=1,11=2,16=1,25=1,30=1,71=2,74=-5,140=1/1,2,3;
 4//1;
 5/5=2,38=5/2;
 8/6=4,10=90,11=11/1;
 11/6=1,8=1,9=11,15=111,16=1/1,2,10;
 10/6=1,13=1/2;
 6/7=2,8=2,9=2,10=2,28=1/1;
 7/7=1,10=1,18=20,25=1/1,2,3,16;
 1/5=1,6=1000,10=4,11=1,14=-1,18=10,26=3/3(2);
 2/29=1/2;
 99/12=1/99;
 2/29=1/2;
 3/5=1,6=6,7=1,11=2,16=1,25=1,30=1,71=1,74=-5/1,2,3;
 4/5=5,16=3,69=1/1;
 5/5=2,38=5/2;
 7/7=1/1,2,3,16;
 1/5=1,6=1000,11=1,14=-1,18=10,26=3/3(-5);
 2/29=1/2;
 6/7=2,8=2,9=2,10=2,19=2,28=1/1;
 99/9=1,12=1/99;
 ------------------------------------------
 ./2/glo_1w_beta_boat2_b3lyp_631Gd_iopt.out
 ------------------------------------------
 Symbolic Z-matrix:
 Charge =  0 Multiplicity = 1
 H                     0.97208   1.28533  -1.61522 
 C                     1.13502   0.69888  -0.69513 
 C                    -0.41664   0.1644    1.25727 
 C                    -0.56009  -1.00142  -1.02364 
 C                    -1.1436   -0.92352   0.40647 
 O                     0.85937  -0.67489  -0.97511 
 C                     0.22603   1.28059   0.41499 
 H                    -1.16761   0.6149    1.91793 
 H                    -1.05534  -0.28217  -1.68783 
 H                    -0.92266  -1.87855   0.89907 
 H                     0.83159   1.90254   1.08242 
 C                     2.61583   0.79407  -0.33632 
 H                     3.20431   0.25375  -1.09301 
 H                     2.77641   0.3249    0.64355 
 O                    -0.68084  -2.24715  -1.60952 
 H                    -0.40094  -2.90892  -0.95472 
 O                     2.93488   2.18195  -0.31621 
 H                     3.79191   2.28735   0.12714 
 O                    -2.54647  -0.83983   0.40309 
 H                    -2.85426   0.00588   0.00178 
 O                     0.61358  -0.38099   2.07847 
 H                     0.87466  -1.25961   1.73726 
 O                    -0.82168   2.08964  -0.15335 
 H                    -0.40829   2.82191  -0.63809 
 H                     2.26726  -3.2331    0.76341 
 O                     1.42904  -2.7651    0.65067 
 H                     1.56947  -2.10646  -0.06561 
 O                    -3.53474   1.66753  -0.28663 
 H                    -2.64017   2.04105  -0.14463 
 H                    -4.00266   1.80397   0.55363 
 

 GradGradGradGradGradGradGradGradGradGradGradGradGradGradGradGradGradGrad
 Berny optimization.
 Initialization pass.
 No Z-matrix variables, so optimization will use Cartesian coordinates.
 Trust Radius=3.00D-01 FncErr=1.00D-07 GrdErr=1.00D-06
 Number of steps in this run=    180 maximum allowed number of steps=    180.
 Search for a saddle point of order  1.
 GradGradGradGradGradGradGradGradGradGradGradGradGradGradGradGradGradGrad

 ---------------------------------------------------------------------------------------------------
                            Z-MATRIX (ANGSTROMS AND DEGREES)
   CD    Cent   Atom    N1       Length/X        N2       Alpha/Y        N3        Beta/Z          J
 ---------------------------------------------------------------------------------------------------
      1      1  H        0   0.972080          1.285330         -1.615220
      2      2  C        0   1.135020          0.698880         -0.695130
      3      3  C        0  -0.416640          0.164400          1.257270
      4      4  C        0  -0.560090         -1.001420         -1.023640
      5      5  C        0  -1.143600         -0.923520          0.406470
      6      6  O        0   0.859370         -0.674890         -0.975110
      7      7  C        0   0.226030          1.280590          0.414990
      8      8  H        0  -1.167610          0.614900          1.917930
      9      9  H        0  -1.055340         -0.282170         -1.687830
     10     10  H        0  -0.922660         -1.878550          0.899070
     11     11  H        0   0.831590          1.902540          1.082420
     12     12  C        0   2.615830          0.794070         -0.336320
     13     13  H        0   3.204310          0.253750         -1.093010
     14     14  H        0   2.776410          0.324900          0.643550
     15     15  O        0  -0.680840         -2.247150         -1.609520
     16     16  H        0  -0.400940         -2.908920         -0.954720
     17     17  O        0   2.934880          2.181950         -0.316210
     18     18  H        0   3.791910          2.287350          0.127140
     19     19  O        0  -2.546470         -0.839830          0.403090
     20     20  H        0  -2.854260          0.005880          0.001780
     21     21  O        0   0.613580         -0.380990          2.078470
     22     22  H        0   0.874660         -1.259610          1.737260
     23     23  O        0  -0.821680          2.089640         -0.153350
     24     24  H        0  -0.408290          2.821910         -0.638090
     25     25  H        0   2.267260         -3.233100          0.763410
     26     26  O        0   1.429040         -2.765100          0.650670
     27     27  H        0   1.569470         -2.106460         -0.065610
     28     28  O        0  -3.534740          1.667530         -0.286630
     29     29  H        0  -2.640170          2.041050         -0.144630
     30     30  H        0  -4.002660          1.803970          0.553630
 ---------------------------------------------------------------------------------------------------
                         Z-Matrix orientation:                         
 ---------------------------------------------------------------------
 Center     Atomic      Atomic             Coordinates (Angstroms)
 Number     Number       Type             X           Y           Z
 ---------------------------------------------------------------------
      1          1           0        0.972080    1.285330   -1.615220
      2          6           0        1.135020    0.698880   -0.695130
      3          6           0       -0.416640    0.164400    1.257270
      4          6           0       -0.560090   -1.001420   -1.023640
      5          6           0       -1.143600   -0.923520    0.406470
      6          8           0        0.859370   -0.674890   -0.975110
      7          6           0        0.226030    1.280590    0.414990
      8          1           0       -1.167610    0.614900    1.917930
      9          1           0       -1.055340   -0.282170   -1.687830
     10          1           0       -0.922660   -1.878550    0.899070
     11          1           0        0.831590    1.902540    1.082420
     12          6           0        2.615830    0.794070   -0.336320
     13          1           0        3.204310    0.253750   -1.093010
     14          1           0        2.776410    0.324900    0.643550
     15          8           0       -0.680840   -2.247150   -1.609520
     16          1           0       -0.400940   -2.908920   -0.954720
     17          8           0        2.934880    2.181950   -0.316210
     18          1           0        3.791910    2.287350    0.127140
     19          8           0       -2.546470   -0.839830    0.403090
     20          1           0       -2.854260    0.005880    0.001780
     21          8           0        0.613580   -0.380990    2.078470
     22          1           0        0.874660   -1.259610    1.737260
     23          8           0       -0.821680    2.089640   -0.153350
     24          1           0       -0.408290    2.821910   -0.638090
     25          1           0        2.267260   -3.233100    0.763410
     26          8           0        1.429040   -2.765100    0.650670
     27          1           0        1.569470   -2.106460   -0.065610
     28          8           0       -3.534740    1.667530   -0.286630
     29          1           0       -2.640170    2.041050   -0.144630
     30          1           0       -4.002660    1.803970    0.553630
 ---------------------------------------------------------------------
                    Distance matrix (angstroms):
                    1          2          3          4          5
     1  H    0.000000
     2  C    1.103195   0.000000
     3  C    3.381749   2.550526   0.000000
     4  C    2.815446   2.423290   2.565592   0.000000
     5  C    3.666381   3.006296   1.560737   1.546534   0.000000
     6  O    2.065165   1.428851   2.704835   1.457341   2.445909
     7  C    2.162953   1.548230   1.538941   2.809842   2.595007
     8  H    4.184603   3.483854   1.096986   3.410924   2.156809
     9  H    2.563740   2.597227   3.046470   1.097152   2.192079
    10  H    4.463388   3.663150   2.134949   2.144208   1.097065
    11  H    2.770911   2.168075   2.147040   3.847759   3.513531
    12  C    2.139821   1.526632   3.483086   3.712501   4.199425
    13  H    2.513904   2.153697   4.317763   3.968749   4.747497
    14  H    3.046321   2.150834   3.255454   3.958646   4.120830
    15  O    3.900076   3.579462   3.755511   1.381911   2.455679
    16  H    4.462418   3.929730   3.786614   1.915368   2.519166
    17  O    2.518718   2.362747   4.216519   4.780075   5.176892
    18  H    3.462846   3.202878   4.847268   5.574962   5.894656
    19  O    4.579309   4.138488   2.504851   2.450995   1.405368
    20  H    4.346557   4.108563   2.746521   2.707278   1.988446
    21  O    4.067984   3.021734   1.425894   3.374244   2.485479
    22  H    4.210146   3.133687   1.981325   3.122137   2.440765
    23  O    2.449807   2.460978   2.420838   3.221876   3.081585
    24  H    2.285013   2.625322   3.264172   3.845718   3.957276
    25  H    5.267977   4.343935   4.357777   4.020927   4.134674
    26  O    4.663588   3.727839   3.515177   3.141738   3.173252
    27  H    3.776560   2.907744   3.294154   2.583401   2.997158
    28  O    4.714091   4.786629   3.790195   4.063868   3.593255
    29  H    3.972669   4.044321   3.229741   3.788933   3.366320
    30  H    5.451691   5.401517   4.005351   4.712672   3.954122
                    6          7          8          9         10
     6  O    0.000000
     7  C    2.481411   0.000000
     8  H    3.760570   2.155042   0.000000
     9  H    2.080460   2.916501   3.717371   0.000000
    10  H    2.852539   3.396173   2.704694   3.042710   0.000000
    11  H    3.298082   1.094983   2.520495   4.000968   4.172248
    12  C    2.377193   2.551923   4.407739   4.057384   4.603259
    13  H    2.524879   3.492652   5.320702   4.334240   5.054401
    14  H    2.700867   2.733134   4.154929   4.526166   4.313189
    15  O    2.290573   4.167254   4.568499   2.001881   2.547031
    16  H    2.565090   4.452100   4.610554   2.804551   2.184123
    17  O    3.592134   2.947028   4.927215   4.886214   5.731072
    18  H    4.311567   3.716440   5.531804   5.778614   6.338594
    19  O    3.677824   3.490427   2.512416   2.628003   1.990401
    20  H    3.899847   3.359139   2.624371   2.484727   2.843815
    21  O    3.077522   2.382899   2.047000   4.120689   2.448204
    22  H    2.774722   2.936279   2.778002   4.051115   2.077501
    23  O    3.338240   1.440579   2.566072   2.834556   4.106619
    24  H    3.734723   1.971549   3.461315   3.340051   4.972098
    25  H    3.398389   4.966026   5.285674   5.075060   3.468256
    26  O    2.708627   4.227338   4.446677   4.219676   2.525503
    27  H    1.838702   3.675312   4.339567   3.584586   2.682026
    28  O    5.026842   3.845177   3.401679   3.451393   4.561089
    29  H    4.506973   3.017710   2.908005   3.207881   4.404817
    30  H    5.667550   4.263211   3.363437   4.250037   4.813178
                   11         12         13         14         15
    11  H    0.000000
    12  C    2.534767   0.000000
    13  H    3.616739   1.100379   0.000000
    14  H    2.542416   1.098204   1.789917   0.000000
    15  O    5.172418   4.662413   4.649266   4.862545   0.000000
    16  H    5.368353   4.816166   4.797857   4.807038   0.972135
    17  O    2.541272   1.424222   2.096179   2.096399   5.861997
    18  H    3.134347   1.956488   2.443270   2.269169   6.601755
    19  O    4.403791   5.464952   6.041995   5.454124   3.084108
    20  H    4.283759   5.536916   6.161678   5.676098   3.520822
    21  O    2.500831   3.349773   4.144039   2.689816   4.331206
    22  H    3.229530   3.398383   3.965849   2.706202   3.820439
    23  O    2.072543   3.678105   4.523500   4.086026   4.576900
    24  H    2.311428   3.653560   4.455702   4.244994   5.168494
    25  H    5.342070   4.189153   4.059862   3.596243   3.910778
    26  O    4.725486   3.879473   3.912219   3.370987   3.135016
    27  H    4.234917   3.095356   3.049401   2.805552   2.732645
    28  O    4.581961   6.212480   6.932807   6.519088   5.021902
    29  H    3.684828   5.405297   6.184805   5.736352   4.936956
    30  H    4.864083   6.753985   7.553477   6.939130   5.667917
                   16         17         18         19         20
    16  H    0.000000
    17  O    6.119832   0.000000
    18  H    6.763995   0.970654   0.000000
    19  O    3.275375   6.300297   7.073222   0.000000
    20  H    3.928070   6.192781   7.027972   0.985398   0.000000
    21  O    4.076754   4.206137   4.585794   3.606016   4.060569
    22  H    3.405016   4.506171   4.866596   3.695992   4.303278
    23  O    5.079844   3.761222   4.626335   3.444753   2.915048
    24  H    5.739575   3.419056   4.302675   4.366258   3.784472
    25  H    3.190040   5.561840   5.762358   5.387909   6.107458
    26  O    2.438604   5.260771   5.602186   4.424098   5.142572
    27  H    2.305857   4.507505   4.927673   4.331858   4.902643
    28  O    5.586675   6.490107   7.364454   2.781950   1.818602
    29  H    5.492959   5.579469   6.442529   2.933981   2.051630
    30  H    6.120363   7.002068   7.821181   3.022057   2.203744
                   21         22         23         24         25
    21  O    0.000000
    22  H    0.978039   0.000000
    23  O    3.625604   4.203505   0.000000
    24  H    4.322324   4.893573   0.970610   0.000000
    25  H    3.549447   2.604301   6.222022   6.766529   0.000000
    26  O    2.896130   1.937657   5.411163   6.020911   0.966616
    27  H    2.913426   2.109563   4.830378   5.341170   1.563171
    28  O    5.196026   5.666312   2.748933   3.351240   7.666940
    29  H    4.625510   5.175896   1.819160   2.415478   7.261134
    30  H    5.329996   5.880030   3.271095   3.921211   8.045370
                   26         27         28         29         30
    26  O    0.000000
    27  H    0.983150   0.000000
    28  O    6.720554   6.351756   0.000000
    29  H    6.347444   5.910089   0.979764   0.000000
    30  H    7.098534   6.835463   0.971392   1.549243   0.000000
 Stoichiometry    C6H16O8
 Framework group  C1[X(C6H16O8)]
 Deg. of freedom    84
 Full point group                 C1      NOp   1
 Largest Abelian subgroup         C1      NOp   1
 Largest concise Abelian subgroup C1      NOp   1
                         Standard orientation:                         
 ---------------------------------------------------------------------
 Center     Atomic      Atomic             Coordinates (Angstroms)
 Number     Number       Type             X           Y           Z
 ---------------------------------------------------------------------
      1          1           0       -0.972079   -1.285329   -1.615222
      2          6           0       -1.135019   -0.698879   -0.695132
      3          6           0        0.416642   -0.164400    1.257268
      4          6           0        0.560092    1.001420   -1.023642
      5          6           0        1.143602    0.923520    0.406468
      6          8           0       -0.859368    0.674891   -0.975112
      7          6           0       -0.226029   -1.280590    0.414988
      8          1           0        1.167611   -0.614900    1.917928
      9          1           0        1.055342    0.282170   -1.687832
     10          1           0        0.922662    1.878550    0.899068
     11          1           0       -0.831589   -1.902539    1.082418
     12          6           0       -2.615829   -0.794069   -0.336322
     13          1           0       -3.204308   -0.253749   -1.093012
     14          1           0       -2.776409   -0.324899    0.643548
     15          8           0        0.680842    2.247150   -1.609522
     16          1           0        0.400942    2.908920   -0.954722
     17          8           0       -2.934879   -2.181949   -0.316212
     18          1           0       -3.791909   -2.287349    0.127138
     19          8           0        2.546472    0.839830    0.403088
     20          1           0        2.854262   -0.005880    0.001778
     21          8           0       -0.613578    0.380991    2.078468
     22          1           0       -0.874658    1.259611    1.737258
     23          8           0        0.821681   -2.089640   -0.153352
     24          1           0        0.408291   -2.821910   -0.638092
     25          1           0       -2.267258    3.233101    0.763408
     26          8           0       -1.429038    2.765101    0.650668
     27          1           0       -1.569468    2.106461   -0.065612
     28          8           0        3.534741   -1.667530   -0.286632
     29          1           0        2.640171   -2.041050   -0.144632
     30          1           0        4.002661   -1.803970    0.553628
 ---------------------------------------------------------------------
 Rotational constants (GHZ):      0.6977751      0.5570337      0.4098640
 Standard basis: 6-31G(d) (6D, 7F)
 There are   242 symmetry adapted cartesian basis functions of A   symmetry.
 There are   242 symmetry adapted basis functions of A   symmetry.
   242 basis functions,   456 primitive gaussians,   242 cartesian basis functions
    58 alpha electrons       58 beta electrons
       nuclear repulsion energy      1122.3686019162 Hartrees.
 NAtoms=   30 NActive=   30 NUniq=   30 SFac= 1.00D+00 NAtFMM=   60 NAOKFM=F Big=F
 Integral buffers will be    131072 words long.
 Raffenetti 2 integral format.
 Two-electron integral symmetry is turned on.
 One-electron integrals computed using PRISM.
 NBasis=   242 RedAO= T EigKep=  1.58D-03  NBF=   242
 NBsUse=   242 1.00D-06 EigRej= -1.00D+00 NBFU=   242
 ExpMin= 1.61D-01 ExpMax= 5.48D+03 ExpMxC= 8.25D+02 IAcc=1 IRadAn=         1 AccDes= 0.00D+00
 Harris functional with IExCor=  402 and IRadAn=       1 diagonalized for initial guess.
 HarFok:  IExCor=  402 AccDes= 0.00D+00 IRadAn=         1 IDoV= 1 UseB2=F ITyADJ=14
 ICtDFT=  3500011 ScaDFX=  1.000000  1.000000  1.000000  1.000000
 FoFCou: FMM=F IPFlag=           0 FMFlag=      100000 FMFlg1=           0
         NFxFlg=           0 DoJE=T BraDBF=F KetDBF=T FulRan=T
         wScrn=  0.000000 ICntrl=     500 IOpCl=  0 I1Cent=   200000004 NGrid=           0
         NMat0=    1 NMatS0=      1 NMatT0=    0 NMatD0=    1 NMtDS0=    0 NMtDT0=    0
 Petite list used in FoFCou.
 Requested convergence on RMS density matrix=1.00D-08 within 128 cycles.
 Requested convergence on MAX density matrix=1.00D-06.
 Requested convergence on             energy=1.00D-06.
 No special actions if energy rises.
 Integral accuracy reduced to 1.0D-05 until final iterations.
 Initial convergence to 1.0D-05 achieved.  Increase integral accuracy.
 SCF Done:  E(RB3LYP) =  -839.987469488     A.U. after   14 cycles
            NFock= 14  Conv=0.33D-08     -V/T= 2.0085
 DoSCS=F DFT=T ScalE2(SS,OS)=  1.000000  1.000000
 Range of M.O.s used for correlation:     1   242
 NBasis=   242 NAE=    58 NBE=    58 NFC=     0 NFV=     0
 NROrb=    242 NOA=    58 NOB=    58 NVA=   184 NVB=   184
 Symmetrizing basis deriv contribution to polar:
 IMax=3 JMax=2 DiffMx= 0.00D+00
 G2DrvN: will do    31 centers at a time, making    1 passes.
 Calling FoFCou, ICntrl=  3107 FMM=F I1Cent=   0 AccDes= 0.00D+00.
 End of G2Drv F.D. properties file   721 does not exist.
 End of G2Drv F.D. properties file   722 does not exist.
 End of G2Drv F.D. properties file   788 does not exist.
          IDoAtm=111111111111111111111111111111
          Differentiating once with respect to nuclear coordinates.
          There are    93 degrees of freedom in the 1st order CPHF.  IDoFFX=6 NUNeed=     0.
     87 vectors produced by pass  0 Test12= 1.15D-14 1.08D-09 XBig12= 1.20D-01 8.51D-02.
 AX will form    87 AO Fock derivatives at one time.
     87 vectors produced by pass  1 Test12= 1.15D-14 1.08D-09 XBig12= 1.01D-02 9.91D-03.
     87 vectors produced by pass  2 Test12= 1.15D-14 1.08D-09 XBig12= 1.21D-04 1.46D-03.
     87 vectors produced by pass  3 Test12= 1.15D-14 1.08D-09 XBig12= 3.07D-07 6.51D-05.
     87 vectors produced by pass  4 Test12= 1.15D-14 1.08D-09 XBig12= 3.48D-10 1.78D-06.
     69 vectors produced by pass  5 Test12= 1.15D-14 1.08D-09 XBig12= 2.49D-13 5.28D-08.
      2 vectors produced by pass  6 Test12= 1.15D-14 1.08D-09 XBig12= 1.85D-16 1.56D-09.
 InvSVY:  IOpt=1 It=  1 EMax= 4.44D-16
 Solved reduced A of dimension   506 with    93 vectors.
 End of Minotr F.D. properties file   721 does not exist.
 End of Minotr F.D. properties file   722 does not exist.
 End of Minotr F.D. properties file   788 does not exist.

 **********************************************************************

            Population analysis using the SCF density.

 **********************************************************************

 Orbital symmetries:
       Occupied  (A) (A) (A) (A) (A) (A) (A) (A) (A) (A) (A) (A)
                 (A) (A) (A) (A) (A) (A) (A) (A) (A) (A) (A) (A)
                 (A) (A) (A) (A) (A) (A) (A) (A) (A) (A) (A) (A)
                 (A) (A) (A) (A) (A) (A) (A) (A) (A) (A) (A) (A)
                 (A) (A) (A) (A) (A) (A) (A) (A) (A) (A)
       Virtual   (A) (A) (A) (A) (A) (A) (A) (A) (A) (A) (A) (A)
                 (A) (A) (A) (A) (A) (A) (A) (A) (A) (A) (A) (A)
                 (A) (A) (A) (A) (A) (A) (A) (A) (A) (A) (A) (A)
                 (A) (A) (A) (A) (A) (A) (A) (A) (A) (A) (A) (A)
                 (A) (A) (A) (A) (A) (A) (A) (A) (A) (A) (A) (A)
                 (A) (A) (A) (A) (A) (A) (A) (A) (A) (A) (A) (A)
                 (A) (A) (A) (A) (A) (A) (A) (A) (A) (A) (A) (A)
                 (A) (A) (A) (A) (A) (A) (A) (A) (A) (A) (A) (A)
                 (A) (A) (A) (A) (A) (A) (A) (A) (A) (A) (A) (A)
                 (A) (A) (A) (A) (A) (A) (A) (A) (A) (A) (A) (A)
                 (A) (A) (A) (A) (A) (A) (A) (A) (A) (A) (A) (A)
                 (A) (A) (A) (A) (A) (A) (A) (A) (A) (A) (A) (A)
                 (A) (A) (A) (A) (A) (A) (A) (A) (A) (A) (A) (A)
                 (A) (A) (A) (A) (A) (A) (A) (A) (A) (A) (A) (A)
                 (A) (A) (A) (A) (A) (A) (A) (A) (A) (A) (A) (A)
                 (A) (A) (A) (A)
 The electronic state is 1-A.
 Alpha  occ. eigenvalues --  -19.17890 -19.17110 -19.16569 -19.16525 -19.15450
 Alpha  occ. eigenvalues --  -19.14566 -19.13304 -19.11875 -10.28494 -10.25268
 Alpha  occ. eigenvalues --  -10.24663 -10.24646 -10.23548 -10.23044  -1.07644
 Alpha  occ. eigenvalues --   -1.04713  -1.03600  -1.02375  -1.01289  -1.00929
 Alpha  occ. eigenvalues --   -1.00428  -0.99042  -0.78244  -0.75722  -0.69179
 Alpha  occ. eigenvalues --   -0.65148  -0.62934  -0.58912  -0.55445  -0.54426
 Alpha  occ. eigenvalues --   -0.54159  -0.53639  -0.52567  -0.49423  -0.49113
 Alpha  occ. eigenvalues --   -0.47903  -0.46492  -0.45265  -0.44062  -0.42626
 Alpha  occ. eigenvalues --   -0.41937  -0.40122  -0.39030  -0.38143  -0.36993
 Alpha  occ. eigenvalues --   -0.36646  -0.36065  -0.35649  -0.34362  -0.32386
 Alpha  occ. eigenvalues --   -0.31408  -0.30604  -0.30001  -0.29032  -0.28785
 Alpha  occ. eigenvalues --   -0.28042  -0.25607  -0.24059
 Alpha virt. eigenvalues --    0.03951   0.05359   0.05445   0.08503   0.08834
 Alpha virt. eigenvalues --    0.10975   0.11738   0.12636   0.13875   0.14390
 Alpha virt. eigenvalues --    0.14817   0.15753   0.16466   0.17266   0.18698
 Alpha virt. eigenvalues --    0.19616   0.21206   0.22508   0.22910   0.23316
 Alpha virt. eigenvalues --    0.24184   0.26780   0.26867   0.29300   0.30459
 Alpha virt. eigenvalues --    0.32395   0.33216   0.35665   0.52176   0.53881
 Alpha virt. eigenvalues --    0.54463   0.55385   0.57511   0.57682   0.58603
 Alpha virt. eigenvalues --    0.61353   0.62134   0.63787   0.65142   0.66289
 Alpha virt. eigenvalues --    0.68264   0.68980   0.72748   0.75114   0.75824
 Alpha virt. eigenvalues --    0.76793   0.78846   0.79756   0.80901   0.81521
 Alpha virt. eigenvalues --    0.82567   0.83039   0.84542   0.84842   0.85121
 Alpha virt. eigenvalues --    0.85863   0.87125   0.87509   0.89146   0.89400
 Alpha virt. eigenvalues --    0.90300   0.91479   0.93201   0.94037   0.94765
 Alpha virt. eigenvalues --    0.96721   0.97416   0.98486   1.01724   1.02149
 Alpha virt. eigenvalues --    1.04024   1.04891   1.06011   1.08307   1.09031
 Alpha virt. eigenvalues --    1.09879   1.11753   1.12505   1.13457   1.15806
 Alpha virt. eigenvalues --    1.16598   1.18298   1.23080   1.24938   1.25205
 Alpha virt. eigenvalues --    1.27961   1.29972   1.31713   1.33599   1.37283
 Alpha virt. eigenvalues --    1.39948   1.42915   1.43807   1.45011   1.47559
 Alpha virt. eigenvalues --    1.52166   1.53633   1.55678   1.58631   1.61714
 Alpha virt. eigenvalues --    1.64150   1.64739   1.66227   1.67712   1.70241
 Alpha virt. eigenvalues --    1.70636   1.72221   1.73100   1.73372   1.74073
 Alpha virt. eigenvalues --    1.75605   1.76086   1.79128   1.79692   1.80100
 Alpha virt. eigenvalues --    1.81500   1.82065   1.82685   1.86256   1.86310
 Alpha virt. eigenvalues --    1.88625   1.90360   1.91525   1.93737   1.97575
 Alpha virt. eigenvalues --    1.98816   1.99521   2.03804   2.04319   2.06320
 Alpha virt. eigenvalues --    2.07482   2.08911   2.10346   2.12304   2.15276
 Alpha virt. eigenvalues --    2.17500   2.19720   2.24097   2.28290   2.30778
 Alpha virt. eigenvalues --    2.31927   2.33752   2.34157   2.34980   2.40046
 Alpha virt. eigenvalues --    2.41304   2.43024   2.43628   2.46320   2.49047
 Alpha virt. eigenvalues --    2.49994   2.52300   2.53913   2.57044   2.60021
 Alpha virt. eigenvalues --    2.61129   2.62686   2.64625   2.67390   2.69371
 Alpha virt. eigenvalues --    2.71920   2.76688   2.80114   2.84961   2.90813
 Alpha virt. eigenvalues --    2.91687   2.96322   3.00769   3.05143   3.09945
 Alpha virt. eigenvalues --    3.70141   3.72217   3.74902   3.84666   3.90444
 Alpha virt. eigenvalues --    4.01183   4.05738   4.17933   4.25363   4.41978
 Alpha virt. eigenvalues --    4.46826   4.55214   4.67431   4.80847
          Condensed to atoms (all electrons):
               1          2          3          4          5          6
     1  H    0.636426   0.363227   0.003630  -0.005480  -0.000489  -0.036932
     2  C    0.363227   4.963689  -0.036531  -0.014231  -0.019240   0.196484
     3  C    0.003630  -0.036531   4.984104  -0.048216   0.271973   0.008048
     4  C   -0.005480  -0.014231  -0.048216   4.783551   0.280808   0.123388
     5  C   -0.000489  -0.019240   0.271973   0.280808   5.035091  -0.038497
     6  O   -0.036932   0.196484   0.008048   0.123388  -0.038497   8.421469
     7  C   -0.071605   0.258937   0.278424  -0.007952  -0.016029  -0.040803
     8  H   -0.000171   0.006594   0.363369   0.005297  -0.045160  -0.000077
     9  H    0.008393  -0.001913  -0.001859   0.365201  -0.057853  -0.041100
    10  H    0.000021   0.000622  -0.055539  -0.047352   0.363593   0.001472
    11  H    0.004507  -0.060624  -0.032510   0.000236   0.004676   0.003259
    12  C   -0.047182   0.336579  -0.002753   0.003449  -0.000014  -0.036472
    13  H   -0.008273  -0.038776   0.000053  -0.000076  -0.000025   0.004844
    14  H    0.006715  -0.028869   0.000799  -0.000139   0.000107   0.001784
    15  O    0.000043   0.002693   0.003054   0.295764  -0.030311  -0.052576
    16  H    0.000006   0.000040   0.000071  -0.029474  -0.010485   0.000427
    17  O    0.005478  -0.049774   0.000580  -0.000021  -0.000009   0.001006
    18  H   -0.000188   0.005476  -0.000025   0.000001   0.000001  -0.000092
    19  O    0.000021   0.000247  -0.035901  -0.033951   0.255632   0.001524
    20  H    0.000010   0.000096  -0.002221  -0.006187  -0.024353   0.000032
    21  O    0.000010   0.011651   0.241073   0.000595  -0.019789  -0.002590
    22  H    0.000042   0.000893  -0.033118  -0.000016  -0.004300   0.001479
    23  O   -0.000161  -0.032323  -0.032111  -0.000077   0.002473   0.001014
    24  H    0.006374  -0.003724   0.005013  -0.000069  -0.000220  -0.000067
    25  H    0.000004  -0.000032  -0.000001  -0.000159   0.000176   0.000786
    26  O   -0.000033   0.000794  -0.000032   0.004515  -0.004809  -0.022608
    27  H    0.000469  -0.003031   0.000760  -0.005282   0.000120   0.052903
    28  O   -0.000001  -0.000042   0.000615  -0.000166   0.000981   0.000001
    29  H   -0.000001   0.000535  -0.001142  -0.000074   0.000384  -0.000013
    30  H   -0.000000   0.000003   0.000016   0.000025  -0.000090  -0.000000
               7          8          9         10         11         12
     1  H   -0.071605  -0.000171   0.008393   0.000021   0.004507  -0.047182
     2  C    0.258937   0.006594  -0.001913   0.000622  -0.060624   0.336579
     3  C    0.278424   0.363369  -0.001859  -0.055539  -0.032510  -0.002753
     4  C   -0.007952   0.005297   0.365201  -0.047352   0.000236   0.003449
     5  C   -0.016029  -0.045160  -0.057853   0.363593   0.004676  -0.000014
     6  O   -0.040803  -0.000077  -0.041100   0.001472   0.003259  -0.036472
     7  C    5.162334  -0.065211  -0.005579   0.006126   0.365114  -0.013730
     8  H   -0.065211   0.623190  -0.000302  -0.002092  -0.005550  -0.000192
     9  H   -0.005579  -0.000302   0.598324   0.004998   0.000166  -0.000034
    10  H    0.006126  -0.002092   0.004998   0.595356  -0.000186   0.000049
    11  H    0.365114  -0.005550   0.000166  -0.000186   0.587427  -0.003446
    12  C   -0.013730  -0.000192  -0.000034   0.000049  -0.003446   4.937172
    13  H    0.006026   0.000007  -0.000027  -0.000004   0.000670   0.352026
    14  H   -0.014921   0.000042   0.000024  -0.000049   0.000967   0.345129
    15  O   -0.000152  -0.000072  -0.039653  -0.004652   0.000004  -0.000100
    16  H   -0.000019  -0.000008   0.007228   0.009520  -0.000001   0.000009
    17  O   -0.000173   0.000003   0.000004   0.000000   0.011239   0.226404
    18  H    0.000095  -0.000001   0.000000  -0.000000  -0.000309  -0.020730
    19  O    0.001474   0.005469   0.001610  -0.037053  -0.000082  -0.000002
    20  H   -0.000605   0.000032   0.004591   0.005137  -0.000005   0.000000
    21  O   -0.062266  -0.034286  -0.000072   0.000345   0.002071  -0.006651
    22  H    0.001056   0.004074   0.000043   0.005705  -0.000249   0.000119
    23  O    0.151433   0.004596   0.005764  -0.000009  -0.035814   0.002675
    24  H   -0.016247  -0.000326   0.000204   0.000010  -0.003120  -0.000411
    25  H   -0.000009   0.000002   0.000004   0.000108  -0.000000   0.000024
    26  O   -0.000076  -0.000029  -0.000085   0.004981   0.000004   0.000126
    27  H   -0.000289   0.000046   0.000775  -0.001203  -0.000023  -0.001071
    28  O    0.000202   0.000576   0.000288  -0.000034  -0.000023   0.000000
    29  H   -0.002744   0.001201   0.000089   0.000018   0.000204  -0.000007
    30  H   -0.000092   0.000459  -0.000026   0.000003   0.000002   0.000000
              13         14         15         16         17         18
     1  H   -0.008273   0.006715   0.000043   0.000006   0.005478  -0.000188
     2  C   -0.038776  -0.028869   0.002693   0.000040  -0.049774   0.005476
     3  C    0.000053   0.000799   0.003054   0.000071   0.000580  -0.000025
     4  C   -0.000076  -0.000139   0.295764  -0.029474  -0.000021   0.000001
     5  C   -0.000025   0.000107  -0.030311  -0.010485  -0.000009   0.000001
     6  O    0.004844   0.001784  -0.052576   0.000427   0.001006  -0.000092
     7  C    0.006026  -0.014921  -0.000152  -0.000019  -0.000173   0.000095
     8  H    0.000007   0.000042  -0.000072  -0.000008   0.000003  -0.000001
     9  H   -0.000027   0.000024  -0.039653   0.007228   0.000004   0.000000
    10  H   -0.000004  -0.000049  -0.004652   0.009520   0.000000  -0.000000
    11  H    0.000670   0.000967   0.000004  -0.000001   0.011239  -0.000309
    12  C    0.352026   0.345129  -0.000100   0.000009   0.226404  -0.020730
    13  H    0.632226  -0.050113  -0.000004  -0.000000  -0.036061  -0.001170
    14  H   -0.050113   0.612005   0.000003  -0.000005  -0.030829  -0.006213
    15  O   -0.000004   0.000003   8.203143   0.231432   0.000000  -0.000000
    16  H   -0.000000  -0.000005   0.231432   0.369233  -0.000000   0.000000
    17  O   -0.036061  -0.030829   0.000000  -0.000000   8.263589   0.236171
    18  H   -0.001170  -0.006213  -0.000000   0.000000   0.236171   0.383178
    19  O   -0.000000  -0.000001   0.001281   0.000251   0.000000  -0.000000
    20  H   -0.000000   0.000000  -0.000024   0.000050   0.000000   0.000000
    21  O    0.000133   0.013801  -0.000004   0.000009   0.000020   0.000003
    22  H   -0.000062   0.000534  -0.000069  -0.000245  -0.000003   0.000000
    23  O   -0.000085   0.000118   0.000023  -0.000001  -0.000262   0.000010
    24  H   -0.000010   0.000018  -0.000001   0.000000   0.000735  -0.000020
    25  H   -0.000004   0.000116   0.000137  -0.000306   0.000000  -0.000000
    26  O   -0.000057   0.000685  -0.003536   0.016485   0.000000   0.000000
    27  H    0.000769   0.001571   0.003426  -0.000205   0.000017  -0.000004
    28  O   -0.000000   0.000000   0.000001  -0.000000   0.000000   0.000000
    29  H    0.000000   0.000000  -0.000001   0.000000  -0.000000  -0.000000
    30  H    0.000000  -0.000000  -0.000000   0.000000   0.000000  -0.000000
              19         20         21         22         23         24
     1  H    0.000021   0.000010   0.000010   0.000042  -0.000161   0.006374
     2  C    0.000247   0.000096   0.011651   0.000893  -0.032323  -0.003724
     3  C   -0.035901  -0.002221   0.241073  -0.033118  -0.032111   0.005013
     4  C   -0.033951  -0.006187   0.000595  -0.000016  -0.000077  -0.000069
     5  C    0.255632  -0.024353  -0.019789  -0.004300   0.002473  -0.000220
     6  O    0.001524   0.000032  -0.002590   0.001479   0.001014  -0.000067
     7  C    0.001474  -0.000605  -0.062266   0.001056   0.151433  -0.016247
     8  H    0.005469   0.000032  -0.034286   0.004074   0.004596  -0.000326
     9  H    0.001610   0.004591  -0.000072   0.000043   0.005764   0.000204
    10  H   -0.037053   0.005137   0.000345   0.005705  -0.000009   0.000010
    11  H   -0.000082  -0.000005   0.002071  -0.000249  -0.035814  -0.003120
    12  C   -0.000002   0.000000  -0.006651   0.000119   0.002675  -0.000411
    13  H   -0.000000  -0.000000   0.000133  -0.000062  -0.000085  -0.000010
    14  H   -0.000001   0.000000   0.013801   0.000534   0.000118   0.000018
    15  O    0.001281  -0.000024  -0.000004  -0.000069   0.000023  -0.000001
    16  H    0.000251   0.000050   0.000009  -0.000245  -0.000001   0.000000
    17  O    0.000000   0.000000   0.000020  -0.000003  -0.000262   0.000735
    18  H   -0.000000   0.000000   0.000003   0.000000   0.000010  -0.000020
    19  O    8.326917   0.196579   0.001562   0.000100  -0.000370   0.000025
    20  H    0.196579   0.340988  -0.000027   0.000014   0.001495   0.000004
    21  O    0.001562  -0.000027   8.328951   0.216335   0.001503  -0.000124
    22  H    0.000100   0.000014   0.216335   0.331871  -0.000062   0.000006
    23  O   -0.000370   0.001495   0.001503  -0.000062   8.333950   0.230391
    24  H    0.000025   0.000004  -0.000124   0.000006   0.230391   0.370412
    25  H   -0.000001   0.000000   0.000569  -0.001576  -0.000000   0.000000
    26  O    0.000026  -0.000001  -0.014014   0.055853   0.000000  -0.000000
    27  H   -0.000021   0.000002   0.002292  -0.005731  -0.000008   0.000001
    28  O   -0.025364   0.078243   0.000001  -0.000000  -0.019062   0.001034
    29  H    0.003402  -0.007589   0.000009   0.000000   0.049869  -0.003021
    30  H    0.002656  -0.005488   0.000000   0.000000   0.000614  -0.000037
              25         26         27         28         29         30
     1  H    0.000004  -0.000033   0.000469  -0.000001  -0.000001  -0.000000
     2  C   -0.000032   0.000794  -0.003031  -0.000042   0.000535   0.000003
     3  C   -0.000001  -0.000032   0.000760   0.000615  -0.001142   0.000016
     4  C   -0.000159   0.004515  -0.005282  -0.000166  -0.000074   0.000025
     5  C    0.000176  -0.004809   0.000120   0.000981   0.000384  -0.000090
     6  O    0.000786  -0.022608   0.052903   0.000001  -0.000013  -0.000000
     7  C   -0.000009  -0.000076  -0.000289   0.000202  -0.002744  -0.000092
     8  H    0.000002  -0.000029   0.000046   0.000576   0.001201   0.000459
     9  H    0.000004  -0.000085   0.000775   0.000288   0.000089  -0.000026
    10  H    0.000108   0.004981  -0.001203  -0.000034   0.000018   0.000003
    11  H   -0.000000   0.000004  -0.000023  -0.000023   0.000204   0.000002
    12  C    0.000024   0.000126  -0.001071   0.000000  -0.000007   0.000000
    13  H   -0.000004  -0.000057   0.000769  -0.000000   0.000000   0.000000
    14  H    0.000116   0.000685   0.001571   0.000000   0.000000  -0.000000
    15  O    0.000137  -0.003536   0.003426   0.000001  -0.000001  -0.000000
    16  H   -0.000306   0.016485  -0.000205  -0.000000   0.000000   0.000000
    17  O    0.000000   0.000000   0.000017   0.000000  -0.000000   0.000000
    18  H   -0.000000   0.000000  -0.000004   0.000000  -0.000000  -0.000000
    19  O   -0.000001   0.000026  -0.000021  -0.025364   0.003402   0.002656
    20  H    0.000000  -0.000001   0.000002   0.078243  -0.007589  -0.005488
    21  O    0.000569  -0.014014   0.002292   0.000001   0.000009   0.000000
    22  H   -0.001576   0.055853  -0.005731  -0.000000   0.000000   0.000000
    23  O   -0.000000   0.000000  -0.000008  -0.019062   0.049869   0.000614
    24  H    0.000000  -0.000000   0.000001   0.001034  -0.003021  -0.000037
    25  H    0.366945   0.237456  -0.006936  -0.000000   0.000000   0.000000
    26  O    0.237456   8.345274   0.190020   0.000000  -0.000000  -0.000000
    27  H   -0.006936   0.190020   0.348497  -0.000000   0.000000   0.000000
    28  O   -0.000000   0.000000  -0.000000   8.310738   0.211967   0.239181
    29  H    0.000000  -0.000000   0.000000   0.211967   0.332206  -0.013259
    30  H    0.000000  -0.000000   0.000000   0.239181  -0.013259   0.379168
 Mulliken charges:
               1
     1  H    0.135141
     2  C    0.140549
     3  C    0.120376
     4  C    0.336094
     5  C    0.055660
     6  O   -0.548090
     7  C    0.087283
     8  H    0.138519
     9  H    0.150797
    10  H    0.150109
    11  H    0.161398
    12  C   -0.070964
    13  H    0.137994
    14  H    0.146721
    15  O   -0.609847
    16  H    0.405991
    17  O   -0.628114
    18  H    0.403818
    19  O   -0.666030
    20  H    0.419227
    21  O   -0.681109
    22  H    0.427302
    23  O   -0.665583
    24  H    0.413169
    25  H    0.402698
    26  O   -0.810940
    27  H    0.422135
    28  O   -0.799134
    29  H    0.427965
    30  H    0.396865
 Sum of Mulliken charges =  -0.00000
 Mulliken charges with hydrogens summed into heavy atoms:
               1
     2  C    0.275690
     3  C    0.258895
     4  C    0.486891
     5  C    0.205770
     6  O   -0.548090
     7  C    0.248681
    12  C    0.213751
    15  O   -0.203855
    17  O   -0.224296
    19  O   -0.246803
    21  O   -0.253807
    23  O   -0.252415
    26  O    0.013894
    28  O    0.025696
 APT charges:
               1
     1  H    0.395640
     2  C   -0.307577
     3  C   -0.337340
     4  C   -0.170837
     5  C   -0.389320
     6  O   -0.392771
     7  C   -0.267584
     8  H    0.455393
     9  H    0.358426
    10  H    0.415736
    11  H    0.462161
    12  C   -0.476222
    13  H    0.475284
    14  H    0.293503
    15  O   -0.580535
    16  H    0.585596
    17  O   -1.102034
    18  H    0.941505
    19  O   -0.602505
    20  H    0.471282
    21  O   -0.649597
    22  H    0.472298
    23  O   -0.926817
    24  H    0.750641
    25  H    0.948003
    26  O   -1.160120
    27  H    0.263496
    28  O   -0.911062
    29  H    0.187213
    30  H    0.798145
 Sum of APT charges =  -0.00000
 APT charges with hydrogens summed into heavy atoms:
               1
     2  C    0.088062
     3  C    0.118052
     4  C    0.187589
     5  C    0.026417
     6  O   -0.392771
     7  C    0.194577
    12  C    0.292565
    15  O    0.005061
    17  O   -0.160529
    19  O   -0.131222
    21  O   -0.177299
    23  O   -0.176176
    26  O    0.051379
    28  O    0.074296
 Electronic spatial extent (au):  <R**2>=           3003.8675
 Charge=             -0.0000 electrons
 Dipole moment (field-independent basis, Debye):
    X=             -5.0366    Y=             -2.0583    Z=              0.8352  Tot=              5.5047
 Quadrupole moment (field-independent basis, Debye-Ang):
   XX=            -75.2466   YY=            -74.3449   ZZ=            -92.2375
   XY=             -9.2893   XZ=              3.6363   YZ=              0.4280
 Traceless Quadrupole moment (field-independent basis, Debye-Ang):
   XX=              5.3630   YY=              6.2648   ZZ=            -11.6278
   XY=             -9.2893   XZ=              3.6363   YZ=              0.4280
 Octapole moment (field-independent basis, Debye-Ang**2):
  XXX=            -74.9684  YYY=              8.4294  ZZZ=             -7.4609  XYY=            -21.4562
  XXY=            -10.2737  XXZ=             35.2338  XZZ=              5.0728  YZZ=            -12.3466
  YYZ=             12.7040  XYZ=             -7.8077
 Hexadecapole moment (field-independent basis, Debye-Ang**3):
 XXXX=          -1426.5640 YYYY=          -1079.3168 ZZZZ=           -587.6640 XXXY=            -36.0531
 XXXZ=             45.6935 YYYX=           -103.4337 YYYZ=             18.2081 ZZZX=              8.7956
 ZZZY=             21.3573 XXYY=           -402.9822 XXZZ=           -374.3251 YYZZ=           -305.1655
 XXYZ=            -61.6586 YYXZ=             -9.5429 ZZXY=            -22.3388
 N-N= 1.122368601916D+03 E-N=-4.217277736287D+03  KE= 8.328721047423D+02
  Exact polarizability:   0.000   0.000   0.000   0.000   0.000   0.000
 Approx polarizability: 134.250  -4.464 136.039  -5.103   4.449 115.519
 Calling FoFJK, ICntrl=    100147 FMM=F ISym2X=0 I1Cent= 0 IOpClX= 0 NMat=1 NMatS=1 NMatT=0.
 ***** Axes restored to original set *****
 -------------------------------------------------------------------
 Center     Atomic                   Forces (Hartrees/Bohr)
 Number     Number              X              Y              Z
 -------------------------------------------------------------------
      1        1           0.000080978   -0.000343254    0.000427613
      2        6           0.000129148    0.000077411   -0.000181205
      3        6          -0.000014100   -0.000009116    0.000036444
      4        6           0.000154772    0.000288453    0.000311068
      5        6           0.000071729   -0.000008009   -0.000270772
      6        8          -0.000277474    0.000628023   -0.000021253
      7        6           0.000040175    0.000023666    0.000001105
      8        1           0.000108781   -0.000095664   -0.000076544
      9        1           0.000191801   -0.000166935    0.000141158
     10        1          -0.000055830   -0.000085675   -0.000008738
     11        1          -0.000028209    0.000054604   -0.000071162
     12        6          -0.000355007   -0.000065846   -0.000094278
     13        1          -0.000140112    0.000031039    0.000038317
     14        1          -0.000101217   -0.000069546   -0.000066361
     15        8          -0.000498497    0.001015837   -0.000829616
     16        1           0.000416481   -0.001263123    0.001013466
     17        8           0.002367622    0.000085954    0.001025444
     18        1          -0.002035526   -0.000000095   -0.001130505
     19        8           0.000419808    0.000762940    0.000058087
     20        1          -0.000189203   -0.000541119    0.000009444
     21        8          -0.000239179    0.000195158   -0.000245491
     22        1          -0.000062702   -0.000195956    0.000014984
     23        8           0.000112957    0.000451535   -0.000350658
     24        1          -0.000207934   -0.000663790    0.000630099
     25        1           0.001818244   -0.001198215    0.000391433
     26        8          -0.001587354    0.001936647   -0.001561555
     27        1          -0.000258882   -0.000795556    0.001062848
     28        8          -0.000537047    0.000313872    0.001535626
     29        1          -0.000441277   -0.000111573   -0.000271748
     30        1           0.001117054   -0.000251669   -0.001517251
 -------------------------------------------------------------------
 Cartesian Forces:  Max     0.002367622 RMS     0.000690126

 GradGradGradGradGradGradGradGradGradGradGradGradGradGradGradGradGradGrad
 Berny optimization.
 Search for a saddle point.
 Step number   1 out of a maximum of  180
 All quantities printed in internal units (Hartrees-Bohrs-Radians)
 Swapping is turned off.
 Second derivative matrix not updated -- analytic derivatives used.
 ITU=  0
     Eigenvalues ---   -0.00002   0.00021   0.00054   0.00145   0.00186
     Eigenvalues ---    0.00226   0.00280   0.00389   0.00430   0.00475
     Eigenvalues ---    0.00499   0.00656   0.00700   0.00890   0.01025
     Eigenvalues ---    0.01114   0.01239   0.01362   0.01626   0.01802
     Eigenvalues ---    0.01856   0.02062   0.02585   0.02804   0.03080
     Eigenvalues ---    0.03276   0.03307   0.03858   0.04113   0.04319
     Eigenvalues ---    0.04961   0.05033   0.05254   0.05681   0.06072
     Eigenvalues ---    0.06375   0.06974   0.07499   0.07708   0.08214
     Eigenvalues ---    0.09107   0.10035   0.11285   0.13157   0.13742
     Eigenvalues ---    0.14251   0.15630   0.15997   0.16493   0.16907
     Eigenvalues ---    0.18553   0.20021   0.21409   0.23201   0.26861
     Eigenvalues ---    0.29727   0.30693   0.36072   0.43760   0.44553
     Eigenvalues ---    0.51981   0.53953   0.58863   0.60849   0.64088
     Eigenvalues ---    0.65273   0.66022   0.72415   0.74264   0.77349
     Eigenvalues ---    0.78020   0.79825   0.83052   0.84681   0.85655
     Eigenvalues ---    0.88706   0.90264   0.96962   1.00976   1.03007
     Eigenvalues ---    1.05764   1.06886   1.09896   1.14108
 Eigenvectors required to have negative eigenvalues:
                          Z30       Z28       Z24       Z29       Z23
   1                    0.47413   0.38137  -0.26321   0.23330  -0.22696
                          Y25       Z25       Z8        X1        Z13
   1                    0.20860   0.17692  -0.13907   0.13904   0.13791
 RFO step:  Lambda0=1.788052058D-04 Lambda=-1.05759917D-04.
 Linear search not attempted -- option 19 set.
 Maximum step size (   0.300) exceeded in Quadratic search.
    -- Step size scaled by   0.312
 B after Tr=    -0.000354   -0.000535   -0.003279
         Rot=    1.000000   -0.000163    0.000036   -0.000036 Ang=  -0.02 deg.
 Variable       Old X    -DE/DX   Delta X   Delta X   Delta X     New X
                                 (Linear)    (Quad)   (Total)
    X1        1.83696   0.00008   0.00000   0.04452   0.04420   1.88117
    Y1        2.42892  -0.00034   0.00000  -0.00613  -0.00553   2.42339
    Z1       -3.05232   0.00043   0.00000  -0.01364  -0.01599  -3.06832
    X2        2.14488   0.00013   0.00000   0.01459   0.01423   2.15911
    Y2        1.32069   0.00008   0.00000  -0.00508  -0.00503   1.31566
    Z2       -1.31361  -0.00018   0.00000  -0.00826  -0.01096  -1.32456
    X3       -0.78734  -0.00001   0.00000  -0.01223  -0.01277  -0.80011
    Y3        0.31067  -0.00001   0.00000   0.01095   0.00959   0.32026
    Z3        2.37590   0.00004   0.00000  -0.02679  -0.03002   2.34588
    X4       -1.05842   0.00015   0.00000   0.00912   0.00904  -1.04937
    Y4       -1.89241   0.00029   0.00000   0.00009   0.00012  -1.89229
    Z4       -1.93440   0.00031   0.00000  -0.02114  -0.02511  -1.95951
    X5       -2.16109   0.00007   0.00000   0.00095   0.00067  -2.16042
    Y5       -1.74520  -0.00001   0.00000   0.00097   0.00004  -1.74516
    Z5        0.76812  -0.00027   0.00000  -0.02508  -0.02908   0.73903
    X6        1.62397  -0.00028   0.00000   0.00973   0.00961   1.63358
    Y6       -1.27536   0.00063   0.00000  -0.00340  -0.00321  -1.27857
    Z6       -1.84269  -0.00002   0.00000  -0.01165  -0.01523  -1.85792
    X7        0.42713   0.00004   0.00000  -0.01081  -0.01139   0.41574
    Y7        2.41996   0.00002   0.00000   0.00388   0.00313   2.42309
    Z7        0.78422   0.00000   0.00000  -0.03529  -0.03775   0.74647
    X8       -2.20646   0.00011   0.00000  -0.02139  -0.02209  -2.22855
    Y8        1.16199  -0.00010   0.00000   0.01518   0.01332   1.17531
    Z8        3.62436  -0.00008   0.00000  -0.04007  -0.04313   3.58123
    X9       -1.99430   0.00019   0.00000   0.01551   0.01542  -1.97888
    Y9       -0.53322  -0.00017   0.00000   0.00051   0.00088  -0.53235
    Z9       -3.18954   0.00014   0.00000  -0.02449  -0.02808  -3.21762
   X10       -1.74357  -0.00006   0.00000   0.00710   0.00688  -1.73670
   Y10       -3.54995  -0.00009   0.00000   0.00405   0.00284  -3.54711
   Z10        1.69900  -0.00001   0.00000  -0.02147  -0.02603   1.67297
   X11        1.57148  -0.00003   0.00000  -0.03066  -0.03142   1.54006
   Y11        3.59528   0.00005   0.00000   0.02732   0.02624   3.62152
   Z11        2.04548  -0.00007   0.00000  -0.03890  -0.04089   2.00458
   X12        4.94320  -0.00036   0.00000   0.00638   0.00596   4.94916
   Y12        1.50057  -0.00007   0.00000  -0.01763  -0.01761   1.48297
   Z12       -0.63555  -0.00009   0.00000   0.02852   0.02607  -0.60948
   X13        6.05527  -0.00014   0.00000   0.01747   0.01723   6.07250
   Y13        0.47952   0.00003   0.00000  -0.03213  -0.03157   0.44795
   Z13       -2.06549   0.00004   0.00000   0.04751   0.04480  -2.02068
   X14        5.24665  -0.00010   0.00000  -0.02322  -0.02371   5.22295
   Y14        0.61397  -0.00007   0.00000  -0.01019  -0.01076   0.60321
   Z14        1.21613  -0.00007   0.00000   0.03661   0.03390   1.25004
   X15       -1.28660  -0.00050   0.00000   0.01004   0.01021  -1.27639
   Y15       -4.24650   0.00102   0.00000  -0.00016   0.00021  -4.24629
   Z15       -3.04155  -0.00083   0.00000  -0.02106  -0.02581  -3.06737
   X16       -0.75767   0.00042   0.00000  -0.00710  -0.00693  -0.76459
   Y16       -5.49706  -0.00126   0.00000  -0.00330  -0.00330  -5.50036
   Z16       -1.80416   0.00101   0.00000  -0.01578  -0.02090  -1.82506
   X17        5.54612   0.00237   0.00000   0.02295   0.02234   5.56846
   Y17        4.12329   0.00009   0.00000  -0.02155  -0.02150   4.10179
   Z17       -0.59755   0.00103   0.00000   0.02254   0.02100  -0.57655
   X18        7.16567  -0.00204   0.00000   0.01617   0.01548   7.18116
   Y18        4.32247  -0.00000   0.00000  -0.02738  -0.02749   4.29498
   Z18        0.24026  -0.00113   0.00000   0.03388   0.03251   0.27277
   X19       -4.81213   0.00042   0.00000   0.00066   0.00037  -4.81176
   Y19       -1.58705   0.00076   0.00000  -0.01188  -0.01300  -1.60005
   Z19        0.76173   0.00006   0.00000  -0.03100  -0.03515   0.72658
   X20       -5.39377  -0.00019   0.00000  -0.00760  -0.00795  -5.40172
   Y20        0.01111  -0.00054   0.00000   0.00346   0.00253   0.01364
   Z20        0.00336   0.00001   0.00000   0.00854   0.00488   0.00825
   X21        1.15950  -0.00024   0.00000  -0.02091  -0.02150   1.13800
   Y21       -0.71997   0.00020   0.00000   0.02382   0.02209  -0.69788
   Z21        3.92774  -0.00025   0.00000  -0.00900  -0.01242   3.91531
   X22        1.65287  -0.00006   0.00000  -0.01267  -0.01309   1.63978
   Y22       -2.38032  -0.00020   0.00000   0.02151   0.02002  -2.36029
   Z22        3.28295   0.00001   0.00000   0.00191  -0.00202   3.28092
   X23       -1.55275   0.00011   0.00000  -0.01540  -0.01601  -1.56876
   Y23        3.94885   0.00045   0.00000  -0.02762  -0.02815   3.92070
   Z23       -0.28979  -0.00035   0.00000  -0.07175  -0.07386  -0.36365
   X24       -0.77156  -0.00021   0.00000  -0.02096  -0.02161  -0.79316
   Y24        5.33264  -0.00066   0.00000  -0.02827  -0.02845   5.30419
   Z24       -1.20582   0.00063   0.00000  -0.07637  -0.07798  -1.28379
   X25        4.28450   0.00182   0.00000   0.02098   0.02096   4.30546
   Y25       -6.10967  -0.00120   0.00000   0.04467   0.04397  -6.06571
   Z25        1.44264   0.00039   0.00000   0.04558   0.04063   1.48327
   X26        2.70049  -0.00159   0.00000   0.00934   0.00927   2.70976
   Y26       -5.22528   0.00194   0.00000   0.02097   0.02022  -5.20506
   Z26        1.22959  -0.00156   0.00000   0.02264   0.01786   1.24745
   X27        2.96587  -0.00026   0.00000   0.00311   0.00306   2.96892
   Y27       -3.98063  -0.00080   0.00000   0.01039   0.01011  -3.97053
   Z27       -0.12398   0.00106   0.00000   0.01276   0.00840  -0.11559
   X28       -6.67969  -0.00054   0.00000  -0.02879  -0.02934  -6.70903
   Y28        3.15118   0.00031   0.00000   0.01620   0.01532   3.16649
   Z28       -0.54165   0.00154   0.00000   0.11607   0.11335  -0.42831
   X29       -4.98920  -0.00044   0.00000  -0.02027  -0.02089  -5.01009
   Y29        3.85703  -0.00011   0.00000   0.01628   0.01545   3.87248
   Z29       -0.27331  -0.00027   0.00000   0.05809   0.05572  -0.21760
   X30       -7.56393   0.00112   0.00000   0.03444   0.03376  -7.53017
   Y30        3.40901  -0.00025   0.00000  -0.00902  -0.01049   3.39852
   Z30        1.04621  -0.00152   0.00000   0.15399   0.15128   1.19749
         Item               Value     Threshold  Converged?
 Maximum Force            0.002368     0.000450     NO 
 RMS     Force            0.000690     0.000300     NO 
 Maximum Displacement     0.151278     0.001800     NO 
 RMS     Displacement     0.031557     0.001200     NO 
 Predicted change in Energy= 2.716424D-05
 GradGradGradGradGradGradGradGradGradGradGradGradGradGradGradGradGradGrad

                          Input orientation:                          
 ---------------------------------------------------------------------
 Center     Atomic      Atomic             Coordinates (Angstroms)
 Number     Number       Type             X           Y           Z
 ---------------------------------------------------------------------
      1          1           0        0.995472    1.282404   -1.623684
      2          6           0        1.142551    0.696218   -0.700928
      3          6           0       -0.423400    0.169477    1.241386
      4          6           0       -0.555305   -1.001356   -1.036928
      5          6           0       -1.143244   -0.923498    0.391080
      6          8           0        0.864453   -0.676590   -0.983168
      7          6           0        0.220001    1.282245    0.395016
      8          1           0       -1.179299    0.621947    1.895108
      9          1           0       -1.047178   -0.281706   -1.702689
     10          1           0       -0.919020   -1.877048    0.885297
     11          1           0        0.814964    1.916428    1.060780
     12          6           0        2.618984    0.784754   -0.322522
     13          1           0        3.213427    0.237044   -1.069300
     14          1           0        2.763864    0.319207    0.661491
     15          8           0       -0.675438   -2.247040   -1.623180
     16          1           0       -0.404605   -2.910667   -0.965780
     17          8           0        2.946702    2.170575   -0.305099
     18          1           0        3.800104    2.272805    0.144346
     19          8           0       -2.546275   -0.846709    0.384492
     20          1           0       -2.858468    0.007219    0.004364
     21          8           0        0.602204   -0.369301    2.071895
     22          1           0        0.867736   -1.249014    1.736189
     23          8           0       -0.830152    2.074743   -0.192435
     24          1           0       -0.419723    2.806856   -0.679353
     25          1           0        2.278350   -3.209834    0.784912
     26          8           0        1.433946   -2.754399    0.660120
     27          1           0        1.571087   -2.101111   -0.061165
     28          8           0       -3.550265    1.675637   -0.226650
     29          1           0       -2.651225    2.049227   -0.115146
     30          1           0       -3.984797    1.798417    0.633683
 ---------------------------------------------------------------------
                    Distance matrix (angstroms):
                    1          2          3          4          5
     1  H    0.000000
     2  C    1.103053   0.000000
     3  C    3.385326   2.549949   0.000000
     4  C    2.822189   2.424328   2.564949   0.000000
     5  C    3.674151   3.006796   1.560702   1.546267   0.000000
     6  O    2.065209   1.428846   2.706110   1.457421   2.445479
     7  C    2.162523   1.547779   1.539012   2.804709   2.593020
     8  H    4.189001   3.483663   1.097026   3.409005   2.156804
     9  H    2.573927   2.598995   3.043064   1.096847   2.192029
    10  H    4.465692   3.658945   2.135580   2.143379   1.097171
    11  H    2.764221   2.167912   2.148954   3.845969   3.514009
    12  C    2.139268   1.526723   3.475697   3.711694   4.193055
    13  H    2.513850   2.152920   4.309332   3.967117   4.739214
    14  H    3.045814   2.151041   3.243046   3.955426   4.108884
    15  O    3.904986   3.580279   3.756170   1.381974   2.455168
    16  H    4.469329   3.933632   3.789356   1.916570   2.517041
    17  O    2.516905   2.363339   4.213502   4.781294   5.175482
    18  H    3.460171   3.203545   4.844117   5.575403   5.891852
    19  O    4.594548   4.143211   2.504696   2.451186   1.405146
    20  H    4.373728   4.120718   2.736075   2.721411   1.989416
    21  O    4.066952   3.019247   1.425444   3.376996   2.485732
    22  H    4.208698   3.130333   1.980903   3.126748   2.441171
    23  O    2.451363   2.459768   2.418952   3.201733   3.070500
    24  H    2.284401   2.626016   3.262670   3.827364   3.947765
    25  H    5.256169   4.330704   4.350581   4.028160   4.133974
    26  O    4.658734   3.720768   3.512357   3.148054   3.172773
    27  H    3.771071   2.901377   3.290925   2.585172   2.993140
    28  O    4.771799   4.817337   3.768413   4.097881   3.595949
    29  H    4.020212   4.070198   3.215097   3.814266   3.371553
    30  H    5.492272   5.411629   3.963117   4.731922   3.942347
                    6          7          8          9         10
     6  O    0.000000
     7  C    2.480270   0.000000
     8  H    3.761328   2.155066   0.000000
     9  H    2.080379   2.907240   3.711898   0.000000
    10  H    2.848339   3.393946   2.707848   3.042895   0.000000
    11  H    3.302108   1.095177   2.519696   3.992008   4.174680
    12  C    2.377048   2.552935   4.401289   4.059918   4.589279
    13  H    2.521869   3.492458   5.313370   4.338552   5.036561
    14  H    2.702642   2.733073   4.142704   4.524874   4.293862
    15  O    2.290675   4.163025   4.567638   2.001762   2.547289
    16  H    2.569418   4.452236   4.611311   2.804883   2.181622
    17  O    3.591920   2.951981   4.925753   4.890605   5.722246
    18  H    4.311411   3.723061   5.530366   5.782145   6.327750
    19  O    3.678655   3.490679   2.511481   2.631130   1.990066
    20  H    3.911900   3.354888   2.602385   2.505650   2.843935
    21  O    3.081657   2.384451   2.046358   4.120148   2.448558
    22  H    2.778953   2.936933   2.777787   4.053203   2.076280
    23  O    3.326677   1.440824   2.567168   2.807280   4.097079
    24  H    3.725024   1.971790   3.461015   3.313627   4.963504
    25  H    3.397430   4.956570   5.279244   5.081459   3.465482
    26  O    2.709614   4.223557   4.444543   4.225287   2.521289
    27  H    1.838119   3.671598   4.336666   3.586105   2.673317
    28  O    5.059153   3.841372   3.351656   3.503616   4.558667
    29  H    4.532498   3.015372   2.871379   3.244458   4.406479
    30  H    5.679356   4.243079   3.293340   4.291287   4.792843
                   11         12         13         14         15
    11  H    0.000000
    12  C    2.539429   0.000000
    13  H    3.620800   1.100466   0.000000
    14  H    2.551226   1.098183   1.790111   0.000000
    15  O    5.172950   4.662263   4.647658   4.861496   0.000000
    16  H    5.375420   4.817884   4.796765   4.808253   0.972587
    17  O    2.544509   1.424150   2.096112   2.096495   5.862812
    18  H    3.142915   1.956350   2.441608   2.271074   6.601789
    19  O    4.403433   5.462732   6.038394   5.443681   3.080861
    20  H    4.272610   5.542012   6.170371   5.669195   3.534997
    21  O    2.508421   3.336537   4.129557   2.671339   4.337263
    22  H    3.237126   3.382510   3.947329   2.685068   3.829204
    23  O    2.074131   3.684771   4.527313   4.089994   4.555082
    24  H    2.312007   3.667420   4.467188   4.256934   5.147626
    25  H    5.338180   4.159227   4.024107   3.564419   3.930743
    26  O    4.728667   3.859469   3.886667   3.348991   3.149662
    27  H    4.239234   3.081333   3.029949   2.793366   2.740084
    28  O    4.557487   6.233980   6.966142   6.518967   5.059874
    29  H    3.662637   5.423744   6.211969   5.737536   4.963448
    30  H    4.820170   6.749204   7.559924   6.908925   5.693067
                   16         17         18         19         20
    16  H    0.000000
    17  O    6.122645   0.000000
    18  H    6.766117   0.969920   0.000000
    19  O    3.266482   6.304946   7.075702   0.000000
    20  H    3.934042   6.202893   7.034846   0.985472   0.000000
    21  O    4.086524   4.194966   4.574137   3.603910   4.048791
    22  H    3.417686   4.492499   4.851387   3.693833   4.296735
    23  O    5.062950   3.779750   4.646711   3.436976   2.903007
    24  H    5.724712   3.446410   4.332509   4.359189   3.775302
    25  H    3.217557   5.530246   5.725853   5.387179   6.111103
    26  O    2.459317   5.241703   5.580099   4.422376   5.146005
    27  H    2.318851   4.494344   4.913440   4.327216   4.906150
    28  O    5.610318   6.516265   7.383913   2.782754   1.820870
    29  H    5.511028   5.602464   6.460416   2.940596   2.055974
    30  H    6.127930   7.004676   7.814677   3.021280   2.207498
                   21         22         23         24         25
    21  O    0.000000
    22  H    0.978315   0.000000
    23  O    3.626595   4.201163   0.000000
    24  H    4.324543   4.893104   0.970325   0.000000
    25  H    3.540398   2.596069   6.208441   6.754570   0.000000
    26  O    2.893717   1.935124   5.401259   6.013138   0.967477
    27  H    2.913391   2.109800   4.818811   5.332318   1.563756
    28  O    5.167987   5.650226   2.749449   3.359299   7.672277
    29  H    4.606217   5.166132   1.822891   2.423207   7.264196
    30  H    5.273332   5.835188   3.272706   3.930745   8.020751
                   26         27         28         29         30
    26  O    0.000000
    27  H    0.982774   0.000000
    28  O    6.727105   6.365490   0.000000
    29  H    6.353305   5.920823   0.979937   0.000000
    30  H    7.077542   6.823267   0.971630   1.549859   0.000000
 Stoichiometry    C6H16O8
 Framework group  C1[X(C6H16O8)]
 Deg. of freedom    84
 Full point group                 C1      NOp   1
 Largest Abelian subgroup         C1      NOp   1
 Largest concise Abelian subgroup C1      NOp   1
                         Standard orientation:                         
 ---------------------------------------------------------------------
 Center     Atomic      Atomic             Coordinates (Angstroms)
 Number     Number       Type             X           Y           Z
 ---------------------------------------------------------------------
      1          1           0       -0.992134   -1.280093   -1.625381
      2          6           0       -1.140268   -0.700566   -0.698595
      3          6           0        0.428421   -0.174473    1.241684
      4          6           0        0.544369    1.011044   -1.029894
      5          6           0        1.137637    0.928723    0.395657
      6          8           0       -0.872861    0.675869   -0.973404
      7          6           0       -0.209910   -1.286643    0.390701
      8          1           0        1.189701   -0.625507    1.890134
      9          1           0        1.039095    0.298955   -1.701645
     10          1           0        0.908316    1.877644    0.896402
     11          1           0       -0.798121   -1.929062    1.054566
     12          6           0       -2.614756   -0.801891   -0.315844
     13          1           0       -3.215572   -0.253911   -1.057304
     14          1           0       -2.759629   -0.343354    0.671457
     15          8           0        0.653696    2.261078   -1.608958
     16          1           0        0.380372    2.918769   -0.946641
     17          8           0       -2.932578   -2.190088   -0.305760
     18          1           0       -3.783719   -2.301105    0.145881
     19          8           0        2.541147    0.861957    0.383952
     20          1           0        2.858111    0.012587   -0.002393
     21          8           0       -0.598184    0.351957    2.078848
     22          1           0       -0.871073    1.231776    1.749378
     23          8           0        0.843859   -2.068080   -0.205034
     24          1           0        0.437000   -2.800131   -0.695031
     25          1           0       -2.298744    3.188239    0.814720
     26          8           0       -1.451555    2.739585    0.684364
     27          1           0       -1.586480    2.089719   -0.040421
     28          8           0        3.560943   -1.649438   -0.245838
     29          1           0        2.664955   -2.030082   -0.133628
     30          1           0        3.999221   -1.774332    0.612288
 ---------------------------------------------------------------------
 Rotational constants (GHZ):      0.7005202      0.5551876      0.4095595
 Standard basis: 6-31G(d) (6D, 7F)
 There are   242 symmetry adapted cartesian basis functions of A   symmetry.
 There are   242 symmetry adapted basis functions of A   symmetry.
   242 basis functions,   456 primitive gaussians,   242 cartesian basis functions
    58 alpha electrons       58 beta electrons
       nuclear repulsion energy      1122.4772913318 Hartrees.
 NAtoms=   30 NActive=   30 NUniq=   30 SFac= 1.00D+00 NAtFMM=   60 NAOKFM=F Big=F
 Integral buffers will be    131072 words long.
 Raffenetti 2 integral format.
 Two-electron integral symmetry is turned on.
 One-electron integrals computed using PRISM.
 NBasis=   242 RedAO= T EigKep=  1.58D-03  NBF=   242
 NBsUse=   242 1.00D-06 EigRej= -1.00D+00 NBFU=   242
 Initial guess from the checkpoint file:  "/scratch/10499781.yak.local/Gau-5757.chk"
 B after Tr=    -0.000000   -0.000000    0.000000
         Rot=    0.999988   -0.002743   -0.001668   -0.003628 Ang=  -0.56 deg.
 ExpMin= 1.61D-01 ExpMax= 5.48D+03 ExpMxC= 8.25D+02 IAcc=1 IRadAn=         1 AccDes= 0.00D+00
 Harris functional with IExCor=  402 and IRadAn=       1 diagonalized for initial guess.
 HarFok:  IExCor=  402 AccDes= 0.00D+00 IRadAn=         1 IDoV= 1 UseB2=F ITyADJ=14
 ICtDFT=  3500011 ScaDFX=  1.000000  1.000000  1.000000  1.000000
 FoFCou: FMM=F IPFlag=           0 FMFlag=      100000 FMFlg1=           0
         NFxFlg=           0 DoJE=T BraDBF=F KetDBF=T FulRan=T
         wScrn=  0.000000 ICntrl=     500 IOpCl=  0 I1Cent=   200000004 NGrid=           0
         NMat0=    1 NMatS0=      1 NMatT0=    0 NMatD0=    1 NMtDS0=    0 NMtDT0=    0
 Petite list used in FoFCou.
 Requested convergence on RMS density matrix=1.00D-08 within 128 cycles.
 Requested convergence on MAX density matrix=1.00D-06.
 Requested convergence on             energy=1.00D-06.
 No special actions if energy rises.
 Integral accuracy reduced to 1.0D-05 until final iterations.
 Initial convergence to 1.0D-05 achieved.  Increase integral accuracy.
 SCF Done:  E(RB3LYP) =  -839.987441983     A.U. after   10 cycles
            NFock= 10  Conv=0.10D-07     -V/T= 2.0085
 Calling FoFJK, ICntrl=      2127 FMM=F ISym2X=0 I1Cent= 0 IOpClX= 0 NMat=1 NMatS=1 NMatT=0.
 ***** Axes restored to original set *****
 -------------------------------------------------------------------
 Center     Atomic                   Forces (Hartrees/Bohr)
 Number     Number              X              Y              Z
 -------------------------------------------------------------------
      1        1           0.000058794   -0.000267423    0.000360242
      2        6           0.000119801    0.000095060   -0.000117432
      3        6           0.000003753   -0.000002930    0.000069045
      4        6           0.000091765    0.000181537    0.000211031
      5        6           0.000053281   -0.000002493   -0.000183229
      6        8          -0.000183985    0.000455029    0.000005390
      7        6           0.000027545    0.000088275   -0.000032684
      8        1           0.000094591   -0.000079019   -0.000057177
      9        1           0.000126558   -0.000129239    0.000113388
     10        1          -0.000037337   -0.000056865    0.000002013
     11        1          -0.000066143    0.000003949   -0.000107810
     12        6          -0.000269728   -0.000060310   -0.000055931
     13        1          -0.000140648    0.000046495    0.000058745
     14        1          -0.000078161   -0.000002496   -0.000123891
     15        8          -0.000332694    0.000669395   -0.000528041
     16        1           0.000277632   -0.000841508    0.000668875
     17        8           0.001646793    0.000033894    0.000715561
     18        1          -0.001426205    0.000005836   -0.000791408
     19        8           0.000216548    0.000769986   -0.000067932
     20        1          -0.000056857   -0.000569770    0.000102830
     21        8          -0.000188487    0.000138770   -0.000191248
     22        1          -0.000050896   -0.000122027    0.000012185
     23        8           0.000092501    0.000226689   -0.000182194
     24        1          -0.000130144   -0.000462098    0.000451161
     25        1           0.001093258   -0.000760276    0.000218502
     26        8          -0.000961454    0.001284699   -0.001047476
     27        1          -0.000169382   -0.000577899    0.000746440
     28        8          -0.000328649    0.000428214    0.001744933
     29        1          -0.000685310   -0.000227042   -0.000214865
     30        1           0.001203260   -0.000266434   -0.001779025
 -------------------------------------------------------------------
 Cartesian Forces:  Max     0.001779025 RMS     0.000531304

 GradGradGradGradGradGradGradGradGradGradGradGradGradGradGradGradGradGrad
 Berny optimization.
 Search for a saddle point.
 Step number   2 out of a maximum of  180
 All quantities printed in internal units (Hartrees-Bohrs-Radians)
 Swapping is turned off.
 Update second derivatives using D2CorN and points    1    2
 ITU=  0  0
     Eigenvalues ---    0.00001   0.00021   0.00054   0.00145   0.00186
     Eigenvalues ---    0.00226   0.00280   0.00389   0.00430   0.00475
     Eigenvalues ---    0.00499   0.00656   0.00700   0.00890   0.01026
     Eigenvalues ---    0.01113   0.01240   0.01362   0.01626   0.01802
     Eigenvalues ---    0.01858   0.02062   0.02585   0.02805   0.03079
     Eigenvalues ---    0.03275   0.03305   0.03857   0.04108   0.04319
     Eigenvalues ---    0.04960   0.05032   0.05254   0.05680   0.06072
     Eigenvalues ---    0.06376   0.06975   0.07499   0.07706   0.08214
     Eigenvalues ---    0.09107   0.10035   0.11284   0.13157   0.13739
     Eigenvalues ---    0.14250   0.15633   0.15996   0.16492   0.16912
     Eigenvalues ---    0.18553   0.20020   0.21411   0.23198   0.26863
     Eigenvalues ---    0.29730   0.30694   0.36069   0.43761   0.44552
     Eigenvalues ---    0.51981   0.53957   0.58863   0.60856   0.64088
     Eigenvalues ---    0.65271   0.66024   0.72423   0.74249   0.77338
     Eigenvalues ---    0.78008   0.79780   0.83061   0.84681   0.85657
     Eigenvalues ---    0.88710   0.90264   0.96969   1.00972   1.03020
     Eigenvalues ---    1.05788   1.06880   1.09916   1.14115
 Eigenvectors required to have negative eigenvalues:
                          Z30       Z28       Z24       Z29       Z23
   1                    0.47425   0.38517  -0.27335   0.23930  -0.23237
                          Y25       Z25       Z13       X1        Z8
   1                    0.18500   0.15570   0.14328   0.14186  -0.13865
 RFO step:  Lambda0=1.911690602D-04 Lambda=-6.15727061D-05.
 Linear search not attempted -- option 19 set.
 Maximum step size (   0.300) exceeded in Quadratic search.
    -- Step size scaled by   0.287
 B after Tr=    -0.000190   -0.000502   -0.003141
         Rot=    1.000000   -0.000133    0.000050   -0.000051 Ang=  -0.02 deg.
 Variable       Old X    -DE/DX   Delta X   Delta X   Delta X     New X
                                 (Linear)    (Quad)   (Total)
    X1        1.88117   0.00006   0.00000   0.04478   0.04465   1.92582
    Y1        2.42339  -0.00027   0.00000  -0.00682  -0.00630   2.41709
    Z1       -3.06832   0.00036   0.00000  -0.01407  -0.01637  -3.08469
    X2        2.15911   0.00012   0.00000   0.01483   0.01464   2.17375
    Y2        1.31566   0.00010   0.00000  -0.00534  -0.00527   1.31039
    Z2       -1.32456  -0.00012   0.00000  -0.00834  -0.01092  -1.33548
    X3       -0.80011   0.00000   0.00000  -0.01197  -0.01243  -0.81254
    Y3        0.32026  -0.00000   0.00000   0.01117   0.00997   0.33023
    Z3        2.34588   0.00007   0.00000  -0.02677  -0.02990   2.31598
    X4       -1.04937   0.00009   0.00000   0.00990   0.01010  -1.03927
    Y4       -1.89229   0.00018   0.00000  -0.00116  -0.00125  -1.89354
    Z4       -1.95951   0.00021   0.00000  -0.02079  -0.02454  -1.98405
    X5       -2.16042   0.00005   0.00000   0.00118   0.00110  -2.15932
    Y5       -1.74516  -0.00000   0.00000   0.00090  -0.00001  -1.74517
    Z5        0.73903  -0.00018   0.00000  -0.02477  -0.02860   0.71044
    X6        1.63358  -0.00018   0.00000   0.01068   0.01081   1.64439
    Y6       -1.27857   0.00046   0.00000  -0.00397  -0.00381  -1.28238
    Z6       -1.85792   0.00001   0.00000  -0.01124  -0.01456  -1.87247
    X7        0.41574   0.00003   0.00000  -0.01110  -0.01161   0.40413
    Y7        2.42309   0.00009   0.00000   0.00378   0.00314   2.42623
    Z7        0.74647  -0.00003   0.00000  -0.03614  -0.03860   0.70787
    X8       -2.22855   0.00009   0.00000  -0.02114  -0.02181  -2.25036
    Y8        1.17531  -0.00008   0.00000   0.01561   0.01394   1.18925
    Z8        3.58123  -0.00006   0.00000  -0.04020  -0.04325   3.53799
    X9       -1.97888   0.00013   0.00000   0.01585   0.01604  -1.96284
    Y9       -0.53235  -0.00013   0.00000  -0.00160  -0.00144  -0.53379
    Z9       -3.21762   0.00011   0.00000  -0.02477  -0.02825  -3.24586
   X10       -1.73670  -0.00004   0.00000   0.00655   0.00655  -1.73014
   Y10       -3.54711  -0.00006   0.00000   0.00429   0.00317  -3.54394
   Z10        1.67297   0.00000   0.00000  -0.02030  -0.02455   1.64842
   X11        1.54006  -0.00007   0.00000  -0.03160  -0.03236   1.50770
   Y11        3.62152   0.00000   0.00000   0.02831   0.02744   3.64896
   Z11        2.00458  -0.00011   0.00000  -0.04045  -0.04248   1.96211
   X12        4.94916  -0.00027   0.00000   0.00630   0.00602   4.95518
[...]
    Z5        0.75441   0.00014   0.00000   0.02026   0.02188   0.77630
    X6        1.47485  -0.00006   0.00000  -0.00159  -0.00061   1.47424
    Y6       -1.33096   0.00008   0.00000   0.00725   0.00840  -1.32256
    Z6       -1.88987   0.00004   0.00000   0.02065   0.02445  -1.86543
    X7        0.45741   0.00016   0.00000   0.00023  -0.00072   0.45669
    Y7        2.32074   0.00110   0.00000  -0.00164  -0.00145   2.31929
    Z7        0.88309  -0.00087   0.00000   0.03255   0.03692   0.92001
    X8       -2.39127   0.00047   0.00000   0.02007   0.01780  -2.37347
    Y8        1.16321  -0.00023   0.00000  -0.02172  -0.02266   1.14055
    Z8        3.52719  -0.00018   0.00000   0.04677   0.04923   3.57642
    X9       -2.06604  -0.00003   0.00000  -0.00539  -0.00391  -2.06995
    Y9       -0.14284  -0.00024   0.00000  -0.02209  -0.02096  -0.16379
    Z9       -3.03343  -0.00004   0.00000   0.01228   0.01450  -3.01893
   X10       -1.60153   0.00005   0.00000  -0.03053  -0.03119  -1.63273
   Y10       -3.64803   0.00009   0.00000  -0.00256  -0.00280  -3.65083
   Z10        1.54346   0.00009   0.00000   0.02701   0.02839   1.57185
   X11        1.66507  -0.00049   0.00000   0.00827   0.00649   1.67157
   Y11        3.36521  -0.00024   0.00000  -0.01363  -0.01372   3.35149
   Z11        2.20154  -0.00086   0.00000   0.03406   0.03942   2.24096
   X12        4.92504  -0.00032   0.00000  -0.00763  -0.00758   4.91746
   Y12        1.30054  -0.00008   0.00000   0.02832   0.02949   1.33003
   Z12       -0.68959   0.00023   0.00000  -0.01911  -0.01260  -0.70219
   X13        5.95454  -0.00024   0.00000  -0.01769  -0.01670   5.93783
   Y13        0.26991   0.00005   0.00000   0.04621   0.04796   0.31786
   Z13       -2.17488   0.00040   0.00000  -0.03957  -0.03282  -2.20770
   X14        5.26909  -0.00028   0.00000   0.02154   0.02070   5.28980
   Y14        0.36695   0.00033   0.00000   0.01719   0.01783   0.38478
   Z14        1.13588  -0.00058   0.00000  -0.02807  -0.02165   1.11423
   X15       -1.72655   0.00061   0.00000   0.02037   0.02242  -1.70413
   Y15       -3.89806  -0.00134   0.00000  -0.02020  -0.01894  -3.91700
   Z15       -3.35825   0.00123   0.00000   0.03547   0.03673  -3.32153
   X16       -1.84337   0.00020   0.00000   0.02969   0.03125  -1.81212
   Y16       -5.31517   0.00101   0.00000  -0.01395  -0.01306  -5.32822
   Z16       -2.19382  -0.00110   0.00000   0.04313   0.04389  -2.14993
   X17        5.60993  -0.00180   0.00000  -0.02849  -0.02876   5.58117
   Y17        3.90061  -0.00023   0.00000   0.03353   0.03475   3.93536
   Z17       -0.62922  -0.00041   0.00000  -0.00964  -0.00196  -0.63118
   X18        7.28208   0.00155   0.00000   0.02565   0.02503   7.30711
   Y18        4.04244  -0.00006   0.00000   0.02887   0.03008   4.07252
   Z18        0.09172   0.00072   0.00000  -0.10279  -0.09412  -0.00240
   X19       -4.86291  -0.00162   0.00000  -0.00832  -0.00880  -4.87171
   Y19       -1.85886   0.00448   0.00000   0.03235   0.03197  -1.82689
   Z19        0.87740  -0.00156   0.00000   0.00892   0.00909   0.88649
   X20       -5.53878   0.00118   0.00000   0.00883   0.00862  -5.53016
   Y20       -0.29088  -0.00361   0.00000   0.02246   0.02226  -0.26862
   Z20        0.10570   0.00148   0.00000  -0.02352  -0.02323   0.08247
   X21        0.85063  -0.00009   0.00000   0.02516   0.02277   0.87340
   Y21       -0.78023  -0.00060   0.00000  -0.03172  -0.03250  -0.81272
   Z21        4.17657  -0.00087   0.00000  -0.00136   0.00227   4.17884
   X22        1.69691  -0.00019   0.00000   0.01110   0.00928   1.70619
   Y22       -2.25958   0.00086   0.00000  -0.03165  -0.03210  -2.29168
   Z22        3.43851   0.00027   0.00000  -0.02014  -0.01651   3.42200
   X23       -1.42245  -0.00020   0.00000  -0.00065  -0.00125  -1.42370
   Y23        4.03511  -0.00074   0.00000   0.01099   0.01127   4.04638
   Z23       -0.11232   0.00037   0.00000   0.05645   0.06032  -0.05200
   X24       -0.54673  -0.00009   0.00000   0.00074   0.00041  -0.54632
   Y24        5.43996  -0.00062   0.00000   0.01810   0.01872   5.45868
   Z24       -0.90129   0.00026   0.00000   0.07083   0.07563  -0.82566
   X25        5.10537  -0.00157   0.00000  -0.02488  -0.02550   5.07987
   Y25       -4.99431   0.00019   0.00000  -0.05532  -0.05490  -5.04921
   Z25        1.78275  -0.00048   0.00000  -0.02424  -0.01961   1.76314
   X26        3.29847   0.00100   0.00000  -0.02068  -0.02121   3.27726
   Y26       -4.75244  -0.00024   0.00000  -0.04465  -0.04436  -4.79680
   Z26        1.58977  -0.00038   0.00000  -0.03199  -0.02827   1.56150
   X27        3.06191  -0.00006   0.00000  -0.00651  -0.00628   3.05563
   Y27       -3.82451  -0.00048   0.00000  -0.02088  -0.02013  -3.84464
   Z27        0.00050   0.00049   0.00000  -0.02107  -0.01718  -0.01669
   X28       -6.51575   0.00071   0.00000   0.02369   0.02368  -6.49207
   Y28        2.85881   0.00121   0.00000   0.00512   0.00512   2.86393
   Z28       -0.80539   0.00408   0.00000  -0.09657  -0.09584  -0.90123
   X29       -4.80131  -0.00192   0.00000   0.02615   0.02600  -4.77532
   Y29        3.56968  -0.00046   0.00000  -0.00084  -0.00069   3.56899
   Z29       -0.72193   0.00088   0.00000  -0.05982  -0.05793  -0.77986
   X30       -7.30726   0.00194   0.00000  -0.00873  -0.00965  -7.31691
   Y30        3.39429  -0.00078   0.00000   0.01669   0.01612   3.41040
   Z30        0.76896  -0.00416   0.00000  -0.11678  -0.11633   0.65263
         Item               Value     Threshold  Converged?
 Maximum Force            0.004479     0.000450     NO 
 RMS     Force            0.001118     0.000300     NO 
 Maximum Displacement     0.116331     0.001800     NO 
 RMS     Displacement     0.031520     0.001200     NO 
 Predicted change in Energy=-5.544809D-05
 GradGradGradGradGradGradGradGradGradGradGradGradGradGradGradGradGradGrad

                          Input orientation:                          
 ---------------------------------------------------------------------
 Center     Atomic      Atomic             Coordinates (Angstroms)
 Number     Number       Type             X           Y           Z
 ---------------------------------------------------------------------
      1          1           0        0.924238    1.275833   -1.565422
      2          6           0        1.105355    0.655671   -0.670731
      3          6           0       -0.472459    0.121831    1.295692
      4          6           0       -0.654985   -0.920711   -1.036465
      5          6           0       -1.173891   -0.964757    0.410798
      6          8           0        0.780133   -0.699867   -0.987141
      7          6           0        0.241668    1.227314    0.486851
      8          1           0       -1.255986    0.603554    1.892561
      9          1           0       -1.095372   -0.086675   -1.597551
     10          1           0       -0.864002   -1.931934    0.831789
     11          1           0        0.884554    1.773530    1.185864
     12          6           0        2.602205    0.703822   -0.371583
     13          1           0        3.142166    0.168207   -1.168265
     14          1           0        2.799239    0.203616    0.589623
     15          8           0       -0.901787   -2.072786   -1.757677
     16          1           0       -0.958935   -2.819573   -1.137696
     17          8           0        2.953429    2.082500   -0.334006
     18          1           0        3.866756    2.155083   -0.001271
     19          8           0       -2.577998   -0.966746    0.469111
     20          1           0       -2.926437   -0.142147    0.043643
     21          8           0        0.462181   -0.430075    2.211345
     22          1           0        0.902879   -1.212706    1.810847
     23          8           0       -0.753391    2.141252   -0.027516
     24          1           0       -0.289100    2.888610   -0.436921
     25          1           0        2.688153   -2.671925    0.933013
     26          8           0        1.734252   -2.538357    0.826308
     27          1           0        1.616971   -2.034497   -0.008830
     28          8           0       -3.435457    1.515529   -0.476910
     29          1           0       -2.526989    1.888627   -0.412685
     30          1           0       -3.871942    1.804708    0.345357
 ---------------------------------------------------------------------
                    Distance matrix (angstroms):
                    1          2          3          4          5
     1  H    0.000000
     2  C    1.103575   0.000000
     3  C    3.386511   2.577073   0.000000
     4  C    2.756546   2.391138   2.561087   0.000000
     5  C    3.650731   2.998409   1.567073   1.538107   0.000000
     6  O    2.063629   1.429464   2.730477   1.452849   2.417150
     7  C    2.163349   1.553295   1.544764   2.781814   2.610511
     8  H    4.142823   3.485558   1.096460   3.356156   2.159158
     9  H    2.436449   2.500654   2.966875   1.097439   2.193321
    10  H    4.385680   3.582127   2.141603   2.134627   1.099407
    11  H    2.796221   2.178372   2.140481   3.816787   3.512284
    12  C    2.137293   1.527209   3.545713   3.700063   4.201807
    13  H    2.510732   2.152617   4.374785   3.952400   4.733433
    14  H    3.051147   2.159187   3.348019   3.979942   4.145219
    15  O    3.818976   3.557323   3.784670   1.381425   2.450316
    16  H    4.527874   4.068989   3.848362   1.925698   2.425775
    17  O    2.506934   2.358941   4.270463   4.746934   5.184138
    18  H    3.446457   3.212748   4.964374   5.565813   5.942333
    19  O    4.629702   4.183129   2.510285   2.442716   1.405319
    20  H    4.407659   4.171594   2.767548   2.632924   1.970509
    21  O    4.169843   3.146248   1.420060   3.469446   2.490901
    22  H    4.194338   3.112886   1.984421   3.258740   2.516861
    23  O    2.434860   2.464876   2.430610   3.225412   3.164843
    24  H    2.312304   2.642951   3.269654   3.873532   4.043503
    25  H    4.993833   4.018724   4.233920   4.257014   4.254705
    26  O    4.574335   3.583078   3.488050   3.434408   3.332591
    27  H    3.723056   2.817245   3.273720   2.730996   3.018168
    28  O    4.499916   4.625570   3.723421   3.738902   3.471962
    29  H    3.689889   3.844566   3.203313   3.433056   3.263555
    30  H    5.189809   5.208283   3.910460   4.436907   3.867001
                    6          7          8          9         10
     6  O    0.000000
     7  C    2.485281   0.000000
     8  H    3.759970   2.146640   0.000000
     9  H    2.065459   2.803386   3.561333   0.000000
    10  H    2.744026   3.364868   2.776255   3.059444   0.000000
    11  H    3.294017   1.095570   2.539720   3.889456   4.112576
    12  C    2.381008   2.565753   4.474599   3.974916   4.517733
    13  H    2.523005   3.503427   5.376051   4.266846   4.945724
    14  H    2.716478   2.756753   4.278136   4.476158   4.247182
    15  O    2.303799   4.151632   4.540098   2.001937   2.593568
    16  H    2.745939   4.523041   4.581321   2.774674   2.162356
    17  O    3.590455   2.959527   4.986387   4.763891   5.661055
    18  H    4.318555   3.773629   5.677704   5.674178   6.306962
    19  O    3.670006   3.572777   2.497953   2.691430   2.000226
    20  H    3.887445   3.479763   2.600957   2.459551   2.842208
    21  O    3.225553   2.401967   2.030298   4.129356   2.432595
    22  H    2.847246   2.853745   2.822441   4.108299   2.144228
    23  O    3.368165   1.445683   2.510739   2.746929   4.164311
    24  H    3.784596   1.973569   3.403356   3.293851   5.017746
    25  H    3.349111   4.624761   5.215911   5.234723   3.629826
    26  O    2.752996   4.064888   4.466545   4.460113   2.668090
    27  H    1.854354   3.574432   4.339180   3.697951   2.621524
    28  O    4.789521   3.812237   3.346070   3.049408   4.495561
    29  H    4.238792   2.985291   2.929337   2.712057   4.348669
    30  H    5.448876   4.156344   3.268002   3.880922   4.821494
                   11         12         13         14         15
    11  H    0.000000
    12  C    2.553476   0.000000
    13  H    3.635353   1.101428   0.000000
    14  H    2.546792   1.101338   1.791374   0.000000
    15  O    5.162324   4.680680   4.660795   4.938564   0.000000
    16  H    5.467539   5.067836   5.074129   5.123200   0.972283
    17  O    2.585674   1.423209   2.096695   2.099303   5.844308
    18  H    3.232398   1.960198   2.415488   2.301515   6.610510
    19  O    4.473490   5.507456   6.057177   5.504449   2.998598
    20  H    4.415670   5.608383   6.196207   5.762032   3.327360
    21  O    2.466959   3.540755   4.354540   2.914342   4.506888
    22  H    3.050991   3.365084   3.974472   2.663370   4.090344
    23  O    2.071322   3.666689   4.513267   4.093467   4.557806
    24  H    2.292226   3.624529   4.439487   4.219102   5.170612
    25  H    4.804058   3.620087   3.562000   2.898102   4.526196
    26  O    4.409493   3.563707   3.645000   2.951039   3.720543
    27  H    4.057684   2.932690   2.919317   2.600972   3.066606
    28  O    4.636149   6.092891   6.749694   6.459879   4.575571
    29  H    3.769248   5.264416   5.972442   5.675613   4.488103
    30  H    4.830288   6.606098   7.359816   6.864970   5.317849
                   16         17         18         19         20
    16  H    0.000000
    17  O    6.323198   0.000000
    18  H    7.023244   0.974755   0.000000
    19  O    2.938735   6.367071   7.176485   0.000000
    20  H    3.526363   6.297976   7.171245   0.991159   0.000000
    21  O    4.352625   4.358689   4.813506   3.544867   4.032935
    22  H    3.839567   4.434358   4.838423   3.738617   4.351180
    23  O    5.087685   3.719933   4.620242   3.638061   3.152952
    24  H    5.789916   3.342813   4.242522   4.574245   4.046230
    25  H    4.196532   4.927502   5.055888   5.554745   6.222088
    26  O    3.345093   4.917829   5.221191   4.603591   5.298718
    27  H    2.919926   4.340683   4.755436   4.355030   4.922021
    28  O    5.036160   6.415586   7.345582   2.791394   1.810515
    29  H    5.015135   5.484411   6.412506   2.988866   2.119395
    30  H    5.662952   6.864721   7.754377   3.061137   2.185235
                   21         22         23         24         25
    21  O    0.000000
    22  H    0.983425   0.000000
    23  O    3.619646   4.167954   0.000000
    24  H    4.311775   4.826393   0.970424   0.000000
    25  H    3.408075   2.467208   5.994457   6.454479   0.000000
    26  O    2.825127   1.848742   5.368065   5.928041   0.969099
    27  H    2.972690   2.120493   4.801650   5.296541   1.562310
    28  O    5.118952   5.612330   2.790513   3.433149   7.551241
    29  H    4.604025   5.130921   1.832437   2.451265   7.057424
    30  H    5.221186   5.835354   3.158743   3.824076   7.963694
                   26         27         28         29         30
    26  O    0.000000
    27  H    0.982388   0.000000
    28  O    6.697630   6.192641   0.000000
    29  H    6.268290   5.720699   0.984196   0.000000
    30  H    7.107948   6.707690   0.974816   1.546146   0.000000
 Stoichiometry    C6H16O8
 Framework group  C1[X(C6H16O8)]
 Deg. of freedom    84
 Full point group                 C1      NOp   1
 Largest Abelian subgroup         C1      NOp   1
 Largest concise Abelian subgroup C1      NOp   1
                         Standard orientation:                         
 ---------------------------------------------------------------------
 Center     Atomic      Atomic             Coordinates (Angstroms)
 Number     Number       Type             X           Y           Z
 ---------------------------------------------------------------------
      1          1           0       -0.940154   -1.290181   -1.567836
      2          6           0       -1.121396   -0.628340   -0.703547
      3          6           0        0.406204   -0.106697    1.305341
      4          6           0        0.735583    0.837029   -1.052636
      5          6           0        1.199841    0.907156    0.412055
      6          8           0       -0.710322    0.695162   -1.053874
      7          6           0       -0.335722   -1.201803    0.507479
      8          1           0        1.138487   -0.607030    1.950053
      9          1           0        1.150892   -0.039659   -1.565773
     10          1           0        0.927450    1.904514    0.785922
     11          1           0       -1.034121   -1.686481    1.198564
     12          6           0       -2.629068   -0.585279   -0.463886
     13          1           0       -3.107659   -0.051622   -1.300129
     14          1           0       -2.835340   -0.039812    0.470386
     15          8           0        1.072885    1.946615   -1.803223
     16          1           0        1.146928    2.711853   -1.208023
     17          8           0       -3.056586   -1.940867   -0.392234
     18          1           0       -3.984687   -1.952109   -0.094495
     19          8           0        2.598642    0.836298    0.527197
     20          1           0        2.917491   -0.021010    0.145419
     21          8           0       -0.531416    0.528070    2.162377
     22          1           0       -0.912719    1.317669    1.717106
     23          8           0        0.626822   -2.186118    0.066308
     24          1           0        0.138390   -2.922330   -0.335122
     25          1           0       -2.580015    2.836478    0.716877
     26          8           0       -1.631470    2.648257    0.653725
     27          1           0       -1.509840    2.108100   -0.157769
     28          8           0        3.354529   -1.721747   -0.295553
     29          1           0        2.425159   -2.043127   -0.255195
     30          1           0        3.742409   -2.003010    0.553391
 ---------------------------------------------------------------------
 Rotational constants (GHZ):      0.7209812      0.5334969      0.4220626
 Standard basis: 6-31G(d) (6D, 7F)
 There are   242 symmetry adapted cartesian basis functions of A   symmetry.
 There are   242 symmetry adapted basis functions of A   symmetry.
   242 basis functions,   456 primitive gaussians,   242 cartesian basis functions
    58 alpha electrons       58 beta electrons
       nuclear repulsion energy      1120.8621105381 Hartrees.
 NAtoms=   30 NActive=   30 NUniq=   30 SFac= 1.00D+00 NAtFMM=   60 NAOKFM=F Big=F
 Integral buffers will be    131072 words long.
 Raffenetti 2 integral format.
 Two-electron integral symmetry is turned on.
 One-electron integrals computed using PRISM.
 NBasis=   242 RedAO= T EigKep=  1.60D-03  NBF=   242
 NBsUse=   242 1.00D-06 EigRej= -1.00D+00 NBFU=   242
 Initial guess from the checkpoint file:  "/scratch/10499781.yak.local/Gau-5757.chk"
 B after Tr=    -0.000000   -0.000000    0.000000
         Rot=    0.999995    0.003083    0.000598    0.000487 Ang=   0.36 deg.
 ExpMin= 1.61D-01 ExpMax= 5.48D+03 ExpMxC= 8.25D+02 IAcc=1 IRadAn=         1 AccDes= 0.00D+00
 Harris functional with IExCor=  402 and IRadAn=       1 diagonalized for initial guess.
 HarFok:  IExCor=  402 AccDes= 0.00D+00 IRadAn=         1 IDoV= 1 UseB2=F ITyADJ=14
 ICtDFT=  3500011 ScaDFX=  1.000000  1.000000  1.000000  1.000000
 FoFCou: FMM=F IPFlag=           0 FMFlag=      100000 FMFlg1=           0
         NFxFlg=           0 DoJE=T BraDBF=F KetDBF=T FulRan=T
         wScrn=  0.000000 ICntrl=     500 IOpCl=  0 I1Cent=   200000004 NGrid=           0
         NMat0=    1 NMatS0=      1 NMatT0=    0 NMatD0=    1 NMtDS0=    0 NMtDT0=    0
 Petite list used in FoFCou.
 Requested convergence on RMS density matrix=1.00D-08 within 128 cycles.
 Requested convergence on MAX density matrix=1.00D-06.
 Requested convergence on             energy=1.00D-06.
 No special actions if energy rises.
 Integral accuracy reduced to 1.0D-05 until final iterations.
 Initial convergence to 1.0D-05 achieved.  Increase integral accuracy.
