 Entering Gaussian System, Link 0=g09
 Initial command:
 /global/software/gaussian/g09.e01/l1.exe "/scratch/10499779.yak.local/Gau-21872.inp" -scrdir="/scratch/10499779.yak.local/"
 Entering Link 1 = /global/software/gaussian/g09.e01/l1.exe PID=     21873.
  
 Copyright (c) 1988,1990,1992,1993,1995,1998,2003,2009,2015,
            Gaussian, Inc.  All Rights Reserved.
  
 This is part of the Gaussian(R) 09 program.  It is based on
 the Gaussian(R) 03 system (copyright 2003, Gaussian, Inc.),
 the Gaussian(R) 98 system (copyright 1998, Gaussian, Inc.),
 the Gaussian(R) 94 system (copyright 1995, Gaussian, Inc.),
 the Gaussian 92(TM) system (copyright 1992, Gaussian, Inc.),
 the Gaussian 90(TM) system (copyright 1990, Gaussian, Inc.),
 the Gaussian 88(TM) system (copyright 1988, Gaussian, Inc.),
 the Gaussian 86(TM) system (copyright 1986, Carnegie Mellon
 University), and the Gaussian 82(TM) system (copyright 1983,
 Carnegie Mellon University). Gaussian is a federally registered
 trademark of Gaussian, Inc.
  
 This software contains proprietary and confidential information,
 including trade secrets, belonging to Gaussian, Inc.
  
 This software is provided under written license and may be
 used, copied, transmitted, or stored only in accord with that
 written license.
  
 The following legend is applicable only to US Government
 contracts under FAR:
  
                    RESTRICTED RIGHTS LEGEND
  
 Use, reproduction and disclosure by the US Government is
 subject to restrictions as set forth in subparagraphs (a)
 and (c) of the Commercial Computer Software - Restricted
 Rights clause in FAR 52.227-19.
  
 Gaussian, Inc.
 340 Quinnipiac St., Bldg. 40, Wallingford CT 06492
  
  
 ---------------------------------------------------------------
 Warning -- This program may not be used in any manner that
 competes with the business of Gaussian, Inc. or will provide
 assistance to any competitor of Gaussian, Inc.  The licensee
 of this program is prohibited from giving any competitor of
 Gaussian, Inc. access to this program.  By using this program,
 the user acknowledges that Gaussian, Inc. is engaged in the
 business of creating and licensing software in the field of
 computational chemistry and represents and warrants to the
 licensee that it is not a competitor of Gaussian, Inc. and that
 it will not use this program in any manner prohibited above.
 ---------------------------------------------------------------
  

 Cite this work as:
 Gaussian 09, Revision E.01,
 M. J. Frisch, G. W. Trucks, H. B. Schlegel, G. E. Scuseria, 
 M. A. Robb, J. R. Cheeseman, G. Scalmani, V. Barone, B. Mennucci, 
 G. A. Petersson, H. Nakatsuji, M. Caricato, X. Li, H. P. Hratchian, 
 A. F. Izmaylov, J. Bloino, G. Zheng, J. L. Sonnenberg, M. Hada, 
 M. Ehara, K. Toyota, R. Fukuda, J. Hasegawa, M. Ishida, T. Nakajima, 
 Y. Honda, O. Kitao, H. Nakai, T. Vreven, J. A. Montgomery, Jr., 
 J. E. Peralta, F. Ogliaro, M. Bearpark, J. J. Heyd, E. Brothers, 
 K. N. Kudin, V. N. Staroverov, T. Keith, R. Kobayashi, J. Normand, 
 K. Raghavachari, A. Rendell, J. C. Burant, S. S. Iyengar, J. Tomasi, 
 M. Cossi, N. Rega, J. M. Millam, M. Klene, J. E. Knox, J. B. Cross, 
 V. Bakken, C. Adamo, J. Jaramillo, R. Gomperts, R. E. Stratmann, 
 O. Yazyev, A. J. Austin, R. Cammi, C. Pomelli, J. W. Ochterski, 
 R. L. Martin, K. Morokuma, V. G. Zakrzewski, G. A. Voth, 
 P. Salvador, J. J. Dannenberg, S. Dapprich, A. D. Daniels, 
 O. Farkas, J. B. Foresman, J. V. Ortiz, J. Cioslowski, 
 and D. J. Fox, Gaussian, Inc., Wallingford CT, 2013.
 
 ******************************************
 Gaussian 09:  ES64L-G09RevE.01 30-Nov-2015
                30-Jan-2017 
 ******************************************
 %NPROCS=4
 Will use up to    4 processors via shared memory.
 ----------------------------------------------------------------------
 # opt=(calcfc,ts,noeigentest,maxcycle=1000,cartesian) b3lyp 6-31g(d) f
 req
 ----------------------------------------------------------------------
 1/5=1,6=1000,10=4,11=1,14=-1,18=10,26=3,38=1/1,3;
 2/12=2,17=6,18=5,29=2,40=1/2;
 3/5=1,6=6,7=1,11=2,16=1,25=1,30=1,71=2,74=-5,140=1/1,2,3;
 4//1;
 5/5=2,38=5/2;
 8/6=4,10=90,11=11/1;
 11/6=1,8=1,9=11,15=111,16=1/1,2,10;
 10/6=1,13=1/2;
 6/7=2,8=2,9=2,10=2,28=1/1;
 7/7=1,10=1,18=20,25=1/1,2,3,16;
 1/5=1,6=1000,10=4,11=1,14=-1,18=10,26=3/3(2);
 2/29=1/2;
 99/12=1/99;
 2/29=1/2;
 3/5=1,6=6,7=1,11=2,16=1,25=1,30=1,71=1,74=-5/1,2,3;
 4/5=5,16=3,69=1/1;
 5/5=2,38=5/2;
 7/7=1/1,2,3,16;
 1/5=1,6=1000,11=1,14=-1,18=10,26=3/3(-5);
 2/29=1/2;
 6/7=2,8=2,9=2,10=2,19=2,28=1/1;
 99/9=1,12=1/99;
 ------------------------------------------
 ./2/glo_2w_beta_boat2_b3lyp_631Gd_iopt.out
 ------------------------------------------
 Symbolic Z-matrix:
 Charge =  0 Multiplicity = 1
 C                    -0.26192  -0.93619  -1.05534 
 O                     0.49394   0.19506  -0.57884 
 H                     2.96197   0.6582   -0.19841 
 H                     1.66997  -2.02139   1.92576 
 O                     2.0195   -2.21556   1.04358 
 H                     2.6289   -1.47289   0.79816 
 O                     3.32828  -0.24294  -0.3142 
 H                     2.77383  -0.59163  -1.03329 
 C                    -1.51881   1.19278   0.4775 
 C                    -0.24364   1.40864  -0.39629 
 H                    -1.52388   1.92218   1.29554 
 H                    -0.56492   1.78911  -1.37952 
 O                    -2.72225   1.40503  -0.24074 
 H                    -2.90629   0.58657  -0.74094 
 C                     0.72508   2.38818   0.27262 
 O                     2.02203   2.41941  -0.31823 
 H                     0.88894   2.08301   1.31024 
 H                     0.26855   3.38854   0.28512 
 H                     1.92924   2.65441  -1.25555 
 H                     1.03588  -2.22036  -0.42565 
 C                    -1.37759  -1.28281  -0.02692 
 H                    -1.15857  -2.2607    0.41893 
 C                    -1.44887  -0.22211   1.09287 
 H                    -2.34694  -0.38673   1.69878 
 O                    -2.60248  -1.33815  -0.77828 
 H                    -3.28896  -1.72745  -0.2128 
 O                    -0.33582  -0.35315   1.97262 
 H                     0.44713  -0.31194   1.39347 
 O                     0.63121  -1.95768  -1.29277 
 H                    -0.73569  -0.67608  -2.01168 
 

 GradGradGradGradGradGradGradGradGradGradGradGradGradGradGradGradGradGrad
 Berny optimization.
 Initialization pass.
 No Z-matrix variables, so optimization will use Cartesian coordinates.
 Trust Radius=3.00D-01 FncErr=1.00D-07 GrdErr=1.00D-06
 Number of steps in this run=    180 maximum allowed number of steps=    180.
 Search for a saddle point of order  1.
 GradGradGradGradGradGradGradGradGradGradGradGradGradGradGradGradGradGrad

 ---------------------------------------------------------------------------------------------------
                            Z-MATRIX (ANGSTROMS AND DEGREES)
   CD    Cent   Atom    N1       Length/X        N2       Alpha/Y        N3        Beta/Z          J
 ---------------------------------------------------------------------------------------------------
      1      1  C        0  -0.261920         -0.936190         -1.055340
      2      2  O        0   0.493940          0.195060         -0.578840
      3      3  H        0   2.961970          0.658200         -0.198410
      4      4  H        0   1.669970         -2.021390          1.925760
      5      5  O        0   2.019500         -2.215560          1.043580
      6      6  H        0   2.628900         -1.472890          0.798160
      7      7  O        0   3.328280         -0.242940         -0.314200
      8      8  H        0   2.773830         -0.591630         -1.033290
      9      9  C        0  -1.518810          1.192780          0.477500
     10     10  C        0  -0.243640          1.408640         -0.396290
     11     11  H        0  -1.523880          1.922180          1.295540
     12     12  H        0  -0.564920          1.789110         -1.379520
     13     13  O        0  -2.722250          1.405030         -0.240740
     14     14  H        0  -2.906290          0.586570         -0.740940
     15     15  C        0   0.725080          2.388180          0.272620
     16     16  O        0   2.022030          2.419410         -0.318230
     17     17  H        0   0.888940          2.083010          1.310240
     18     18  H        0   0.268550          3.388540          0.285120
     19     19  H        0   1.929240          2.654410         -1.255550
     20     20  H        0   1.035880         -2.220360         -0.425650
     21     21  C        0  -1.377590         -1.282810         -0.026920
     22     22  H        0  -1.158570         -2.260700          0.418930
     23     23  C        0  -1.448870         -0.222110          1.092870
     24     24  H        0  -2.346940         -0.386730          1.698780
     25     25  O        0  -2.602480         -1.338150         -0.778280
     26     26  H        0  -3.288960         -1.727450         -0.212800
     27     27  O        0  -0.335820         -0.353150          1.972620
     28     28  H        0   0.447130         -0.311940          1.393470
     29     29  O        0   0.631210         -1.957680         -1.292770
     30     30  H        0  -0.735690         -0.676080         -2.011680
 ---------------------------------------------------------------------------------------------------
                         Z-Matrix orientation:                         
 ---------------------------------------------------------------------
 Center     Atomic      Atomic             Coordinates (Angstroms)
 Number     Number       Type             X           Y           Z
 ---------------------------------------------------------------------
      1          6           0       -0.261920   -0.936190   -1.055340
      2          8           0        0.493940    0.195060   -0.578840
      3          1           0        2.961970    0.658200   -0.198410
      4          1           0        1.669970   -2.021390    1.925760
      5          8           0        2.019500   -2.215560    1.043580
      6          1           0        2.628900   -1.472890    0.798160
      7          8           0        3.328280   -0.242940   -0.314200
      8          1           0        2.773830   -0.591630   -1.033290
      9          6           0       -1.518810    1.192780    0.477500
     10          6           0       -0.243640    1.408640   -0.396290
     11          1           0       -1.523880    1.922180    1.295540
     12          1           0       -0.564920    1.789110   -1.379520
     13          8           0       -2.722250    1.405030   -0.240740
     14          1           0       -2.906290    0.586570   -0.740940
     15          6           0        0.725080    2.388180    0.272620
     16          8           0        2.022030    2.419410   -0.318230
     17          1           0        0.888940    2.083010    1.310240
     18          1           0        0.268550    3.388540    0.285120
     19          1           0        1.929240    2.654410   -1.255550
     20          1           0        1.035880   -2.220360   -0.425650
     21          6           0       -1.377590   -1.282810   -0.026920
     22          1           0       -1.158570   -2.260700    0.418930
     23          6           0       -1.448870   -0.222110    1.092870
     24          1           0       -2.346940   -0.386730    1.698780
     25          8           0       -2.602480   -1.338150   -0.778280
     26          1           0       -3.288960   -1.727450   -0.212800
     27          8           0       -0.335820   -0.353150    1.972620
     28          1           0        0.447130   -0.311940    1.393470
     29          8           0        0.631210   -1.957680   -1.292770
     30          1           0       -0.735690   -0.676080   -2.011680
 ---------------------------------------------------------------------
                    Distance matrix (angstroms):
                    1          2          3          4          5
     1  C    0.000000
     2  O    1.441563   0.000000
     3  H    3.697279   2.539763   0.000000
     4  H    3.714406   3.545239   3.655347   0.000000
     5  O    3.353674   3.281870   3.269447   0.968563   0.000000
     6  H    3.475680   3.039118   2.376054   1.578569   0.991543
     7  O    3.730874   2.880167   0.979614   3.306100   2.729048
     8  H    3.055321   2.454242   1.514759   3.466799   2.742180
     9  C    2.908932   2.482431   4.562896   4.753595   4.945388
    10  C    2.435756   1.431826   3.298220   4.562776   4.508864
    11  H    3.910174   3.250822   4.894117   5.113668   5.453432
    12  H    2.761188   2.074432   3.887535   5.517202   5.346777
    13  O    3.492579   3.452856   5.733228   5.977096   6.102650
    14  H    3.067627   3.426532   5.893721   5.903804   5.941368
    15  C    3.713365   2.363934   2.866771   4.803124   4.843999
    16  O    4.125507   2.711219   1.999926   4.988000   4.830888
    17  H    4.004499   2.699815   2.933183   4.223147   4.452749
    18  H    4.558675   3.315953   3.865627   5.824347   5.920053
    19  H    4.211137   2.926846   2.483733   5.661366   5.386163
    20  H    1.931292   2.480206   3.470961   2.443520   1.768097
    21  C    1.556442   2.447721   4.756964   3.694060   3.681876
    22  H    2.175266   3.123634   5.087233   3.213790   3.239190
    23  C    2.556084   2.596759   4.679515   3.695711   4.000733
    24  H    3.497770   3.687361   5.733736   4.342718   4.779090
    25  O    2.390932   3.460972   5.940098   5.102203   5.044970
    26  H    3.240206   4.259150   6.690714   5.408403   5.476905
    27  O    3.084467   2.738427   4.075735   2.609294   3.143122
    28  H    2.624711   2.036970   3.130443   2.168154   2.493700
    29  O    1.377496   2.272186   3.670544   3.382605   2.729905
    30  H    1.098500   2.079400   4.329081   4.806297   4.392685
                    6          7          8          9         10
     6  H    0.000000
     7  O    1.799793   0.000000
     8  H    2.037605   0.972672   0.000000
     9  C    4.940862   5.116870   4.888084   0.000000
    10  C    4.240450   3.936123   3.675864   1.560821   0.000000
    11  H    5.386972   5.551798   5.496635   1.096011   2.182894
    12  H    5.058006   4.518976   4.115222   2.171184   1.102143
    13  O    6.164134   6.271373   5.900990   1.417458   2.483489
    14  H    6.103158   6.303972   5.808389   1.943499   2.807897
    15  C    4.336886   3.747506   3.844743   2.550686   1.531456
    16  O    4.094462   2.965538   3.184788   3.830843   2.482138
    17  H    3.991755   3.741554   4.024754   2.698745   2.156330
    18  H    5.428440   4.786312   4.884300   2.837786   2.155612
    19  H    4.662816   3.352326   3.361474   4.126606   2.647957
    20  H    2.143393   3.029473   2.458141   4.357941   3.848074
    21  C    4.094979   4.827947   4.327216   2.530401   2.943838
    22  H    3.887080   4.973998   4.512040   3.472712   3.868557
    23  C    4.275455   4.980105   4.742183   1.544502   2.515854
    24  H    5.172025   6.023362   5.807622   2.161522   3.469372
    25  O    5.465405   6.048865   5.433878   3.026042   3.640728
    26  H    6.008986   6.782471   6.222597   3.483919   4.375237
    27  O    3.379754   4.320569   4.331546   2.454536   2.953665
    28  H    2.542109   3.349914   3.373562   2.639717   2.576975
    29  O    2.932196   3.342472   2.554260   4.204978   3.591817
    30  H    4.455398   4.425483   3.644326   3.209662   2.682845
                   11         12         13         14         15
    11  H    0.000000
    12  H    2.844865   0.000000
    13  O    2.015860   2.469496   0.000000
    14  H    2.800386   2.708487   0.976702   0.000000
    15  C    2.514228   2.180035   3.621354   4.178511   0.000000
    16  O    3.927463   2.866343   4.852130   5.275066   1.425538
    17  H    2.418219   3.071627   3.988219   4.566229   1.093908
    18  H    2.526651   2.454358   3.627082   4.356999   1.099680
    19  H    4.355256   2.642905   4.922108   5.284235   1.963717
    20  H    5.164833   4.421343   5.225054   4.849636   4.671490
    21  C    3.470196   3.453498   3.013024   2.518200   4.241122
    22  H    4.289333   4.470772   4.039534   3.536491   5.018130
    23  C    2.155152   3.307429   2.459186   2.478083   3.494636
    24  H    2.484169   4.169629   2.667021   2.685595   4.378512
    25  O    4.011715   3.780595   2.797915   1.948908   5.105152
    26  H    4.325552   4.598676   3.183453   2.404175   5.769451
    27  O    2.654628   3.984797   3.699352   3.854062   3.395644
    28  H    2.980900   3.623276   3.957726   4.075347   2.936700
    29  O    5.137808   3.934042   4.864183   4.392224   4.620147
    30  H    4.279007   2.550676   3.378412   2.814351   4.091646
                   16         17         18         19         20
    16  O    0.000000
    17  H    2.012206   0.000000
    18  H    2.092352   1.772051   0.000000
    19  H    0.970775   2.827013   2.381282   0.000000
    20  H    4.744628   4.642618   5.705589   5.024959   0.000000
    21  C    5.034750   4.272458   4.962727   5.286431   2.619699
    22  H    5.706404   4.884112   5.828249   6.041255   2.351713
    23  C    4.584319   3.290317   4.079067   5.020067   3.531698
    24  H    5.570516   4.089193   4.805402   6.021820   4.395324
    25  O    5.976370   5.315662   5.631628   6.058449   3.760360
    26  H    6.739004   5.856117   6.251172   6.893304   4.358039
    27  O    4.300528   2.806004   4.148875   4.959536   3.334626
    28  H    3.587548   2.436782   3.867025   4.244195   2.701461
    29  O    4.695000   4.813446   5.585994   4.791413   0.992298
    30  H    4.478264   4.613800   4.775450   4.331945   2.835269
                   21         22         23         24         25
    21  C    0.000000
    22  H    1.096823   0.000000
    23  C    1.544051   2.166638   0.000000
    24  H    2.172703   2.561641   1.095790   0.000000
    25  O    1.438040   2.090284   2.465272   2.665769   0.000000
    26  H    1.971190   2.285170   2.712334   2.517751   0.970864
    27  O    2.438793   2.594151   1.424785   2.029956   3.698030
    28  H    2.507927   2.706597   1.921782   2.811696   3.881975
    29  O    2.468421   2.495005   3.609739   4.504068   3.332457
    30  H    2.172425   2.932186   3.217599   4.055535   2.333349
                   26         27         28         29         30
    26  H    0.000000
    27  O    3.922473   0.000000
    28  H    4.306059   0.974743   0.000000
    29  O    4.072723   3.764630   3.155666   0.000000
    30  H    3.295533   4.017316   3.623080   2.006924   0.000000
 Stoichiometry    C6H16O8
 Framework group  C1[X(C6H16O8)]
 Deg. of freedom    84
 Full point group                 C1      NOp   1
 Largest Abelian subgroup         C1      NOp   1
 Largest concise Abelian subgroup C1      NOp   1
                         Standard orientation:                         
 ---------------------------------------------------------------------
 Center     Atomic      Atomic             Coordinates (Angstroms)
 Number     Number       Type             X           Y           Z
 ---------------------------------------------------------------------
      1          6           0       -0.261920   -0.936189   -1.055339
      2          8           0        0.493941    0.195060   -0.578839
      3          1           0        2.961971    0.658198   -0.198409
      4          1           0        1.669969   -2.021391    1.925761
      5          8           0        2.019499   -2.215561    1.043581
      6          1           0        2.628899   -1.472892    0.798161
      7          8           0        3.328280   -0.242942   -0.314199
      8          1           0        2.773830   -0.591632   -1.033289
      9          6           0       -1.518808    1.192782    0.477501
     10          6           0       -0.243638    1.408641   -0.396289
     11          1           0       -1.523878    1.922182    1.295541
     12          1           0       -0.564918    1.789111   -1.379519
     13          8           0       -2.722248    1.405033   -0.240739
     14          1           0       -2.906289    0.586573   -0.740939
     15          6           0        0.725082    2.388180    0.272621
     16          8           0        2.022033    2.419409   -0.318229
     17          1           0        0.888942    2.083010    1.310241
     18          1           0        0.268553    3.388540    0.285121
     19          1           0        1.929243    2.654409   -1.255549
     20          1           0        1.035879   -2.220360   -0.425649
     21          6           0       -1.377591   -1.282808   -0.026919
     22          1           0       -1.158571   -2.260699    0.418931
     23          6           0       -1.448870   -0.222108    1.092871
     24          1           0       -2.346940   -0.386728    1.698781
     25          8           0       -2.602481   -1.338147   -0.778279
     26          1           0       -3.288961   -1.727447   -0.212799
     27          8           0       -0.335820   -0.353149    1.972621
     28          1           0        0.447130   -0.311940    1.393471
     29          8           0        0.631209   -1.957680   -1.292769
     30          1           0       -0.735690   -0.676079   -2.011679
 ---------------------------------------------------------------------
 Rotational constants (GHZ):      0.7545293      0.5787777      0.4280225
 Standard basis: 6-31G(d) (6D, 7F)
 There are   242 symmetry adapted cartesian basis functions of A   symmetry.
 There are   242 symmetry adapted basis functions of A   symmetry.
   242 basis functions,   456 primitive gaussians,   242 cartesian basis functions
    58 alpha electrons       58 beta electrons
       nuclear repulsion energy      1136.1538014261 Hartrees.
 NAtoms=   30 NActive=   30 NUniq=   30 SFac= 1.00D+00 NAtFMM=   60 NAOKFM=F Big=F
 Integral buffers will be    131072 words long.
 Raffenetti 2 integral format.
 Two-electron integral symmetry is turned on.
 One-electron integrals computed using PRISM.
 NBasis=   242 RedAO= T EigKep=  1.68D-03  NBF=   242
 NBsUse=   242 1.00D-06 EigRej= -1.00D+00 NBFU=   242
 ExpMin= 1.61D-01 ExpMax= 5.48D+03 ExpMxC= 8.25D+02 IAcc=1 IRadAn=         1 AccDes= 0.00D+00
 Harris functional with IExCor=  402 and IRadAn=       1 diagonalized for initial guess.
 HarFok:  IExCor=  402 AccDes= 0.00D+00 IRadAn=         1 IDoV= 1 UseB2=F ITyADJ=14
 ICtDFT=  3500011 ScaDFX=  1.000000  1.000000  1.000000  1.000000
 FoFCou: FMM=F IPFlag=           0 FMFlag=      100000 FMFlg1=           0
         NFxFlg=           0 DoJE=T BraDBF=F KetDBF=T FulRan=T
         wScrn=  0.000000 ICntrl=     500 IOpCl=  0 I1Cent=   200000004 NGrid=           0
         NMat0=    1 NMatS0=      1 NMatT0=    0 NMatD0=    1 NMtDS0=    0 NMtDT0=    0
 Petite list used in FoFCou.
 Requested convergence on RMS density matrix=1.00D-08 within 128 cycles.
 Requested convergence on MAX density matrix=1.00D-06.
 Requested convergence on             energy=1.00D-06.
 No special actions if energy rises.
 Integral accuracy reduced to 1.0D-05 until final iterations.
 Initial convergence to 1.0D-05 achieved.  Increase integral accuracy.
 SCF Done:  E(RB3LYP) =  -840.000018473     A.U. after   13 cycles
            NFock= 13  Conv=0.99D-08     -V/T= 2.0086
 DoSCS=F DFT=T ScalE2(SS,OS)=  1.000000  1.000000
 Range of M.O.s used for correlation:     1   242
 NBasis=   242 NAE=    58 NBE=    58 NFC=     0 NFV=     0
 NROrb=    242 NOA=    58 NOB=    58 NVA=   184 NVB=   184
 Symmetrizing basis deriv contribution to polar:
 IMax=3 JMax=2 DiffMx= 0.00D+00
 G2DrvN: will do    31 centers at a time, making    1 passes.
 Calling FoFCou, ICntrl=  3107 FMM=F I1Cent=   0 AccDes= 0.00D+00.
 End of G2Drv F.D. properties file   721 does not exist.
 End of G2Drv F.D. properties file   722 does not exist.
 End of G2Drv F.D. properties file   788 does not exist.
          IDoAtm=111111111111111111111111111111
          Differentiating once with respect to nuclear coordinates.
          There are    93 degrees of freedom in the 1st order CPHF.  IDoFFX=6 NUNeed=     0.
     87 vectors produced by pass  0 Test12= 1.15D-14 1.08D-09 XBig12= 1.22D-01 4.59D-02.
 AX will form    87 AO Fock derivatives at one time.
     87 vectors produced by pass  1 Test12= 1.15D-14 1.08D-09 XBig12= 2.35D-02 1.76D-02.
     87 vectors produced by pass  2 Test12= 1.15D-14 1.08D-09 XBig12= 2.00D-04 1.34D-03.
     87 vectors produced by pass  3 Test12= 1.15D-14 1.08D-09 XBig12= 4.92D-07 8.07D-05.
     87 vectors produced by pass  4 Test12= 1.15D-14 1.08D-09 XBig12= 6.94D-10 2.28D-06.
     68 vectors produced by pass  5 Test12= 1.15D-14 1.08D-09 XBig12= 5.92D-13 6.45D-08.
      3 vectors produced by pass  6 Test12= 1.15D-14 1.08D-09 XBig12= 5.30D-16 2.15D-09.
 InvSVY:  IOpt=1 It=  1 EMax= 6.66D-16
 Solved reduced A of dimension   506 with    93 vectors.
 End of Minotr F.D. properties file   721 does not exist.
 End of Minotr F.D. properties file   722 does not exist.
 End of Minotr F.D. properties file   788 does not exist.

 **********************************************************************

            Population analysis using the SCF density.

 **********************************************************************

 Orbital symmetries:
       Occupied  (A) (A) (A) (A) (A) (A) (A) (A) (A) (A) (A) (A)
                 (A) (A) (A) (A) (A) (A) (A) (A) (A) (A) (A) (A)
                 (A) (A) (A) (A) (A) (A) (A) (A) (A) (A) (A) (A)
                 (A) (A) (A) (A) (A) (A) (A) (A) (A) (A) (A) (A)
                 (A) (A) (A) (A) (A) (A) (A) (A) (A) (A)
       Virtual   (A) (A) (A) (A) (A) (A) (A) (A) (A) (A) (A) (A)
                 (A) (A) (A) (A) (A) (A) (A) (A) (A) (A) (A) (A)
                 (A) (A) (A) (A) (A) (A) (A) (A) (A) (A) (A) (A)
                 (A) (A) (A) (A) (A) (A) (A) (A) (A) (A) (A) (A)
                 (A) (A) (A) (A) (A) (A) (A) (A) (A) (A) (A) (A)
                 (A) (A) (A) (A) (A) (A) (A) (A) (A) (A) (A) (A)
                 (A) (A) (A) (A) (A) (A) (A) (A) (A) (A) (A) (A)
                 (A) (A) (A) (A) (A) (A) (A) (A) (A) (A) (A) (A)
                 (A) (A) (A) (A) (A) (A) (A) (A) (A) (A) (A) (A)
                 (A) (A) (A) (A) (A) (A) (A) (A) (A) (A) (A) (A)
                 (A) (A) (A) (A) (A) (A) (A) (A) (A) (A) (A) (A)
                 (A) (A) (A) (A) (A) (A) (A) (A) (A) (A) (A) (A)
                 (A) (A) (A) (A) (A) (A) (A) (A) (A) (A) (A) (A)
                 (A) (A) (A) (A) (A) (A) (A) (A) (A) (A) (A) (A)
                 (A) (A) (A) (A) (A) (A) (A) (A) (A) (A) (A) (A)
                 (A) (A) (A) (A)
 The electronic state is 1-A.
 Alpha  occ. eigenvalues --  -19.18704 -19.18096 -19.17567 -19.16094 -19.14985
 Alpha  occ. eigenvalues --  -19.14925 -19.14643 -19.13989 -10.29880 -10.25772
 Alpha  occ. eigenvalues --  -10.25675 -10.25654 -10.25388 -10.24980  -1.08739
 Alpha  occ. eigenvalues --   -1.05542  -1.04785  -1.03693  -1.02216  -1.01278
 Alpha  occ. eigenvalues --   -1.00448  -0.99186  -0.78910  -0.77644  -0.70319
 Alpha  occ. eigenvalues --   -0.66055  -0.64623  -0.59912  -0.56230  -0.55238
 Alpha  occ. eigenvalues --   -0.54282  -0.53000  -0.52473  -0.51316  -0.50445
 Alpha  occ. eigenvalues --   -0.47990  -0.46829  -0.45773  -0.45553  -0.43645
 Alpha  occ. eigenvalues --   -0.41447  -0.41309  -0.39987  -0.39615  -0.39050
 Alpha  occ. eigenvalues --   -0.38289  -0.36686  -0.35924  -0.35056  -0.33931
 Alpha  occ. eigenvalues --   -0.32034  -0.31613  -0.30693  -0.29770  -0.29452
 Alpha  occ. eigenvalues --   -0.28731  -0.27016  -0.25761
 Alpha virt. eigenvalues --    0.03207   0.04453   0.06331   0.08468   0.10043
 Alpha virt. eigenvalues --    0.10705   0.11056   0.11931   0.12647   0.13060
 Alpha virt. eigenvalues --    0.14518   0.14813   0.15879   0.16657   0.18419
 Alpha virt. eigenvalues --    0.19738   0.20332   0.21019   0.21955   0.22213
 Alpha virt. eigenvalues --    0.22908   0.24826   0.25481   0.26144   0.29774
 Alpha virt. eigenvalues --    0.31160   0.32575   0.34103   0.50981   0.52808
 Alpha virt. eigenvalues --    0.53564   0.54825   0.56491   0.56950   0.57327
 Alpha virt. eigenvalues --    0.59947   0.60321   0.61771   0.64619   0.65285
 Alpha virt. eigenvalues --    0.66981   0.69140   0.72434   0.74195   0.74686
 Alpha virt. eigenvalues --    0.76370   0.77185   0.78571   0.79202   0.80743
 Alpha virt. eigenvalues --    0.80974   0.81613   0.82419   0.82686   0.83957
 Alpha virt. eigenvalues --    0.85142   0.86068   0.86631   0.87952   0.88966
 Alpha virt. eigenvalues --    0.89601   0.90946   0.91751   0.93800   0.95221
 Alpha virt. eigenvalues --    0.96588   0.97611   0.98300   1.00217   1.01400
 Alpha virt. eigenvalues --    1.03632   1.04480   1.04957   1.05597   1.08284
 Alpha virt. eigenvalues --    1.09327   1.11261   1.12974   1.14793   1.17400
 Alpha virt. eigenvalues --    1.17696   1.20033   1.21214   1.24213   1.26271
 Alpha virt. eigenvalues --    1.27133   1.28734   1.29614   1.31829   1.35561
 Alpha virt. eigenvalues --    1.37543   1.40976   1.46027   1.47410   1.48978
 Alpha virt. eigenvalues --    1.50982   1.51866   1.54727   1.58224   1.58830
 Alpha virt. eigenvalues --    1.61767   1.63318   1.64938   1.67671   1.69696
 Alpha virt. eigenvalues --    1.70061   1.71624   1.72542   1.73532   1.73876
 Alpha virt. eigenvalues --    1.74220   1.75093   1.76293   1.78356   1.78834
 Alpha virt. eigenvalues --    1.80664   1.81545   1.83339   1.84750   1.85144
 Alpha virt. eigenvalues --    1.86882   1.88284   1.89342   1.91246   1.96457
 Alpha virt. eigenvalues --    1.97745   1.98505   2.01333   2.03575   2.04325
 Alpha virt. eigenvalues --    2.07202   2.07965   2.11091   2.12361   2.14272
 Alpha virt. eigenvalues --    2.16843   2.18562   2.21268   2.24366   2.27799
 Alpha virt. eigenvalues --    2.28711   2.31234   2.33980   2.34990   2.36748
 Alpha virt. eigenvalues --    2.41381   2.41743   2.44690   2.45559   2.48543
 Alpha virt. eigenvalues --    2.50914   2.51582   2.54899   2.57173   2.58082
 Alpha virt. eigenvalues --    2.59353   2.61106   2.61905   2.64393   2.68580
 Alpha virt. eigenvalues --    2.70588   2.75215   2.80809   2.84854   2.89287
 Alpha virt. eigenvalues --    2.91241   2.95912   2.98550   3.01458   3.04790
 Alpha virt. eigenvalues --    3.70710   3.74170   3.76633   3.85428   3.88502
 Alpha virt. eigenvalues --    3.95871   4.07943   4.11626   4.24972   4.37908
 Alpha virt. eigenvalues --    4.44650   4.57657   4.73459   4.78991
          Condensed to atoms (all electrons):
               1          2          3          4          5          6
     1  C    4.657931   0.170698   0.000034  -0.000052   0.002995  -0.000265
     2  O    0.170698   8.413622   0.004287  -0.000263  -0.001125   0.000685
     3  H    0.000034   0.004287   0.320612  -0.000078   0.001129  -0.002509
     4  H   -0.000052  -0.000263  -0.000078   0.364873   0.235496  -0.010305
     5  O    0.002995  -0.001125   0.001129   0.235496   8.358383   0.193459
     6  H   -0.000265   0.000685  -0.002509  -0.010305   0.193459   0.321546
     7  O   -0.000395  -0.002707   0.228418   0.000836  -0.027540   0.077349
     8  H    0.000538   0.006780  -0.022092  -0.000022   0.003922  -0.009693
     9  C   -0.019965  -0.036724   0.000013   0.000074   0.000029  -0.000007
    10  C   -0.009424   0.177410  -0.001356  -0.000016  -0.000075  -0.000034
    11  H    0.000294   0.003435   0.000001  -0.000002   0.000000  -0.000000
    12  H   -0.004253  -0.040918  -0.000024  -0.000000  -0.000003   0.000002
    13  O    0.000442   0.001159  -0.000000  -0.000000   0.000000  -0.000000
    14  H   -0.001172   0.000232  -0.000000   0.000000  -0.000000   0.000000
    15  C    0.003181  -0.044501  -0.003854   0.000014  -0.000002   0.000045
    16  O    0.000064  -0.000450   0.049150   0.000000  -0.000001   0.000002
    17  H   -0.000188  -0.002373  -0.001248  -0.000042  -0.000035   0.000038
    18  H   -0.000051   0.003310   0.000468  -0.000000  -0.000000   0.000001
    19  H   -0.000086   0.000535  -0.002912  -0.000000   0.000000  -0.000005
    20  H   -0.022945   0.002093  -0.000039  -0.004276   0.070849  -0.005787
    21  C    0.279434  -0.049833  -0.000017   0.000096   0.000421  -0.000082
    22  H   -0.041568   0.002999  -0.000001   0.000593   0.000861  -0.000046
    23  C   -0.040607   0.009180   0.000027  -0.000354  -0.000816   0.000053
    24  H    0.004527   0.000112   0.000000  -0.000031  -0.000009   0.000000
    25  O   -0.029850   0.000950  -0.000000   0.000001   0.000002  -0.000000
    26  H    0.005873  -0.000154   0.000000  -0.000000  -0.000000   0.000000
    27  O    0.003917  -0.019230  -0.000007   0.009508  -0.004481  -0.000003
    28  H    0.003452   0.034096   0.000364  -0.000017   0.019674   0.001031
    29  O    0.313407  -0.058134  -0.000107   0.001351  -0.026424   0.002917
    30  H    0.377139  -0.041646   0.000020   0.000006  -0.000045   0.000020
               7          8          9         10         11         12
     1  C   -0.000395   0.000538  -0.019965  -0.009424   0.000294  -0.004253
     2  O   -0.002707   0.006780  -0.036724   0.177410   0.003435  -0.040918
     3  H    0.228418  -0.022092   0.000013  -0.001356   0.000001  -0.000024
     4  H    0.000836  -0.000022   0.000074  -0.000016  -0.000002  -0.000000
     5  O   -0.027540   0.003922   0.000029  -0.000075   0.000000  -0.000003
     6  H    0.077349  -0.009693  -0.000007  -0.000034  -0.000000   0.000002
     7  O    8.320870   0.232487  -0.000007  -0.000137  -0.000000  -0.000001
     8  H    0.232487   0.370319   0.000025   0.000393  -0.000001  -0.000032
     9  C   -0.000007   0.000025   5.031654   0.252476   0.376730  -0.057462
    10  C   -0.000137   0.000393   0.252476   5.089740  -0.068236   0.350789
    11  H   -0.000000  -0.000001   0.376730  -0.068236   0.598153   0.004380
    12  H   -0.000001  -0.000032  -0.057462   0.350789   0.004380   0.623116
    13  O    0.000000  -0.000000   0.237124  -0.041037  -0.041865   0.005380
    14  H   -0.000000  -0.000000  -0.031073  -0.002081   0.005797   0.001121
    15  C    0.001359  -0.000418  -0.015258   0.322508  -0.001234  -0.037584
    16  O   -0.011563   0.000778   0.002486  -0.034818   0.000110  -0.002269
    17  H    0.000264  -0.000021  -0.006829  -0.036079   0.003530   0.005249
    18  H   -0.000021   0.000004   0.000865  -0.045694   0.003168  -0.002600
    19  H    0.000961   0.000177   0.000084  -0.002676   0.000008   0.003781
    20  H    0.001893  -0.001651   0.000018  -0.000174  -0.000002   0.000019
    21  C   -0.000027   0.000386  -0.015920  -0.024881   0.005627  -0.001841
    22  H    0.000003  -0.000023   0.005776   0.000085  -0.000175   0.000033
    23  C   -0.000001  -0.000033   0.286765  -0.029840  -0.036731   0.004596
    24  H   -0.000000   0.000001  -0.051300   0.006624  -0.006537  -0.000203
    25  O    0.000000  -0.000001   0.000276   0.000401  -0.000191  -0.000005
    26  H   -0.000000   0.000000  -0.000709   0.000031  -0.000011  -0.000015
    27  O   -0.000040   0.000003  -0.038840   0.007771   0.001789  -0.000202
    28  H    0.000925  -0.000016  -0.009592  -0.001464  -0.000062   0.000632
    29  O   -0.002256   0.017039   0.000083   0.003099   0.000004  -0.000048
    30  H   -0.000005  -0.000220  -0.001571  -0.005467   0.000055   0.009728
              13         14         15         16         17         18
     1  C    0.000442  -0.001172   0.003181   0.000064  -0.000188  -0.000051
     2  O    0.001159   0.000232  -0.044501  -0.000450  -0.002373   0.003310
     3  H   -0.000000  -0.000000  -0.003854   0.049150  -0.001248   0.000468
     4  H   -0.000000   0.000000   0.000014   0.000000  -0.000042  -0.000000
     5  O    0.000000  -0.000000  -0.000002  -0.000001  -0.000035  -0.000000
     6  H   -0.000000   0.000000   0.000045   0.000002   0.000038   0.000001
     7  O    0.000000  -0.000000   0.001359  -0.011563   0.000264  -0.000021
     8  H   -0.000000  -0.000000  -0.000418   0.000778  -0.000021   0.000004
     9  C    0.237124  -0.031073  -0.015258   0.002486  -0.006829   0.000865
    10  C   -0.041037  -0.002081   0.322508  -0.034818  -0.036079  -0.045694
    11  H   -0.041865   0.005797  -0.001234   0.000110   0.003530   0.003168
    12  H    0.005380   0.001121  -0.037584  -0.002269   0.005249  -0.002600
    13  O    8.300254   0.225014   0.002002  -0.000009   0.000070  -0.000044
    14  H    0.225014   0.353617  -0.000005   0.000001   0.000001   0.000004
    15  C    0.002002  -0.000005   4.910560   0.235290   0.369122   0.358856
    16  O   -0.000009   0.000001   0.235290   8.207566  -0.038353  -0.030930
    17  H    0.000070   0.000001   0.369122  -0.038353   0.557135  -0.035407
    18  H   -0.000044   0.000004   0.358856  -0.030930  -0.035407   0.600540
    19  H   -0.000001  -0.000000  -0.028773   0.234971   0.006692  -0.004527
    20  H   -0.000000   0.000003   0.000024  -0.000003  -0.000005   0.000000
    21  C    0.002364  -0.004224   0.000155  -0.000021   0.000186  -0.000028
    22  H   -0.000181   0.000773   0.000019  -0.000000  -0.000006  -0.000000
    23  C   -0.026817  -0.011458  -0.002626   0.000002  -0.000034   0.000366
    24  H    0.004816  -0.000542  -0.000114   0.000001  -0.000067   0.000011
    25  O   -0.017162   0.051974  -0.000005   0.000000  -0.000002  -0.000000
    26  H    0.001513  -0.002611  -0.000001   0.000000  -0.000000   0.000000
    27  O    0.001537   0.000060  -0.003478   0.000010   0.007588   0.000073
    28  H    0.000020   0.000040   0.000345  -0.000079   0.002023   0.000043
    29  O    0.000002   0.000010  -0.000147   0.000001   0.000002   0.000001
    30  H    0.000402   0.001491  -0.000002  -0.000023   0.000014   0.000018
              19         20         21         22         23         24
     1  C   -0.000086  -0.022945   0.279434  -0.041568  -0.040607   0.004527
     2  O    0.000535   0.002093  -0.049833   0.002999   0.009180   0.000112
     3  H   -0.002912  -0.000039  -0.000017  -0.000001   0.000027   0.000000
     4  H   -0.000000  -0.004276   0.000096   0.000593  -0.000354  -0.000031
     5  O    0.000000   0.070849   0.000421   0.000861  -0.000816  -0.000009
     6  H   -0.000005  -0.005787  -0.000082  -0.000046   0.000053   0.000000
     7  O    0.000961   0.001893  -0.000027   0.000003  -0.000001  -0.000000
     8  H    0.000177  -0.001651   0.000386  -0.000023  -0.000033   0.000001
     9  C    0.000084   0.000018  -0.015920   0.005776   0.286765  -0.051300
    10  C   -0.002676  -0.000174  -0.024881   0.000085  -0.029840   0.006624
    11  H    0.000008  -0.000002   0.005627  -0.000175  -0.036731  -0.006537
    12  H    0.003781   0.000019  -0.001841   0.000033   0.004596  -0.000203
    13  O   -0.000001  -0.000000   0.002364  -0.000181  -0.026817   0.004816
    14  H   -0.000000   0.000003  -0.004224   0.000773  -0.011458  -0.000542
    15  C   -0.028773   0.000024   0.000155   0.000019  -0.002626  -0.000114
    16  O    0.234971  -0.000003  -0.000021  -0.000000   0.000002   0.000001
    17  H    0.006692  -0.000005   0.000186  -0.000006  -0.000034  -0.000067
    18  H   -0.004527   0.000000  -0.000028  -0.000000   0.000366   0.000011
    19  H    0.387784  -0.000001   0.000007  -0.000000  -0.000008  -0.000000
    20  H   -0.000001   0.310960  -0.008874   0.005000  -0.000178  -0.000025
    21  C    0.000007  -0.008874   5.210355   0.359029   0.279213  -0.047215
    22  H   -0.000000   0.005000   0.359029   0.585030  -0.048995  -0.004866
    23  C   -0.000008  -0.000178   0.279213  -0.048995   5.013072   0.370301
    24  H   -0.000000  -0.000025  -0.047215  -0.004866   0.370301   0.605092
    25  O   -0.000000   0.000001   0.156273  -0.025888  -0.032420   0.000712
    26  H    0.000000  -0.000003  -0.019333  -0.006790  -0.001632   0.004631
    27  O   -0.000003   0.000061  -0.034068   0.004253   0.212880  -0.033338
    28  H    0.000015   0.001170  -0.011158   0.000122  -0.030582   0.006099
    29  O    0.000001   0.202088  -0.032579   0.000003   0.001621  -0.000069
    30  H    0.000001   0.005433  -0.078645   0.004466   0.002724  -0.000281
              25         26         27         28         29         30
     1  C   -0.029850   0.005873   0.003917   0.003452   0.313407   0.377139
     2  O    0.000950  -0.000154  -0.019230   0.034096  -0.058134  -0.041646
     3  H   -0.000000   0.000000  -0.000007   0.000364  -0.000107   0.000020
     4  H    0.000001  -0.000000   0.009508  -0.000017   0.001351   0.000006
     5  O    0.000002  -0.000000  -0.004481   0.019674  -0.026424  -0.000045
     6  H   -0.000000   0.000000  -0.000003   0.001031   0.002917   0.000020
     7  O    0.000000  -0.000000  -0.000040   0.000925  -0.002256  -0.000005
     8  H   -0.000001   0.000000   0.000003  -0.000016   0.017039  -0.000220
     9  C    0.000276  -0.000709  -0.038840  -0.009592   0.000083  -0.001571
    10  C    0.000401   0.000031   0.007771  -0.001464   0.003099  -0.005467
    11  H   -0.000191  -0.000011   0.001789  -0.000062   0.000004   0.000055
    12  H   -0.000005  -0.000015  -0.000202   0.000632  -0.000048   0.009728
    13  O   -0.017162   0.001513   0.001537   0.000020   0.000002   0.000402
    14  H    0.051974  -0.002611   0.000060   0.000040   0.000010   0.001491
    15  C   -0.000005  -0.000001  -0.003478   0.000345  -0.000147  -0.000002
    16  O    0.000000   0.000000   0.000010  -0.000079   0.000001  -0.000023
    17  H   -0.000002  -0.000000   0.007588   0.002023   0.000002   0.000014
    18  H   -0.000000   0.000000   0.000073   0.000043   0.000001   0.000018
    19  H   -0.000000   0.000000  -0.000003   0.000015   0.000001   0.000001
    20  H    0.000001  -0.000003   0.000061   0.001170   0.202088   0.005433
    21  C    0.156273  -0.019333  -0.034068  -0.011158  -0.032579  -0.078645
    22  H   -0.025888  -0.006790   0.004253   0.000122   0.000003   0.004466
    23  C   -0.032420  -0.001632   0.212880  -0.030582   0.001621   0.002724
    24  H    0.000712   0.004631  -0.033338   0.006099  -0.000069  -0.000281
    25  O    8.288157   0.231645   0.001657   0.000050   0.001095   0.005877
    26  H    0.231645   0.378755   0.000007   0.000014  -0.000198  -0.000420
    27  O    0.001657   0.000007   8.335773   0.200918  -0.000116  -0.000161
    28  H    0.000050   0.000014   0.200918   0.379961  -0.000954   0.000652
    29  O    0.001095  -0.000198  -0.000116  -0.000954   8.267750  -0.040158
    30  H    0.005877  -0.000420  -0.000161   0.000652  -0.040158   0.608479
 Mulliken charges:
               1
     1  C    0.346895
     2  O   -0.533526
     3  H    0.429717
     4  H    0.402609
     5  O   -0.826667
     6  H    0.431585
     7  O   -0.820668
     8  H    0.401370
     9  C    0.090780
    10  C    0.092161
    11  H    0.151961
    12  H    0.138632
    13  O   -0.654984
    14  H    0.413027
    15  C   -0.065478
    16  O   -0.611914
    17  H    0.168774
    18  H    0.151574
    19  H    0.403973
    20  H    0.444349
    21  C    0.035200
    22  H    0.159494
    23  C    0.082331
    24  H    0.141671
    25  O   -0.633548
    26  H    0.409407
    27  O   -0.653838
    28  H    0.402278
    29  O   -0.649284
    30  H    0.152117
 Sum of Mulliken charges =  -0.00000
 Mulliken charges with hydrogens summed into heavy atoms:
               1
     1  C    0.499012
     2  O   -0.533526
     5  O    0.007528
     7  O    0.010419
     9  C    0.242741
    10  C    0.230794
    13  O   -0.241956
    15  C    0.254871
    16  O   -0.207940
    21  C    0.194694
    23  C    0.224002
    25  O   -0.224141
    27  O   -0.251560
    29  O   -0.204936
 APT charges:
               1
     1  C   -0.264856
     2  O   -0.362794
     3  H    0.335504
     4  H    0.510627
     5  O   -0.859499
     6  H    0.395846
     7  O   -0.628097
     8  H    0.325773
     9  C   -0.361391
    10  C   -0.267881
    11  H    0.492921
    12  H    0.407943
    13  O   -0.590738
    14  H    0.462427
    15  C   -0.719640
    16  O   -0.753683
    17  H    0.314451
    18  H    0.574511
    19  H    0.664795
    20  H    0.460054
    21  C   -0.233919
    22  H    0.441530
    23  C   -0.444115
    24  H    0.567037
    25  O   -1.007715
    26  H    0.841181
    27  O   -0.521556
    28  H    0.316567
    29  O   -0.530750
    30  H    0.435468
 Sum of APT charges =  -0.00000
 APT charges with hydrogens summed into heavy atoms:
               1
     1  C    0.170612
     2  O   -0.362794
     5  O    0.046974
     7  O    0.033180
     9  C    0.131530
    10  C    0.140062
    13  O   -0.128311
    15  C    0.169323
    16  O   -0.088888
    21  C    0.207612
    23  C    0.122922
    25  O   -0.166534
    27  O   -0.204989
    29  O   -0.070696
 Electronic spatial extent (au):  <R**2>=           2863.4717
 Charge=              0.0000 electrons
 Dipole moment (field-independent basis, Debye):
    X=             -2.7063    Y=              1.6392    Z=              0.2625  Tot=              3.1749
 Quadrupole moment (field-independent basis, Debye-Ang):
   XX=            -92.5342   YY=            -84.0881   ZZ=            -83.0465
   XY=             12.1412   XZ=             -2.4617   YZ=             -7.0868
 Traceless Quadrupole moment (field-independent basis, Debye-Ang):
   XX=             -5.9779   YY=              2.4681   ZZ=              3.5098
   XY=             12.1412   XZ=             -2.4617   YZ=             -7.0868
 Octapole moment (field-independent basis, Debye-Ang**2):
  XXX=            -47.2426  YYY=             14.6249  ZZZ=             -8.9127  XYY=             -4.7326
  XXY=            -28.8248  XXZ=              6.2128  XZZ=             17.9723  YZZ=              9.9431
  YYZ=              1.2634  XYZ=             -4.5140
 Hexadecapole moment (field-independent basis, Debye-Ang**3):
 XXXX=          -1749.9678 YYYY=          -1227.1766 ZZZZ=           -503.5533 XXXY=            128.1890
 XXXZ=            -11.8990 YYYX=             64.8402 YYYZ=            -44.2326 ZZZX=             15.9669
 ZZZY=            -39.2295 XXYY=           -506.1757 XXZZ=           -322.6650 YYZZ=           -273.2928
 XXYZ=            -20.4778 YYXZ=            -36.2492 ZZXY=              0.4124
 N-N= 1.136153801426D+03 E-N=-4.243839692498D+03  KE= 8.328685892870D+02
  Exact polarizability:   0.000   0.000   0.000   0.000   0.000   0.000
 Approx polarizability: 134.027  -2.558 128.613   3.761  -0.721 127.765
 Calling FoFJK, ICntrl=    100147 FMM=F ISym2X=0 I1Cent= 0 IOpClX= 0 NMat=1 NMatS=1 NMatT=0.
 ***** Axes restored to original set *****
 -------------------------------------------------------------------
 Center     Atomic                   Forces (Hartrees/Bohr)
 Number     Number              X              Y              Z
 -------------------------------------------------------------------
      1        6          -0.000002254   -0.000002868    0.000006216
      2        8           0.000005797   -0.000008813   -0.000000759
      3        1          -0.000011653   -0.000020993   -0.000002937
      4        1          -0.000007464    0.000006034    0.000020592
      5        8          -0.000009195   -0.000008022    0.000015344
      6        1          -0.000003409    0.000001323    0.000013505
      7        8           0.000004176    0.000006405   -0.000002045
      8        1           0.000005454    0.000004259    0.000039036
      9        6          -0.000001031    0.000009547   -0.000014809
     10        6           0.000005171   -0.000000125   -0.000016715
     11        1          -0.000001298    0.000005658   -0.000008444
     12        1           0.000005175   -0.000002997   -0.000004230
     13        8           0.000006624    0.000008160   -0.000023937
     14        1           0.000001042   -0.000003928   -0.000009862
     15        6           0.000006188    0.000001080   -0.000011566
     16        8           0.000008615   -0.000011620    0.000002984
     17        1          -0.000002067    0.000003271   -0.000004294
     18        1           0.000003934   -0.000001306   -0.000010093
     19        1           0.000005988   -0.000004620   -0.000014052
     20        1          -0.000004449   -0.000002802    0.000003587
     21        6           0.000000638    0.000005028    0.000008290
     22        1          -0.000002321    0.000001846    0.000004203
     23        6          -0.000005959    0.000009314   -0.000008911
     24        1          -0.000004530    0.000006688   -0.000001077
     25        8          -0.000005328   -0.000001335   -0.000004176
     26        1          -0.000000498    0.000001675   -0.000000919
     27        8          -0.000003373    0.000015695    0.000001037
     28        1          -0.000005045    0.000006052    0.000001409
     29        8           0.000009228   -0.000016642    0.000024586
     30        1           0.000001844   -0.000005964   -0.000001965
 -------------------------------------------------------------------
 Cartesian Forces:  Max     0.000039036 RMS     0.000009228

 GradGradGradGradGradGradGradGradGradGradGradGradGradGradGradGradGradGrad
 Berny optimization.
 Search for a saddle point.
 Step number   1 out of a maximum of  180
 All quantities printed in internal units (Hartrees-Bohrs-Radians)
 Swapping is turned off.
 Second derivative matrix not updated -- analytic derivatives used.
 ITU=  0
     Eigenvalues ---   -0.00076   0.00053   0.00097   0.00195   0.00232
     Eigenvalues ---    0.00242   0.00304   0.00343   0.00434   0.00480
     Eigenvalues ---    0.00673   0.00998   0.01080   0.01181   0.01294
     Eigenvalues ---    0.01365   0.01566   0.01682   0.01849   0.01962
     Eigenvalues ---    0.02203   0.02613   0.02920   0.03269   0.03465
     Eigenvalues ---    0.03645   0.03845   0.04174   0.04398   0.04941
     Eigenvalues ---    0.05160   0.05428   0.05580   0.06042   0.06228
     Eigenvalues ---    0.06646   0.07063   0.07550   0.07980   0.08286
     Eigenvalues ---    0.09780   0.11012   0.11426   0.13057   0.14429
     Eigenvalues ---    0.15279   0.16067   0.17027   0.17615   0.17807
     Eigenvalues ---    0.18295   0.19876   0.21724   0.22550   0.26223
     Eigenvalues ---    0.28124   0.30409   0.35020   0.43224   0.45550
     Eigenvalues ---    0.54384   0.55299   0.59363   0.61305   0.62974
     Eigenvalues ---    0.64471   0.65641   0.71389   0.71878   0.73382
     Eigenvalues ---    0.76786   0.79030   0.83884   0.85290   0.86229
     Eigenvalues ---    0.87932   0.90690   0.98313   0.99820   1.01652
     Eigenvalues ---    1.02736   1.05925   1.06615   1.08776
 Eigenvectors required to have negative eigenvalues:
                          X4        Y28       Z4        Y5        Y6
   1                    0.62363  -0.38337   0.30196   0.25941   0.21651
                          Y17       X27       Z28       X24       Z7
   1                   -0.14892  -0.14400   0.12149  -0.11729  -0.11646
 RFO step:  Lambda0=1.327159603D-09 Lambda=-6.33700884D-08.
 Linear search not attempted -- option 19 set.
 B after Tr=    -0.000009    0.000034   -0.000056
         Rot=    1.000000   -0.000000    0.000000   -0.000001 Ang=  -0.00 deg.
 Variable       Old X    -DE/DX   Delta X   Delta X   Delta X     New X
                                 (Linear)    (Quad)   (Total)
    X1       -0.49496  -0.00000   0.00000  -0.00032  -0.00032  -0.49528
    Y1       -1.76914  -0.00000   0.00000   0.00003   0.00006  -1.76908
    Z1       -1.99430   0.00001   0.00000  -0.00019  -0.00025  -1.99455
    X2        0.93341   0.00001   0.00000  -0.00014  -0.00015   0.93327
    Y2        0.36861  -0.00001   0.00000   0.00004   0.00007   0.36868
    Z2       -1.09385  -0.00000   0.00000  -0.00054  -0.00060  -1.09445
    X3        5.59731  -0.00001   0.00000  -0.00102  -0.00104   5.59628
    Y3        1.24382  -0.00002   0.00000   0.00039   0.00044   1.24425
    Z3       -0.37494  -0.00000   0.00000   0.00038   0.00033  -0.37461
    X4        3.15579  -0.00001   0.00000   0.00142   0.00141   3.15720
    Y4       -3.81987   0.00001   0.00000  -0.00119  -0.00115  -3.82102
    Z4        3.63916   0.00002   0.00000   0.00045   0.00040   3.63956
    X5        3.81630  -0.00001   0.00000   0.00007   0.00007   3.81637
    Y5       -4.18680  -0.00001   0.00000   0.00003   0.00007  -4.18674
    Z5        1.97208   0.00002   0.00000  -0.00037  -0.00042   1.97166
    X6        4.96790  -0.00000   0.00000   0.00021   0.00020   4.96810
    Y6       -2.78336   0.00000   0.00000   0.00005   0.00009  -2.78326
    Z6        1.50830   0.00001   0.00000   0.00005   0.00000   1.50831
    X7        6.28954   0.00000   0.00000  -0.00025  -0.00026   6.28928
    Y7       -0.45909   0.00001   0.00000   0.00075   0.00080  -0.45829
    Z7       -0.59375  -0.00000   0.00000   0.00007   0.00002  -0.59373
    X8        5.24178   0.00001   0.00000  -0.00092  -0.00092   5.24086
    Y8       -1.11802   0.00000   0.00000   0.00024   0.00029  -1.11773
    Z8       -1.95264   0.00004   0.00000   0.00090   0.00085  -1.95178
    X9       -2.87013  -0.00000   0.00000  -0.00002  -0.00003  -2.87017
    Y9        2.25403   0.00001   0.00000   0.00016   0.00019   2.25422
    Z9        0.90234  -0.00001   0.00000  -0.00041  -0.00047   0.90188
   X10       -0.46041   0.00001   0.00000   0.00007   0.00006  -0.46035
   Y10        2.66194  -0.00000   0.00000   0.00015   0.00018   2.66213
   Z10       -0.74888  -0.00002   0.00000  -0.00025  -0.00030  -0.74918
   X11       -2.87972  -0.00000   0.00000  -0.00026  -0.00028  -2.87999
   Y11        3.63239   0.00001   0.00000   0.00041   0.00044   3.63283
   Z11        2.44822  -0.00001   0.00000  -0.00063  -0.00068   2.44753
   X12       -1.06754   0.00001   0.00000   0.00027   0.00026  -1.06729
   Y12        3.38093  -0.00000   0.00000   0.00053   0.00056   3.38149
   Z12       -2.60691  -0.00000   0.00000  -0.00015  -0.00021  -2.60712
   X13       -5.14431   0.00001   0.00000   0.00005   0.00004  -5.14427
   Y13        2.65512   0.00001   0.00000  -0.00026  -0.00024   2.65488
   Z13       -0.45493  -0.00002   0.00000  -0.00065  -0.00071  -0.45564
   X14       -5.49209   0.00000   0.00000   0.00001  -0.00000  -5.49209
   Y14        1.10846  -0.00000   0.00000  -0.00056  -0.00054   1.10792
   Z14       -1.40017  -0.00001   0.00000  -0.00016  -0.00022  -1.40039
   X15        1.37020   0.00001   0.00000   0.00011   0.00009   1.37030
   Y15        4.51301   0.00000   0.00000  -0.00022  -0.00018   4.51282
   Z15        0.51518  -0.00001   0.00000   0.00027   0.00022   0.51539
   X16        3.82108   0.00001   0.00000   0.00036   0.00034   3.82143
   Y16        4.57202  -0.00001   0.00000  -0.00044  -0.00040   4.57163
   Z16       -0.60137   0.00000   0.00000   0.00081   0.00076  -0.60061
   X17        1.67985  -0.00000   0.00000  -0.00039  -0.00041   1.67944
   Y17        3.93632   0.00000   0.00000  -0.00040  -0.00037   3.93595
   Z17        2.47599  -0.00000   0.00000   0.00029   0.00023   2.47623
   X18        0.50749   0.00000   0.00000   0.00039   0.00036   0.50785
   Y18        6.40341  -0.00000   0.00000  -0.00010  -0.00007   6.40335
   Z18        0.53880  -0.00001   0.00000   0.00020   0.00015   0.53894
   X19        3.64574   0.00001   0.00000   0.00084   0.00082   3.64656
   Y19        5.01611  -0.00000   0.00000  -0.00066  -0.00062   5.01549
   Z19       -2.37265  -0.00001   0.00000   0.00068   0.00063  -2.37201
   X20        1.95753  -0.00000   0.00000  -0.00040  -0.00040   1.95713
   Y20       -4.19587  -0.00000   0.00000  -0.00013  -0.00010  -4.19597
   Z20       -0.80436   0.00000   0.00000  -0.00038  -0.00043  -0.80479
   X21       -2.60327   0.00000   0.00000   0.00003   0.00003  -2.60324
   Y21       -2.42416   0.00001   0.00000   0.00007   0.00010  -2.42406
   Z21       -0.05087   0.00001   0.00000   0.00020   0.00014  -0.05074
   X22       -2.18938  -0.00000   0.00000   0.00037   0.00037  -2.18901
   Y22       -4.27210   0.00000   0.00000   0.00024   0.00027  -4.27184
   Z22        0.79166   0.00000   0.00000   0.00039   0.00033   0.79200
   X23       -2.73797  -0.00001   0.00000   0.00015   0.00013  -2.73783
   Y23       -0.41973   0.00001   0.00000   0.00032   0.00034  -0.41938
   Z23        2.06522  -0.00001   0.00000  -0.00004  -0.00010   2.06512
   X24       -4.43507  -0.00000   0.00000   0.00022   0.00021  -4.43487
   Y24       -0.73081   0.00001   0.00000   0.00042   0.00044  -0.73037
   Z24        3.21023  -0.00000   0.00000   0.00011   0.00005   3.21028
   X25       -4.91797  -0.00001   0.00000  -0.00017  -0.00018  -4.91815
   Y25       -2.52874  -0.00000   0.00000  -0.00043  -0.00040  -2.52914
   Z25       -1.47074  -0.00000   0.00000   0.00054   0.00048  -1.47026
   X26       -6.21523  -0.00000   0.00000   0.00007   0.00006  -6.21517
   Y26       -3.26441   0.00000   0.00000  -0.00037  -0.00035  -3.26476
   Z26       -0.40213  -0.00000   0.00000   0.00086   0.00080  -0.40133
   X27       -0.63461  -0.00000   0.00000   0.00024   0.00023  -0.63438
   Y27       -0.66736   0.00002   0.00000   0.00048   0.00051  -0.66685
   Z27        3.72771   0.00000   0.00000  -0.00014  -0.00020   3.72752
   X28        0.84495  -0.00001   0.00000   0.00023   0.00022   0.84517
   Y28       -0.58948   0.00001   0.00000  -0.00040  -0.00037  -0.58985
   Z28        2.63328   0.00000   0.00000  -0.00020  -0.00026   2.63302
   X29        1.19281   0.00001   0.00000  -0.00035  -0.00035   1.19247
   Y29       -3.69948  -0.00002   0.00000  -0.00002   0.00002  -3.69946
   Z29       -2.44298   0.00002   0.00000  -0.00031  -0.00036  -2.44335
   X30       -1.39025   0.00000   0.00000  -0.00058  -0.00058  -1.39084
   Y30       -1.27761  -0.00001   0.00000  -0.00014  -0.00010  -1.27771
   Z30       -3.80152  -0.00000   0.00000  -0.00011  -0.00017  -3.80169
         Item               Value     Threshold  Converged?
 Maximum Force            0.000039     0.000450     YES
 RMS     Force            0.000009     0.000300     YES
 Maximum Displacement     0.001412     0.001800     YES
 RMS     Displacement     0.000433     0.001200     YES
 Predicted change in Energy=-3.024546D-08
 Optimization completed.
    -- Stationary point found.
 GradGradGradGradGradGradGradGradGradGradGradGradGradGradGradGradGradGrad

                          Input orientation:                          
 ---------------------------------------------------------------------
 Center     Atomic      Atomic             Coordinates (Angstroms)
 Number     Number       Type             X           Y           Z
 ---------------------------------------------------------------------
      1          6           0       -0.261920   -0.936190   -1.055340
      2          8           0        0.493940    0.195060   -0.578840
      3          1           0        2.961970    0.658200   -0.198410
      4          1           0        1.669970   -2.021390    1.925760
      5          8           0        2.019500   -2.215560    1.043580
      6          1           0        2.628900   -1.472890    0.798160
      7          8           0        3.328280   -0.242940   -0.314200
      8          1           0        2.773830   -0.591630   -1.033290
      9          6           0       -1.518810    1.192780    0.477500
     10          6           0       -0.243640    1.408640   -0.396290
     11          1           0       -1.523880    1.922180    1.295540
     12          1           0       -0.564920    1.789110   -1.379520
     13          8           0       -2.722250    1.405030   -0.240740
     14          1           0       -2.906290    0.586570   -0.740940
     15          6           0        0.725080    2.388180    0.272620
     16          8           0        2.022030    2.419410   -0.318230
     17          1           0        0.888940    2.083010    1.310240
     18          1           0        0.268550    3.388540    0.285120
     19          1           0        1.929240    2.654410   -1.255550
     20          1           0        1.035880   -2.220360   -0.425650
     21          6           0       -1.377590   -1.282810   -0.026920
     22          1           0       -1.158570   -2.260700    0.418930
     23          6           0       -1.448870   -0.222110    1.092870
     24          1           0       -2.346940   -0.386730    1.698780
     25          8           0       -2.602480   -1.338150   -0.778280
     26          1           0       -3.288960   -1.727450   -0.212800
     27          8           0       -0.335820   -0.353150    1.972620
     28          1           0        0.447130   -0.311940    1.393470
     29          8           0        0.631210   -1.957680   -1.292770
     30          1           0       -0.735690   -0.676080   -2.011680
 ---------------------------------------------------------------------
                    Distance matrix (angstroms):
                    1          2          3          4          5
     1  C    0.000000
     2  O    1.441563   0.000000
     3  H    3.697279   2.539763   0.000000
     4  H    3.714406   3.545239   3.655347   0.000000
     5  O    3.353674   3.281870   3.269447   0.968563   0.000000
     6  H    3.475680   3.039118   2.376054   1.578569   0.991543
     7  O    3.730874   2.880167   0.979614   3.306100   2.729048
     8  H    3.055321   2.454242   1.514759   3.466799   2.742180
     9  C    2.908932   2.482431   4.562896   4.753595   4.945388
    10  C    2.435756   1.431826   3.298220   4.562776   4.508864
    11  H    3.910174   3.250822   4.894117   5.113668   5.453432
    12  H    2.761188   2.074432   3.887535   5.517202   5.346777
    13  O    3.492579   3.452856   5.733228   5.977096   6.102650
    14  H    3.067627   3.426532   5.893721   5.903804   5.941368
    15  C    3.713365   2.363934   2.866771   4.803124   4.843999
    16  O    4.125507   2.711219   1.999926   4.988000   4.830888
    17  H    4.004499   2.699815   2.933183   4.223147   4.452749
    18  H    4.558675   3.315953   3.865627   5.824347   5.920053
    19  H    4.211137   2.926846   2.483733   5.661366   5.386163
    20  H    1.931292   2.480206   3.470961   2.443520   1.768097
    21  C    1.556442   2.447721   4.756964   3.694060   3.681876
    22  H    2.175266   3.123634   5.087233   3.213790   3.239190
    23  C    2.556084   2.596759   4.679515   3.695711   4.000733
    24  H    3.497770   3.687361   5.733736   4.342718   4.779090
    25  O    2.390932   3.460972   5.940098   5.102203   5.044970
    26  H    3.240206   4.259150   6.690714   5.408403   5.476905
    27  O    3.084467   2.738427   4.075735   2.609294   3.143122
    28  H    2.624711   2.036970   3.130443   2.168154   2.493700
    29  O    1.377496   2.272186   3.670544   3.382605   2.729905
    30  H    1.098500   2.079400   4.329081   4.806297   4.392685
                    6          7          8          9         10
     6  H    0.000000
     7  O    1.799793   0.000000
     8  H    2.037605   0.972672   0.000000
     9  C    4.940862   5.116870   4.888084   0.000000
    10  C    4.240450   3.936123   3.675864   1.560821   0.000000
    11  H    5.386972   5.551798   5.496635   1.096011   2.182894
    12  H    5.058006   4.518976   4.115222   2.171184   1.102143
    13  O    6.164134   6.271373   5.900990   1.417458   2.483489
    14  H    6.103158   6.303972   5.808389   1.943499   2.807897
    15  C    4.336886   3.747506   3.844743   2.550686   1.531456
    16  O    4.094462   2.965538   3.184788   3.830843   2.482138
    17  H    3.991755   3.741554   4.024754   2.698745   2.156330
    18  H    5.428440   4.786312   4.884300   2.837786   2.155612
    19  H    4.662816   3.352326   3.361474   4.126606   2.647957
    20  H    2.143393   3.029473   2.458141   4.357941   3.848074
    21  C    4.094979   4.827947   4.327216   2.530401   2.943838
    22  H    3.887080   4.973998   4.512040   3.472712   3.868557
    23  C    4.275455   4.980105   4.742183   1.544502   2.515854
    24  H    5.172025   6.023362   5.807622   2.161522   3.469372
    25  O    5.465405   6.048865   5.433878   3.026042   3.640728
    26  H    6.008986   6.782471   6.222597   3.483919   4.375237
    27  O    3.379754   4.320569   4.331546   2.454536   2.953665
    28  H    2.542109   3.349914   3.373562   2.639717   2.576975
    29  O    2.932196   3.342472   2.554260   4.204978   3.591817
    30  H    4.455398   4.425483   3.644326   3.209662   2.682845
                   11         12         13         14         15
    11  H    0.000000
    12  H    2.844865   0.000000
    13  O    2.015860   2.469496   0.000000
    14  H    2.800386   2.708487   0.976702   0.000000
    15  C    2.514228   2.180035   3.621354   4.178511   0.000000
    16  O    3.927463   2.866343   4.852130   5.275066   1.425538
    17  H    2.418219   3.071627   3.988219   4.566229   1.093908
    18  H    2.526651   2.454358   3.627082   4.356999   1.099680
    19  H    4.355256   2.642905   4.922108   5.284235   1.963717
    20  H    5.164833   4.421343   5.225054   4.849636   4.671490
    21  C    3.470196   3.453498   3.013024   2.518200   4.241122
    22  H    4.289333   4.470772   4.039534   3.536491   5.018130
    23  C    2.155152   3.307429   2.459186   2.478083   3.494636
    24  H    2.484169   4.169629   2.667021   2.685595   4.378512
    25  O    4.011715   3.780595   2.797915   1.948908   5.105152
    26  H    4.325552   4.598676   3.183453   2.404175   5.769451
    27  O    2.654628   3.984797   3.699352   3.854062   3.395644
    28  H    2.980900   3.623276   3.957726   4.075347   2.936700
    29  O    5.137808   3.934042   4.864183   4.392224   4.620147
    30  H    4.279007   2.550676   3.378412   2.814351   4.091646
                   16         17         18         19         20
    16  O    0.000000
    17  H    2.012206   0.000000
    18  H    2.092352   1.772051   0.000000
    19  H    0.970775   2.827013   2.381282   0.000000
    20  H    4.744628   4.642618   5.705589   5.024959   0.000000
    21  C    5.034750   4.272458   4.962727   5.286431   2.619699
    22  H    5.706404   4.884112   5.828249   6.041255   2.351713
    23  C    4.584319   3.290317   4.079067   5.020067   3.531698
    24  H    5.570516   4.089193   4.805402   6.021820   4.395324
    25  O    5.976370   5.315662   5.631628   6.058449   3.760360
    26  H    6.739004   5.856117   6.251172   6.893304   4.358039
    27  O    4.300528   2.806004   4.148875   4.959536   3.334626
    28  H    3.587548   2.436782   3.867025   4.244195   2.701461
    29  O    4.695000   4.813446   5.585994   4.791413   0.992298
    30  H    4.478264   4.613800   4.775450   4.331945   2.835269
                   21         22         23         24         25
    21  C    0.000000
    22  H    1.096823   0.000000
    23  C    1.544051   2.166638   0.000000
    24  H    2.172703   2.561641   1.095790   0.000000
    25  O    1.438040   2.090284   2.465272   2.665769   0.000000
    26  H    1.971190   2.285170   2.712334   2.517751   0.970864
    27  O    2.438793   2.594151   1.424785   2.029956   3.698030
    28  H    2.507927   2.706597   1.921782   2.811696   3.881975
    29  O    2.468421   2.495005   3.609739   4.504068   3.332457
    30  H    2.172425   2.932186   3.217599   4.055535   2.333349
                   26         27         28         29         30
    26  H    0.000000
    27  O    3.922473   0.000000
    28  H    4.306059   0.974743   0.000000
    29  O    4.072723   3.764630   3.155666   0.000000
    30  H    3.295533   4.017316   3.623080   2.006924   0.000000
 Stoichiometry    C6H16O8
 Framework group  C1[X(C6H16O8)]
 Deg. of freedom    84
 Full point group                 C1      NOp   1
 Largest Abelian subgroup         C1      NOp   1
 Largest concise Abelian subgroup C1      NOp   1
                         Standard orientation:                         
 ---------------------------------------------------------------------
 Center     Atomic      Atomic             Coordinates (Angstroms)
 Number     Number       Type             X           Y           Z
 ---------------------------------------------------------------------
      1          6           0       -0.261920   -0.936189   -1.055339
      2          8           0        0.493941    0.195060   -0.578839
      3          1           0        2.961971    0.658198   -0.198409
      4          1           0        1.669969   -2.021391    1.925761
      5          8           0        2.019499   -2.215561    1.043581
      6          1           0        2.628899   -1.472892    0.798161
      7          8           0        3.328280   -0.242942   -0.314199
      8          1           0        2.773830   -0.591632   -1.033289
      9          6           0       -1.518808    1.192782    0.477501
     10          6           0       -0.243638    1.408641   -0.396289
     11          1           0       -1.523878    1.922182    1.295541
     12          1           0       -0.564918    1.789111   -1.379519
     13          8           0       -2.722248    1.405033   -0.240739
     14          1           0       -2.906289    0.586573   -0.740939
     15          6           0        0.725082    2.388180    0.272621
     16          8           0        2.022033    2.419409   -0.318229
     17          1           0        0.888942    2.083010    1.310241
     18          1           0        0.268553    3.388540    0.285121
     19          1           0        1.929243    2.654409   -1.255549
     20          1           0        1.035879   -2.220360   -0.425649
     21          6           0       -1.377591   -1.282808   -0.026919
     22          1           0       -1.158571   -2.260699    0.418931
     23          6           0       -1.448870   -0.222108    1.092871
     24          1           0       -2.346940   -0.386728    1.698781
     25          8           0       -2.602481   -1.338147   -0.778279
     26          1           0       -3.288961   -1.727447   -0.212799
     27          8           0       -0.335820   -0.353149    1.972621
     28          1           0        0.447130   -0.311940    1.393471
     29          8           0        0.631209   -1.957680   -1.292769
     30          1           0       -0.735690   -0.676079   -2.011679
 ---------------------------------------------------------------------
 Rotational constants (GHZ):      0.7545293      0.5787777      0.4280225
 1\1\GINC-N088\FTS\RB3LYP\6-31G(d)\C6H16O8\ROOT\30-Jan-2017\0\\# opt=(c
 alcfc,ts,noeigentest,maxcycle=1000,cartesian) b3lyp 6-31g(d) freq\\./2
 /glo_2w_beta_boat2_b3lyp_631Gd_iopt.out\\0,1\C,-0.26192,-0.93619,-1.05
 534\O,0.49394,0.19506,-0.57884\H,2.96197,0.6582,-0.19841\H,1.66997,-2.
 02139,1.92576\O,2.0195,-2.21556,1.04358\H,2.6289,-1.47289,0.79816\O,3.
 32828,-0.24294,-0.3142\H,2.77383,-0.59163,-1.03329\C,-1.51881,1.19278,
 0.4775\C,-0.24364,1.40864,-0.39629\H,-1.52388,1.92218,1.29554\H,-0.564
 92,1.78911,-1.37952\O,-2.72225,1.40503,-0.24074\H,-2.90629,0.58657,-0.
 74094\C,0.72508,2.38818,0.27262\O,2.02203,2.41941,-0.31823\H,0.88894,2
 .08301,1.31024\H,0.26855,3.38854,0.28512\H,1.92924,2.65441,-1.25555\H,
 1.03588,-2.22036,-0.42565\C,-1.37759,-1.28281,-0.02692\H,-1.15857,-2.2
 607,0.41893\C,-1.44887,-0.22211,1.09287\H,-2.34694,-0.38673,1.69878\O,
 -2.60248,-1.33815,-0.77828\H,-3.28896,-1.72745,-0.2128\O,-0.33582,-0.3
 5315,1.97262\H,0.44713,-0.31194,1.39347\O,0.63121,-1.95768,-1.29277\H,
 -0.73569,-0.67608,-2.01168\\Version=ES64L-G09RevE.01\State=1-A\HF=-840
 .0000185\RMSD=9.900e-09\RMSF=9.228e-06\Dipole=-1.064753,0.6448973,0.10
 3261\Polar=0.,0.,0.,0.,0.,0.\Quadrupole=-4.4444381,1.8350156,2.6094224
 ,9.0266464,-1.830193,-5.2688318\PG=C01 [X(C6H16O8)]\\@


 LOVE IS BLIND, THAT'S WHY ALL THE WORLD LOVES A LOUVER.
 Job cpu time:       0 days  0 hours 42 minutes  2.3 seconds.
 File lengths (MBytes):  RWF=    220 Int=      0 D2E=      0 Chk=      6 Scr=      1
 Normal termination of Gaussian 09 at Mon Jan 30 07:18:47 2017.
 Link1:  Proceeding to internal job step number  2.
 --------------------------------------------------------------------
 #N Geom=AllCheck Guess=TCheck SCRF=Check GenChk RB3LYP/6-31G(d) Freq
 --------------------------------------------------------------------
 1/5=1,6=1000,10=4,11=1,29=7,30=1,38=1,40=1/1,3;
 2/12=2,40=1/2;
 3/5=1,6=6,7=1,11=2,14=-4,16=1,25=1,30=1,70=2,71=2,74=-5,116=1,140=1/1,2,3;
 4/5=101/1;
 5/5=2,38=6,98=1/2;
 8/6=4,10=90,11=11/1;
 11/6=1,8=1,9=11,15=111,16=1/1,2,10;
 10/6=1/2;
 6/7=2,8=2,9=2,10=2,18=1,28=1/1;
 7/8=1,10=1,25=1/1,2,3,16;
 1/5=1,6=1000,10=4,11=1,30=1/3;
 99//99;
 Structure from the checkpoint file:  "/scratch/10499779.yak.local/Gau-21873.chk"
 ------------------------------------------
 ./2/glo_2w_beta_boat2_b3lyp_631Gd_iopt.out
 ------------------------------------------
 Charge =  0 Multiplicity = 1
 No Z-Matrix found in file; cartesian coordinates used.
  C                                                -0.261920000000     -0.936190000000     -1.055340000000
  O                                                 0.493940000000      0.195060000000     -0.578840000000
  H                                                 2.961970000000      0.658200000000     -0.198410000000
  H                                                 1.669970000000     -2.021390000000      1.925760000000
  O                                                 2.019500000000     -2.215560000000      1.043580000000
  H                                                 2.628900000000     -1.472890000000      0.798160000000
  O                                                 3.328280000000     -0.242940000000     -0.314200000000
  H                                                 2.773830000000     -0.591630000000     -1.033290000000
  C                                                -1.518810000000      1.192780000000      0.477500000000
  C                                                -0.243640000000      1.408640000000     -0.396290000000
  H                                                -1.523880000000      1.922180000000      1.295540000000
  H                                                -0.564920000000      1.789110000000     -1.379520000000
  O                                                -2.722250000000      1.405030000000     -0.240740000000
  H                                                -2.906290000000      0.586570000000     -0.740940000000
  C                                                 0.725080000000      2.388180000000      0.272620000000
  O                                                 2.022030000000      2.419410000000     -0.318230000000
  H                                                 0.888940000000      2.083010000000      1.310240000000
  H                                                 0.268550000000      3.388540000000      0.285120000000
  H                                                 1.929240000000      2.654410000000     -1.255550000000
  H                                                 1.035880000000     -2.220360000000     -0.425650000000
  C                                                -1.377590000000     -1.282810000000     -0.026920000000
  H                                                -1.158570000000     -2.260700000000      0.418930000000
  C                                                -1.448870000000     -0.222110000000      1.092870000000
  H                                                -2.346940000000     -0.386730000000      1.698780000000
  O                                                -2.602480000000     -1.338150000000     -0.778280000000
  H                                                -3.288960000000     -1.727450000000     -0.212800000000
  O                                                -0.335820000000     -0.353150000000      1.972620000000
  H                                                 0.447130000000     -0.311940000000      1.393470000000
  O                                                 0.631210000000     -1.957680000000     -1.292770000000
  H                                                -0.735690000000     -0.676080000000     -2.011680000000
 Recover connectivity data from disk.

 GradGradGradGradGradGradGradGradGradGradGradGradGradGradGradGradGradGrad
 Berny optimization.
 Initialization pass.
 Trust Radius=3.00D-01 FncErr=1.00D-07 GrdErr=1.00D-07
 Number of steps in this run=      2 maximum allowed number of steps=      2.
 Search for a saddle point of order  1.
 GradGradGradGradGradGradGradGradGradGradGradGradGradGradGradGradGradGrad

                          Input orientation:                          
 ---------------------------------------------------------------------
 Center     Atomic      Atomic             Coordinates (Angstroms)
 Number     Number       Type             X           Y           Z
 ---------------------------------------------------------------------
      1          6           0       -0.261920   -0.936190   -1.055340
      2          8           0        0.493940    0.195060   -0.578840
      3          1           0        2.961970    0.658200   -0.198410
      4          1           0        1.669970   -2.021390    1.925760
      5          8           0        2.019500   -2.215560    1.043580
      6          1           0        2.628900   -1.472890    0.798160
      7          8           0        3.328280   -0.242940   -0.314200
      8          1           0        2.773830   -0.591630   -1.033290
      9          6           0       -1.518810    1.192780    0.477500
     10          6           0       -0.243640    1.408640   -0.396290
     11          1           0       -1.523880    1.922180    1.295540
     12          1           0       -0.564920    1.789110   -1.379520
     13          8           0       -2.722250    1.405030   -0.240740
     14          1           0       -2.906290    0.586570   -0.740940
     15          6           0        0.725080    2.388180    0.272620
     16          8           0        2.022030    2.419410   -0.318230
     17          1           0        0.888940    2.083010    1.310240
     18          1           0        0.268550    3.388540    0.285120
     19          1           0        1.929240    2.654410   -1.255550
     20          1           0        1.035880   -2.220360   -0.425650
     21          6           0       -1.377590   -1.282810   -0.026920
     22          1           0       -1.158570   -2.260700    0.418930
     23          6           0       -1.448870   -0.222110    1.092870
     24          1           0       -2.346940   -0.386730    1.698780
     25          8           0       -2.602480   -1.338150   -0.778280
     26          1           0       -3.288960   -1.727450   -0.212800
     27          8           0       -0.335820   -0.353150    1.972620
     28          1           0        0.447130   -0.311940    1.393470
     29          8           0        0.631210   -1.957680   -1.292770
     30          1           0       -0.735690   -0.676080   -2.011680
 ---------------------------------------------------------------------
                    Distance matrix (angstroms):
                    1          2          3          4          5
     1  C    0.000000
     2  O    1.441563   0.000000
     3  H    3.697279   2.539763   0.000000
     4  H    3.714406   3.545239   3.655347   0.000000
     5  O    3.353674   3.281870   3.269447   0.968563   0.000000
     6  H    3.475680   3.039118   2.376054   1.578569   0.991543
     7  O    3.730874   2.880167   0.979614   3.306100   2.729048
     8  H    3.055321   2.454242   1.514759   3.466799   2.742180
     9  C    2.908932   2.482431   4.562896   4.753595   4.945388
    10  C    2.435756   1.431826   3.298220   4.562776   4.508864
    11  H    3.910174   3.250822   4.894117   5.113668   5.453432
    12  H    2.761188   2.074432   3.887535   5.517202   5.346777
    13  O    3.492579   3.452856   5.733228   5.977096   6.102650
    14  H    3.067627   3.426532   5.893721   5.903804   5.941368
[...]
 .00134239,-0.00022367,0.00094411,0.00078259,0.00233067,-0.00291329,0.0
 0006430,0.00012621,0.00058214,0.00039027,0.00063955,0.00083682,-0.0008
 8744,-0.00019360,-0.00008875,-0.00009322,-0.00002285,-0.00009363,0.000
 05223,0.00002414,0.00001577,0.00015755,0.00006961,-0.00007111,-0.00035
 251,-0.00003426,-0.00021717,0.02016825,0.00420232,-0.01698917,-0.00025
 125,0.00081419,0.00087951,-0.03269383,-0.05832402,0.02180352,0.0341797
 4,0.06167908,-0.00280923,-0.00359126,-0.00057203,-0.00057138,0.0003066
 7,0.00096408,-0.00003600,0.00003703,-0.00006097,0.00013511,-0.00017006
 ,0.00012541,-0.00010501,0.00026150,0.00032940,0.00010554,0.00001893,-0
 .00013383,0.00004981,-0.00001549,0.00011613,-0.00012622,-0.00005983,-0
 .00002539,0.01074261,0.00240957,-0.00591271,-0.00042252,0.00177434,0.0
 0006435,-0.00047422,-0.00004630,0.00074765,0.00032595,0.00003141,-0.00
 027343,-0.00071341,-0.00116167,0.00115219,0.00023738,0.00016628,-0.000
 89157,-0.00009245,-0.00019336,-0.00054281,0.00033008,0.00015419,0.0001
 0755,0.00005810,0.00004452,0.00009403,0.00000664,0.00003017,0.00004370
 ,-0.00006812,-0.00007508,0.00003161,-0.00048029,0.00003512,-0.00051712
 ,0.02040748,0.00363633,-0.01507315,-0.00055925,-0.00015047,0.00080199,
 0.12843842,0.02284780,-0.13958988,-0.12404259,-0.02349323,0.14773526,-
 0.03418488,-0.00250237,-0.01837009,-0.00512172,-0.00639965,0.00265087,
 0.00033185,0.00030924,0.00001013,0.00056578,-0.00019590,0.00045278,-0.
 00137879,0.00025044,-0.00026875,0.00054175,0.00020562,-0.00015301,-0.0
 0075397,-0.00030349,0.00023695,0.00053308,0.00006276,-0.00023293,-0.00
 462571,0.00108509,-0.00328912,-0.00143590,0.00331281,0.00040340,0.0004
 8862,-0.00081805,0.00048543,0.00013202,-0.00048149,0.00025819,0.007982
 04,0.00362545,0.00222216,-0.00652373,-0.00611242,0.00133381,0.00022854
 ,-0.00009778,-0.00008923,-0.00004079,-0.00049745,-0.00008789,0.0000989
 7,0.00012855,0.00005284,-0.00013375,-0.00028398,-0.00003726,0.00011071
 ,0.00027241,-0.00004763,0.00162296,-0.00047476,0.00029516,-0.16712354,
 -0.00066627,-0.07985314,-0.02041891,0.00091880,-0.01354327,-0.01459732
 ,-0.00042683,-0.00655038,0.00287116,0.00064735,-0.00070691,0.49412921,
 -0.01167710,-0.00244077,-0.00624385,-0.00266090,-0.00011775,0.00236431
 ,0.00028432,-0.00023121,-0.00003286,0.00000879,-0.00041092,-0.00007665
 ,0.00043991,0.00078624,-0.00001772,0.00001795,-0.00039371,0.00021961,-
 0.00021869,0.00043087,-0.00002248,0.00007520,-0.00025152,-0.00006877,0
 .00738030,0.00110279,0.00573900,-0.00046496,-0.00044394,-0.00040638,-0
 .00095198,0.00083178,-0.00098435,0.00004986,0.00006234,-0.00016527,-0.
 00270804,-0.01595929,-0.00387274,-0.00137618,0.00001990,-0.00407053,0.
 00050497,0.00049295,0.00001984,-0.00089921,-0.00016400,0.00020529,0.00
 001286,0.00004940,0.00001073,0.00001542,0.00003935,0.00002246,0.000140
 24,0.00006606,-0.00006831,-0.00100122,-0.00050101,0.00025560,-0.019205
 29,-0.07143074,0.00344299,0.02668464,0.01023423,0.01575982,-0.01971680
 ,0.00688661,-0.00880940,0.00015800,0.00094874,0.00137395,0.15305298,0.
 15826578,0.01444430,-0.00100253,0.01179551,0.00359900,0.00354418,0.000
 62557,0.00003029,0.00001040,-0.00012438,0.00074916,-0.00028628,0.00029
 214,-0.00091342,0.00013870,0.00056464,0.00033402,0.00025767,-0.0003751
 0,-0.00013787,-0.00015158,0.00036424,-0.00003288,-0.00001346,-0.000154
 41,-0.00022169,0.00202210,-0.00115084,0.00052308,-0.00070307,-0.000822
 41,0.00012546,-0.00025607,0.00013191,-0.00018814,0.00001177,0.00032283
 ,0.00095759,-0.00211687,0.00486382,0.00036411,-0.00222683,-0.00472224,
 0.00009137,0.00022266,-0.00026021,-0.00034038,-0.00004883,0.00024353,0
 .00019962,0.00020604,0.00013363,0.00004872,0.00001746,0.00009665,0.000
 00607,-0.00001077,-0.00003547,0.00026137,0.00031295,-0.00126679,-0.033
 16183,0.01726243,-0.12486299,-0.02286950,-0.00221684,-0.00979370,-0.03
 146746,0.00307336,-0.01353122,-0.00038661,0.00264710,0.00282860,-0.089
 07947,-0.12761470,0.34391195,-0.00422681,0.00018754,-0.00587789,-0.001
 27948,-0.00083410,0.00056514,-0.00000305,-0.00000050,0.00002340,-0.000
 18329,0.00002586,-0.00008117,0.00029345,0.00004750,-0.00009755,-0.0000
 9423,-0.00009698,0.00010600,0.00003461,0.00007233,-0.00009196,-0.00000
 448,-0.00002589,0.00003210,-0.00012915,-0.00030862,0.00032732,-0.00025
 444,0.00041788,-0.00000848,0.00008849,0.00017295,-0.00003801,0.0000641
 8,-0.00006230,-0.00001803,-0.00050691,0.00134822,0.00047409,0.00146681
 ,-0.00188387,-0.00053304,-0.00006097,-0.00015473,0.00007548,0.00015530
 ,0.00003617,-0.00006223,-0.00002102,-0.00002201,-0.00001588,-0.0000182
 2,-0.00001589,-0.00002674,-0.00001832,-0.00001227,0.00000679,-0.000132
 20,-0.00019119,0.00022429,-0.02821906,-0.01501871,0.02422943,0.0018695
 0,0.00111722,0.00080344,0.00098306,-0.00091114,-0.00046056,0.00025851,
 -0.00059697,-0.00069945,-0.25263966,-0.12433725,0.15869100,0.28196821,
 0.00036613,0.00174539,0.00119508,0.00053181,-0.00011041,-0.00036597,-0
 .00010717,0.00005943,0.00001362,-0.00007937,0.00017021,-0.00004839,0.0
 0007239,-0.00030121,0.00001670,-0.00005144,0.00009783,-0.00004058,0.00
 011890,-0.00011489,-0.00002117,-0.00005431,0.00007557,0.00003742,-0.00
 080600,-0.00030927,-0.00024758,-0.00005826,0.00019690,0.00023848,0.000
 11013,0.00004504,0.00007513,0.00004425,0.00005987,-0.00007095,0.001918
 77,0.00004018,-0.00136782,-0.00313891,-0.00077190,0.00289364,-0.000183
 36,-0.00012337,-0.00003826,0.00031098,0.00006886,-0.00006682,-0.000024
 75,-0.00002636,-0.00001774,0.00001091,-0.00001066,-0.00000846,-0.00004
 928,-0.00002821,0.00002565,0.00000586,0.00025776,0.00005403,0.00247629
 ,-0.00060151,0.00134921,0.00125855,0.00110976,-0.00038974,-0.00209063,
 -0.00068102,0.00098317,0.00029617,-0.00013966,-0.00120351,-0.14201255,
 -0.08802567,0.11641532,0.13971076,0.08789058,-0.00144323,0.00063585,-0
 .00293434,-0.00037059,-0.00112145,0.00073472,-0.00004464,0.00001514,0.
 00001428,-0.00005817,0.00004133,-0.00000156,0.00006086,-0.00007314,-0.
 00000528,-0.00004568,0.00000854,0.00000897,0.00006299,-0.00001926,-0.0
 0004040,-0.00002612,0.00001750,0.00002946,0.00052796,-0.00020388,-0.00
 017567,-0.00038787,0.00044743,0.00009999,-0.00003135,-0.00000040,0.000
 00528,0.00006161,-0.00001103,-0.00005637,-0.00019667,-0.00009252,-0.00
 035311,0.00046659,0.00012999,-0.00003107,-0.00009494,-0.00009243,-0.00
 002058,0.00015871,0.00003175,-0.00004077,-0.00000727,-0.00000894,-0.00
 000721,0.00000171,0.00000442,-0.00000585,-0.00002710,-0.00001834,0.000
 01286,0.00018169,-0.00000541,-0.00002827,-0.02277790,-0.01098848,0.009
 45158,-0.00060859,0.00037017,0.00035723,-0.00324874,0.00027848,0.00168
 142,0.00081557,-0.00022199,-0.00119551,0.20522701,0.13037269,-0.201052
 20,-0.17904137,-0.11903641,0.19231593,-0.00554356,-0.00468534,0.000293
 81,0.00398311,-0.00171938,0.00834989,0.00006831,0.00054987,-0.00045409
 ,0.00243645,-0.00248292,0.00131764,-0.00370682,0.00340578,0.00201669,0
 .00159788,0.00084738,-0.00113949,-0.00046460,-0.00074779,0.00113227,-0
 .00005900,-0.00004582,-0.00048192,-0.01449283,0.00229159,-0.01355757,-
 0.00285254,0.00500246,0.00165245,0.00042071,-0.00083745,0.00155520,0.0
 0084918,-0.00042028,-0.00015850,0.00035828,0.00603832,-0.00520215,0.00
 035145,-0.00058764,0.00220259,-0.00074697,-0.00076414,-0.00254915,0.00
 124554,0.00000860,0.00045189,0.00054058,0.00079465,0.00091431,0.000008
 50,-0.00042438,0.00058056,-0.00017401,0.00000190,0.00003381,-0.0018733
 6,-0.00039753,-0.00258316,-0.01211784,0.00182103,-0.01291755,0.0007739
 3,-0.00041649,0.00177959,-0.16752890,0.01139563,-0.08078417,-0.0337891
 4,0.00381742,-0.02677467,0.00050342,-0.00379688,-0.00574981,0.00110321
 ,0.00156501,0.00083504,0.53382079,-0.00114483,-0.00415708,0.00111196,-
 0.00032642,0.00452100,0.00449042,0.00049278,-0.00079480,-0.00014790,-0
 .00237780,-0.00049108,-0.00185806,0.00462754,-0.00041066,-0.00116482,-
 0.00108026,-0.00199060,0.00085323,0.00015658,0.00151625,-0.00059911,-0
 .00001039,-0.00042843,0.00021813,0.02748851,0.00521393,0.01786407,-0.0
 0053779,-0.00005469,-0.00317197,0.00013041,0.00397045,-0.00066607,0.00
 017571,0.00059267,-0.00005979,0.00499297,-0.00711513,0.00834523,-0.000
 62271,-0.00309577,-0.00110969,-0.00005923,-0.00003600,-0.00234751,-0.0
 0143645,-0.00009827,0.00146175,0.00089435,0.00012117,0.00172644,0.0000
 2484,-0.00021024,0.00062518,-0.00012333,-0.00007945,0.00001132,0.00016
 204,-0.00018808,0.00213157,-0.01725602,0.00543324,-0.01035229,-0.00119
 452,0.00395460,0.00173851,0.00732711,-0.06672177,0.01264714,-0.0015235
 3,0.00283182,-0.00273833,-0.00424193,-0.00155764,-0.00914843,0.0010617
 3,0.00000271,-0.00009929,-0.00409169,0.06667051,-0.00006233,0.00395628
 ,0.00414524,0.00338779,0.00363385,-0.01348579,-0.00031431,0.00018792,-
 0.00048330,0.00107408,-0.00144035,-0.00010986,0.00031865,0.00083753,0.
 00183464,0.00055080,0.00023237,-0.00087731,0.00018880,-0.00032078,0.00
 089886,-0.00053346,0.00009922,-0.00010575,-0.02199050,0.00133486,-0.01
 457757,0.00116647,-0.00375209,0.00103899,0.00048921,0.00036037,0.00160
 933,-0.00064633,0.00042763,0.00043216,-0.00218822,0.00602427,-0.002076
 07,0.00103547,-0.00068603,0.00097181,-0.00058189,-0.00046368,-0.001497
 98,0.00087529,0.00045555,0.00035684,0.00045800,0.00061440,0.00008635,0
 .00012527,0.00009569,0.00028208,-0.00019791,-0.00029349,0.00005239,-0.
 00129572,0.00041161,-0.00147001,-0.03121687,0.00494837,-0.01938886,0.0
 0047917,0.00077669,0.00224440,-0.03554801,0.01051839,-0.14449999,0.008
 13376,-0.00182261,0.01347090,-0.00406373,-0.00612930,-0.00860448,0.000
 82953,0.00033553,-0.00052209,-0.10174941,-0.03320783,0.38412850,0.0016
 2721,-0.00046309,-0.00320709,-0.00323187,-0.00137081,0.00508258,-0.000
 30926,-0.00093682,0.00077344,0.00001816,0.00286010,-0.00122198,0.00017
 757,-0.00328690,-0.00090094,-0.00265652,0.00103829,0.00084948,0.000915
 62,0.00047818,-0.00140737,0.00010624,0.00001527,0.00052310,0.00035125,
 0.00164131,0.00012911,0.00047980,0.00094185,-0.00217691,-0.00012426,0.
 00018404,-0.00007725,-0.00036297,0.00023915,0.00016978,0.00084764,-0.0
 0100459,0.00085297,-0.00013287,0.00009833,-0.00020715,0.00092831,-0.00
 014876,0.00015134,-0.00084317,0.00016200,0.00021249,0.00032376,-0.0001
 9889,-0.00003631,-0.00016519,0.00000743,-0.00009055,-0.00001483,0.0000
 3904,0.00001610,0.00161198,0.00028818,0.00161033,0.00052959,-0.0018519
 7,-0.00050784,0.00009866,-0.00036929,-0.00032284,-0.03957428,-0.001554
 11,0.01830424,-0.00268971,0.00095158,-0.00481023,0.00130299,0.00092024
 ,0.00174577,-0.00017666,-0.00006921,0.00012287,-0.30886549,-0.01159353
 ,0.17987836,0.35194894,0.00029738,0.00600070,-0.00176714,-0.00134199,-
 0.00472791,-0.00292641,-0.00081297,0.00066864,0.00045158,0.00375347,-0
 .00307902,0.00299217,-0.00478938,0.00210515,0.00152081,0.00261790,0.00
 246161,-0.00137409,-0.00007766,-0.00194938,0.00062697,-0.00003406,0.00
 054158,-0.00031546,0.00287408,0.00034824,-0.00039680,0.00137876,-0.001
 73460,0.00358426,0.00024003,-0.00033251,-0.00007959,0.00000858,-0.0002
 4383,-0.00046812,-0.00107371,-0.00057462,-0.00004181,0.00002376,0.0006
 2833,0.00001247,-0.00066138,-0.00080651,0.00266434,0.00090738,-0.00005
 758,-0.00090906,-0.00050996,-0.00153892,-0.00113416,0.00004401,0.00031
 148,-0.00070845,-0.00001519,0.00002995,0.00001740,-0.00083878,-0.00028
 340,-0.00346935,-0.00264655,0.00087291,-0.00015097,-0.00031311,-0.0009
 7313,0.00008193,0.00324238,0.00020660,-0.00178813,-0.00044996,0.000364
 53,-0.00005543,0.00109980,-0.00074083,0.00061626,-0.00008877,0.0001440
 4,0.00010990,-0.01636298,-0.00954431,0.01456676,0.01276354,0.01480242,
 -0.00397285,-0.00800538,-0.00461107,0.00368616,-0.00157665,0.00330416,
 0.00071377,0.00029575,0.00025807,-0.00127290,0.00216920,-0.00000674,0.
 00030894,-0.00042966,-0.00229843,0.00017668,-0.00081206,0.00126680,-0.
 00096173,0.00023979,-0.00053013,0.00077508,-0.00020674,-0.00026682,-0.
 00156072,-0.00091480,0.00033011,-0.00327100,0.00791643,0.00077650,0.00
 039127,-0.00027707,-0.00025261,0.00091701,-0.00141996,0.00004158,0.000
 56119,0.00094607,-0.00135477,-0.00020299,-0.00002251,0.00048515,0.0006
 0621,0.00060578,0.00106716,-0.00013885,-0.00046613,-0.00059900,-0.0002
 8218,-0.00029933,-0.00019673,-0.00023609,-0.00027422,-0.00029420,0.000
 24354,0.00035051,-0.00006006,0.00079769,-0.00136045,0.00087553,-0.0027
 5901,0.00010298,0.00105127,0.00013964,0.00016254,0.00001824,-0.0269086
 0,-0.00135634,0.01484485,-0.00495085,0.00036989,-0.00271917,0.00081796
 ,-0.00036529,-0.00138115,0.00033259,0.00022451,0.00024597,0.23064670,0
 .01456305,-0.20443901,-0.19497994,-0.01310411,0.19431109,-0.17440139,0
 .09742448,0.02242163,0.02012322,0.00255698,0.00339679,-0.00157705,0.00
 192971,-0.00012343,-0.00434032,0.00026188,-0.00117942,0.00006343,-0.00
 044977,-0.01521527,0.00147867,0.00115002,0.00124786,-0.00111511,-0.004
 84248,-0.00063611,0.00285409,0.00514210,-0.00024725,-0.00005684,-0.001
 30143,0.00004346,0.00231886,-0.00233675,-0.00054429,0.00013590,0.00054
 118,-0.00005310,0.00011690,-0.00029040,0.00014810,0.00032276,0.0008808
 2,0.00022151,0.00058910,-0.00121043,0.00003560,-0.00184147,-0.00008140
 ,0.00045468,0.00191878,-0.00041498,-0.00039402,-0.00000404,0.00003397,
 0.00003227,0.00041025,0.00011623,0.00000346,-0.00031140,0.00004052,0.0
 0006767,-0.08268068,0.04542357,-0.13353121,-0.01995011,0.03224056,0.01
 368203,0.00232239,0.00066623,-0.00233322,-0.00860430,-0.00391464,-0.00
 073380,-0.00009350,0.00177830,0.00214955,-0.00364996,-0.00072321,0.001
 42283,-0.00053146,0.00003694,-0.00000473,0.00345383,-0.00022056,0.0019
 5437,-0.00175349,0.00124144,-0.00034566,0.28043435,0.10283848,-0.15916
 317,-0.02571623,0.02417565,-0.06684475,-0.02070237,0.00112845,-0.00037
 129,0.00009350,0.00186654,0.00007392,0.00053181,0.00244320,0.00592671,
 0.00541072,-0.00035853,-0.00257963,0.00230071,-0.00185602,0.00201237,-
 0.00114245,0.00169851,-0.00213844,0.00003807,-0.00168649,-0.00039439,0
 .00071205,-0.00964117,0.00179095,-0.00336314,0.00049381,0.00020780,-0.
 00051981,0.00054188,-0.00080641,0.00002789,0.00165768,0.00050865,-0.00
 017514,-0.00057092,-0.00069165,0.00015989,0.00397976,-0.00191959,0.000
 10117,-0.00150258,-0.00020540,0.00016457,-0.00015519,0.00001394,-0.000
 09602,-0.00103063,-0.00108306,-0.00054842,0.00045998,0.00046741,-0.000
 14939,0.04929532,-0.05393004,0.08686449,0.00573464,-0.00245588,-0.0030
 2674,-0.00042716,0.00239781,-0.00138039,0.00115308,0.00049831,-0.00015
 931,0.00018702,-0.00003410,-0.00058676,0.00029685,0.00216304,-0.000464
 53,0.00026987,-0.00081477,-0.00021407,-0.00033023,0.00164090,-0.001381
 55,0.00052262,-0.00207508,0.00204121,-0.19757279,0.29373551,-0.0022728
 9,-0.00018588,-0.11338322,0.01071169,-0.02108312,0.00350072,-0.0001186
 4,0.00027301,-0.00014756,-0.00332298,0.00038226,0.00021539,-0.01047809
 ,-0.00094355,-0.01514041,0.00197685,0.00277052,-0.00322755,-0.00087644
 ,-0.00159449,0.00192429,-0.00040169,-0.00002957,-0.00187246,-0.0005990
 0,0.00037996,-0.00059832,-0.00142567,-0.00123228,0.00023158,-0.0000771
 5,-0.00006850,0.00013033,0.00026229,-0.00109206,0.00016007,0.00020243,
 -0.00019388,0.00086104,0.00037357,0.00013835,-0.00059816,0.00065885,-0
 .00072199,0.00013194,-0.00013413,0.00006283,0.00023642,0.00006455,0.00
 016224,0.00010867,-0.00020799,-0.00012466,-0.00011492,0.00002415,-0.00
 013773,-0.00011826,-0.10271915,0.05691091,-0.33276035,0.01910614,-0.01
 873152,-0.00443963,-0.00118390,-0.00232128,0.00288989,0.00221461,0.001
 21700,-0.00102228,0.00028227,-0.00052809,-0.00061926,0.00350436,0.0001
 2792,-0.00040573,0.00074651,-0.00058303,0.00060902,0.00021152,-0.00107
 568,0.00028262,-0.00047970,0.00148122,-0.00045724,0.10554452,-0.038303
 27,0.45193372,-0.08773331,0.02447712,-0.07914621,-0.01045987,-0.008438
 45,-0.02208149,0.00021809,0.00016463,-0.00007245,-0.00027924,-0.000083
 37,-0.00007272,-0.00039426,0.00003783,-0.00110133,0.00023172,0.0000270
 1,0.00002030,-0.00043274,-0.00013466,0.00020610,0.00025511,0.00008339,
 -0.00029439,0.00024627,-0.00015204,0.00007834,-0.00115771,0.00241516,0
 .00037249,0.00002772,0.00011365,-0.00008702,0.00034404,-0.00111060,0.0
 0013190,0.00020698,0.00003355,-0.00014824,-0.00041078,0.00019290,0.000
 32012,0.00023503,-0.00025150,0.00025557,0.00001649,-0.00013549,-0.0000
 1150,0.00005704,0.00013883,0.00009749,-0.00009128,-0.00018079,-0.00000
 373,0.00003444,-0.00001529,-0.00006484,-0.00064218,0.00315125,0.002448
 35,0.00679005,-0.00674756,0.01930697,-0.00235937,-0.00059987,0.0015662
 0,-0.00214028,-0.00118190,0.00020301,0.00015684,0.00072302,0.00050531,
 0.00118551,-0.00000795,0.00095533,0.00021408,-0.00010859,-0.00010766,0
 .00069989,0.00030645,-0.00055631,-0.00036714,-0.00047607,0.00072891,-0
 .01563139,0.01638837,-0.02158689,0.11118026,0.02335145,-0.06403963,0.0
 5286170,-0.01969649,-0.00529643,-0.03103037,0.00035122,0.00001430,-0.0
 0005144,0.00028457,-0.00001353,0.00013587,0.00055133,0.00041661,0.0014
 2025,-0.00022588,-0.00042346,0.00015123,-0.00024002,0.00044109,-0.0000
 4410,-0.00004271,-0.00039610,-0.00002363,0.00017468,-0.00051269,0.0002
 1414,-0.00292618,0.00524905,-0.00147909,0.00003731,0.00006664,-0.00006
 451,0.00073295,0.00025676,0.00156925,0.00012299,0.00005838,-0.00009419
 ,0.00016131,0.00002999,-0.00003268,-0.00013099,-0.00006258,0.00019476,
 0.00000497,-0.00013746,-0.00002533,0.00010866,-0.00001748,0.00016748,-
 0.00006820,-0.00015413,0.00006732,0.00001736,0.00001956,-0.00003747,0.
 00296296,-0.00148674,-0.00380151,0.00247853,0.00269832,0.00845564,-0.0
 0038834,-0.00013259,0.00018722,-0.00154489,-0.00087313,0.00057726,0.00
 005043,0.00037665,0.00041296,0.00024679,0.00028892,-0.00049761,0.00009
 318,0.00009481,-0.00025615,0.00057130,0.00050476,-0.00031959,-0.000303
 17,-0.00082456,0.00090301,0.02189392,-0.01592967,0.02504435,-0.0286290
 2,0.07978432,-0.08674175,0.05875441,-0.25349143,-0.00970955,-0.0088060
 6,-0.00718928,0.00018836,0.00012793,-0.00004590,0.00016921,-0.00003914
 ,0.00014180,-0.00015780,0.00021784,0.00023995,0.00013489,-0.00007027,0
 .00003354,-0.00029764,-0.00000242,0.00011597,0.00017302,-0.00006530,-0
 .00012802,-0.00090622,-0.00013947,-0.00110844,-0.00078574,0.00124651,0
 .00056574,0.00008733,-0.00005905,0.00006289,0.00037324,-0.00142418,0.0
 0004001,0.00023267,0.00004222,0.00098130,0.00079893,-0.00014975,-0.000
 66966,0.00017338,-0.00029294,0.00036280,0.00004310,-0.00008443,-0.0000
 2480,0.00012311,0.00019606,0.00011134,-0.00006846,-0.00010555,-0.00002
 649,0.00000041,0.00001541,-0.00005069,0.00165005,-0.00159068,0.0010084
 4,-0.00805980,0.00801272,-0.02023672,0.00216257,0.00007177,-0.00172867
 ,0.00145741,0.00121460,-0.00046397,0.00016695,-0.00055406,-0.00048603,
 -0.00157820,-0.00096560,0.00236831,-0.00041477,-0.00035105,0.00090356,
 0.00012768,-0.00004123,0.00030298,0.00000413,-0.00003698,0.00059065,0.
 00251515,-0.00051651,0.01168965,0.09813836,-0.05460480,0.26613116\\0.0
 0000222,0.00000293,-0.00000630,-0.00000575,0.00000897,0.00000081,0.000
 01165,0.00002099,0.00000294,0.00000745,-0.00000602,-0.00002056,0.00000
 922,0.00000800,-0.00001538,0.00000340,-0.00000132,-0.00001350,-0.00000
 417,-0.00000638,0.00000204,-0.00000546,-0.00000426,-0.00003904,0.00000
 087,-0.00000946,0.00001460,-0.00000520,0.00000007,0.00001668,0.0000013
 2,-0.00000567,0.00000848,-0.00000516,0.00000298,0.00000428,-0.00000656
 ,-0.00000816,0.00002401,-0.00000101,0.00000391,0.00000987,-0.00000614,
 -0.00000113,0.00001153,-0.00000858,0.00001161,-0.00000295,0.00000206,-
 0.00000326,0.00000431,-0.00000395,0.00000133,0.00001010,-0.00000601,0.
 00000463,0.00001403,0.00000444,0.00000282,-0.00000354,-0.00000095,-0.0
 0000509,-0.00000836,0.00000238,-0.00000186,-0.00000417,0.00000601,-0.0
 0000932,0.00000892,0.00000451,-0.00000670,0.00000109,0.00000540,0.0000
 0137,0.00000416,0.00000052,-0.00000168,0.00000096,0.00000344,-0.000015
 71,-0.00000093,0.00000503,-0.00000606,-0.00000144,-0.00000916,0.000016
 54,-0.00002466,-0.00000185,0.00000595,0.00000201\\\@


 SACRED COWS MAKE GREAT HAMBURGERS -- ROBERT REISNER
 Job cpu time:       0 days  0 hours 40 minutes 55.9 seconds.
 File lengths (MBytes):  RWF=    220 Int=      0 D2E=      0 Chk=      6 Scr=      1
 Normal termination of Gaussian 09 at Mon Jan 30 07:39:19 2017.
