 Entering Gaussian System, Link 0=g09
 Initial command:
 /global/software/gaussian/g09.d01/l1.exe "/home/iawad/Gau-21496.inp" -scrdir="/home/iawad/"
 Entering Link 1 = /global/software/gaussian/g09.d01/l1.exe PID=     21497.
  
 Copyright (c) 1988,1990,1992,1993,1995,1998,2003,2009,2013,
            Gaussian, Inc.  All Rights Reserved.
  
 This is part of the Gaussian(R) 09 program.  It is based on
 the Gaussian(R) 03 system (copyright 2003, Gaussian, Inc.),
 the Gaussian(R) 98 system (copyright 1998, Gaussian, Inc.),
 the Gaussian(R) 94 system (copyright 1995, Gaussian, Inc.),
 the Gaussian 92(TM) system (copyright 1992, Gaussian, Inc.),
 the Gaussian 90(TM) system (copyright 1990, Gaussian, Inc.),
 the Gaussian 88(TM) system (copyright 1988, Gaussian, Inc.),
 the Gaussian 86(TM) system (copyright 1986, Carnegie Mellon
 University), and the Gaussian 82(TM) system (copyright 1983,
 Carnegie Mellon University). Gaussian is a federally registered
 trademark of Gaussian, Inc.
  
 This software contains proprietary and confidential information,
 including trade secrets, belonging to Gaussian, Inc.
  
 This software is provided under written license and may be
 used, copied, transmitted, or stored only in accord with that
 written license.
  
 The following legend is applicable only to US Government
 contracts under FAR:
  
                    RESTRICTED RIGHTS LEGEND
  
 Use, reproduction and disclosure by the US Government is
 subject to restrictions as set forth in subparagraphs (a)
 and (c) of the Commercial Computer Software - Restricted
 Rights clause in FAR 52.227-19.
  
 Gaussian, Inc.
 340 Quinnipiac St., Bldg. 40, Wallingford CT 06492
  
  
 ---------------------------------------------------------------
 Warning -- This program may not be used in any manner that
 competes with the business of Gaussian, Inc. or will provide
 assistance to any competitor of Gaussian, Inc.  The licensee
 of this program is prohibited from giving any competitor of
 Gaussian, Inc. access to this program.  By using this program,
 the user acknowledges that Gaussian, Inc. is engaged in the
 business of creating and licensing software in the field of
 computational chemistry and represents and warrants to the
 licensee that it is not a competitor of Gaussian, Inc. and that
 it will not use this program in any manner prohibited above.
 ---------------------------------------------------------------
  

 Cite this work as:
 Gaussian 09, Revision D.01,
 M. J. Frisch, G. W. Trucks, H. B. Schlegel, G. E. Scuseria, 
 M. A. Robb, J. R. Cheeseman, G. Scalmani, V. Barone, B. Mennucci, 
 G. A. Petersson, H. Nakatsuji, M. Caricato, X. Li, H. P. Hratchian, 
 A. F. Izmaylov, J. Bloino, G. Zheng, J. L. Sonnenberg, M. Hada, 
 M. Ehara, K. Toyota, R. Fukuda, J. Hasegawa, M. Ishida, T. Nakajima, 
 Y. Honda, O. Kitao, H. Nakai, T. Vreven, J. A. Montgomery, Jr., 
 J. E. Peralta, F. Ogliaro, M. Bearpark, J. J. Heyd, E. Brothers, 
 K. N. Kudin, V. N. Staroverov, T. Keith, R. Kobayashi, J. Normand, 
 K. Raghavachari, A. Rendell, J. C. Burant, S. S. Iyengar, J. Tomasi, 
 M. Cossi, N. Rega, J. M. Millam, M. Klene, J. E. Knox, J. B. Cross, 
 V. Bakken, C. Adamo, J. Jaramillo, R. Gomperts, R. E. Stratmann, 
 O. Yazyev, A. J. Austin, R. Cammi, C. Pomelli, J. W. Ochterski, 
 R. L. Martin, K. Morokuma, V. G. Zakrzewski, G. A. Voth, 
 P. Salvador, J. J. Dannenberg, S. Dapprich, A. D. Daniels, 
 O. Farkas, J. B. Foresman, J. V. Ortiz, J. Cioslowski, 
 and D. J. Fox, Gaussian, Inc., Wallingford CT, 2013.
 
 ******************************************
 Gaussian 09:  ES64L-G09RevD.01 24-Apr-2013
                 9-Mar-2017 
 ******************************************
 ----
 # G4
 ----
 1/14=-1,18=20,19=15,26=3,38=1/1,3;
 2/9=110,12=2,17=6,18=5,40=1/2;
 3/5=35,7=104,11=2,16=1,25=1,30=1,71=1,74=-5/1,2,3;
 4//1;
 5/5=2,38=5/2;
 6/7=2,8=2,9=2,10=2,28=1/1;
 7//1,2,3,16;
 1/14=-1,18=20,19=15,26=3/3(2);
 2/9=110/2;
 99//99;
 2/9=110/2;
 3/5=35,7=104,11=2,16=1,25=1,30=1,71=1,74=-5/1,2,3;
 4/5=5,16=3,69=1/1;
 5/5=2,38=5/2;
 7//1,2,3,16;
 1/14=-1,18=20,19=15,26=3/3(-5);
 2/9=110/2;
 6/7=2,8=2,9=2,10=2,19=2,28=1/1;
 99/9=1/99;
 ------
 FH.LOG
 ------
 Symbolic Z-matrix:
 Charge =  0 Multiplicity = 1
 F                     0.        0.        0.09254 
 H                     0.        0.       -0.83286 
 

 GradGradGradGradGradGradGradGradGradGradGradGradGradGradGradGradGradGrad
 Berny optimization.
 Initialization pass.
                           ----------------------------
                           !    Initial Parameters    !
                           ! (Angstroms and Degrees)  !
 --------------------------                            --------------------------
 ! Name  Definition              Value          Derivative Info.                !
 --------------------------------------------------------------------------------
 ! R1    R(1,2)                  0.9254         estimate D2E/DX2                !
 --------------------------------------------------------------------------------
 Trust Radius=3.00D-01 FncErr=1.00D-07 GrdErr=1.00D-06
 Number of steps in this run=     20 maximum allowed number of steps=    100.
 GradGradGradGradGradGradGradGradGradGradGradGradGradGradGradGradGradGrad

                          Input orientation:                          
 ---------------------------------------------------------------------
 Center     Atomic      Atomic             Coordinates (Angstroms)
 Number     Number       Type             X           Y           Z
 ---------------------------------------------------------------------
      1          9           0        0.000000    0.000000    0.092540
      2          1           0        0.000000    0.000000   -0.832860
 ---------------------------------------------------------------------
 Stoichiometry    FH
 Framework group  C*V[C*(HF)]
 Deg. of freedom     1
 Full point group                 C*V     NOp   4
 Largest Abelian subgroup         C2V     NOp   4
 Largest concise Abelian subgroup C1      NOp   1
                         Standard orientation:                         
 ---------------------------------------------------------------------
 Center     Atomic      Atomic             Coordinates (Angstroms)
 Number     Number       Type             X           Y           Z
 ---------------------------------------------------------------------
      1          9           0        0.000000    0.000000    0.092540
      2          1           0        0.000000    0.000000   -0.832860
 ---------------------------------------------------------------------
 Rotational constants (GHZ):      0.0000000    616.6250748    616.6250748
 Standard basis: GTBas3 (6D, 7F)
 There are    17 symmetry adapted cartesian basis functions of A1  symmetry.
 There are     3 symmetry adapted cartesian basis functions of A2  symmetry.
 There are     8 symmetry adapted cartesian basis functions of B1  symmetry.
 There are     8 symmetry adapted cartesian basis functions of B2  symmetry.
 There are    16 symmetry adapted basis functions of A1  symmetry.
 There are     3 symmetry adapted basis functions of A2  symmetry.
 There are     7 symmetry adapted basis functions of B1  symmetry.
 There are     7 symmetry adapted basis functions of B2  symmetry.
    33 basis functions,    51 primitive gaussians,    36 cartesian basis functions
     5 alpha electrons        5 beta electrons
       nuclear repulsion energy         5.1465256941 Hartrees.
 NAtoms=    2 NActive=    2 NUniq=    2 SFac= 1.00D+00 NAtFMM=   60 NAOKFM=F Big=F
 Integral buffers will be    131072 words long.
 Raffenetti 2 integral format.
 Two-electron integral symmetry is turned on.
 One-electron integrals computed using PRISM.
 NBasis=    33 RedAO= T EigKep=  1.89D-02  NBF=    16     3     7     7
 NBsUse=    33 1.00D-06 EigRej= -1.00D+00 NBFU=    16     3     7     7
 ExpMin= 1.61D-01 ExpMax= 7.00D+03 ExpMxC= 1.05D+03 IAcc=1 IRadAn=         1 AccDes= 0.00D+00
 Harris functional with IExCor=  402 and IRadAn=       1 diagonalized for initial guess.
 HarFok:  IExCor=  402 AccDes= 0.00D+00 IRadAn=         1 IDoV= 1 UseB2=F ITyADJ=14
 ICtDFT=  3500011 ScaDFX=  1.000000  1.000000  1.000000  1.000000
 FoFCou: FMM=F IPFlag=           0 FMFlag=      100000 FMFlg1=           0
         NFxFlg=           0 DoJE=T BraDBF=F KetDBF=T FulRan=T
         wScrn=  0.000000 ICntrl=     500 IOpCl=  0 I1Cent=   200000004 NGrid=           0
         NMat0=    1 NMatS0=      1 NMatT0=    0 NMatD0=    1 NMtDS0=    0 NMtDT0=    0
 Petite list used in FoFCou.
 Initial guess orbital symmetries:
       Occupied  (SG) (SG) (SG) (PI) (PI)
       Virtual   (SG) (SG) (SG) (PI) (PI) (DLTA) (DLTA) (PI) (PI)
                 (SG) (SG) (PI) (PI) (SG) (SG) (PI) (PI) (DLTA)
                 (DLTA) (SG) (DLTA) (DLTA) (PHI) (PHI) (PI) (PI)
                 (SG) (SG)
 The electronic state of the initial guess is 1-SG.
 Keep R1 ints in memory in symmetry-blocked form, NReq=2132302.
 Requested convergence on RMS density matrix=1.00D-08 within 128 cycles.
 Requested convergence on MAX density matrix=1.00D-06.
 Requested convergence on             energy=1.00D-06.
 No special actions if energy rises.
 Integral accuracy reduced to 1.0D-05 until final iterations.
 Initial convergence to 1.0D-05 achieved.  Increase integral accuracy.
 SCF Done:  E(RB3LYP) =  -100.433150535     A.U. after    9 cycles
            NFock=  9  Conv=0.33D-08     -V/T= 2.0053

 **********************************************************************

            Population analysis using the SCF density.

 **********************************************************************

 Orbital symmetries:
       Occupied  (SG) (SG) (SG) (PI) (PI)
       Virtual   (SG) (SG) (SG) (PI) (PI) (DLTA) (DLTA) (SG) (PI)
                 (PI) (SG) (PI) (PI) (SG) (SG) (PI) (PI) (DLTA)
                 (DLTA) (SG) (DLTA) (DLTA) (PHI) (PHI) (PI) (PI)
                 (SG) (SG)
 The electronic state is 1-SG.
 Alpha  occ. eigenvalues --  -24.66032  -1.16875  -0.51931  -0.37850  -0.37850
 Alpha virt. eigenvalues --    0.06672   0.64896   0.71483   0.92028   0.92028
 Alpha virt. eigenvalues --    0.99620   0.99620   1.18281   1.18731   1.18731
 Alpha virt. eigenvalues --    2.13280   2.55124   2.55124   2.93573   3.67065
 Alpha virt. eigenvalues --    4.14422   4.14422   4.17904   4.17905   4.81621
 Alpha virt. eigenvalues --    6.64257   6.64258   6.67901   6.67901   6.99184
 Alpha virt. eigenvalues --    6.99184   7.53746   9.36207
          Condensed to atoms (all electrons):
               1          2
     1  F    9.073039   0.255550
     2  H    0.255550   0.415861
 Mulliken charges:
               1
     1  F   -0.328589
     2  H    0.328589
 Sum of Mulliken charges =   0.00000
 Mulliken charges with hydrogens summed into heavy atoms:
               1
     1  F    0.000000
 Electronic spatial extent (au):  <R**2>=             13.3319
 Charge=              0.0000 electrons
 Dipole moment (field-independent basis, Debye):
    X=              0.0000    Y=              0.0000    Z=             -1.7356  Tot=              1.7356
 Quadrupole moment (field-independent basis, Debye-Ang):
   XX=             -5.3710   YY=             -5.3710   ZZ=             -3.4880
   XY=              0.0000   XZ=              0.0000   YZ=              0.0000
 Traceless Quadrupole moment (field-independent basis, Debye-Ang):
   XX=             -0.6277   YY=             -0.6277   ZZ=              1.2553
   XY=              0.0000   XZ=              0.0000   YZ=              0.0000
 Octapole moment (field-independent basis, Debye-Ang**2):
  XXX=              0.0000  YYY=              0.0000  ZZZ=             -1.5255  XYY=              0.0000
  XXY=              0.0000  XXZ=             -0.0686  XZZ=              0.0000  YZZ=              0.0000
  YYZ=             -0.0686  XYZ=              0.0000
 Hexadecapole moment (field-independent basis, Debye-Ang**3):
 XXXX=             -2.9049 YYYY=             -2.9049 ZZZZ=             -3.1705 XXXY=              0.0000
 XXXZ=              0.0000 YYYX=              0.0000 YYYZ=              0.0000 ZZZX=              0.0000
 ZZZY=              0.0000 XXYY=             -0.9683 XXZZ=             -1.2343 YYZZ=             -1.2343
 XXYZ=              0.0000 YYXZ=              0.0000 ZZXY=              0.0000
 N-N= 5.146525694089D+00 E-N=-2.505572261605D+02  KE= 9.990093554990D+01
 Symmetry A1   KE= 8.715733405598D+01
 Symmetry A2   KE= 3.175027678208D-51
 Symmetry B1   KE= 6.371800746961D+00
 Symmetry B2   KE= 6.371800746961D+00
 Calling FoFJK, ICntrl=      2127 FMM=F ISym2X=1 I1Cent= 0 IOpClX= 0 NMat=1 NMatS=1 NMatT=0.
 ***** Axes restored to original set *****
 -------------------------------------------------------------------
 Center     Atomic                   Forces (Hartrees/Bohr)
 Number     Number              X              Y              Z
 -------------------------------------------------------------------
      1        9           0.000000000    0.000000000   -0.006742456
      2        1           0.000000000    0.000000000    0.006742456
 -------------------------------------------------------------------
 Cartesian Forces:  Max     0.006742456 RMS     0.003892759

 GradGradGradGradGradGradGradGradGradGradGradGradGradGradGradGradGradGrad
 Berny optimization.
 FormGI is forming the generalized inverse of G from B-inverse, IUseBI=4.
 Internal  Forces:  Max     0.006742456 RMS     0.006742456
 Search for a local minimum.
 Step number   1 out of a maximum of   20
 All quantities printed in internal units (Hartrees-Bohrs-Radians)
 Mixed Optimization -- RFO/linear search
 Second derivative matrix not updated -- first step.
 The second derivative matrix:
                          R1
           R1           0.63634
 ITU=  0
     Eigenvalues ---    0.63634
 RFO step:  Lambda=-7.14326569D-05 EMin= 6.36342107D-01
 Linear search not attempted -- first point.
 Iteration  1 RMS(Cart)=  0.00749141 RMS(Int)=  0.00000000
 Iteration  2 RMS(Cart)=  0.00000000 RMS(Int)=  0.00000000
 ClnCor:  largest displacement from symmetrization is 0.00D+00 for atom     0.
 Variable       Old X    -DE/DX   Delta X   Delta X   Delta X     New X
                                 (Linear)    (Quad)   (Total)
    R1        1.74875  -0.00674   0.00000  -0.01059  -0.01059   1.73816
         Item               Value     Threshold  Converged?
 Maximum Force            0.006742     0.000450     NO 
 RMS     Force            0.006742     0.000300     NO 
 Maximum Displacement     0.005297     0.001800     NO 
 RMS     Displacement     0.007491     0.001200     NO 
 Predicted change in Energy=-3.572034D-05
 GradGradGradGradGradGradGradGradGradGradGradGradGradGradGradGradGradGrad

                          Input orientation:                          
 ---------------------------------------------------------------------
 Center     Atomic      Atomic             Coordinates (Angstroms)
 Number     Number       Type             X           Y           Z
 ---------------------------------------------------------------------
      1          9           0        0.000000    0.000000    0.089737
      2          1           0        0.000000    0.000000   -0.830057
 ---------------------------------------------------------------------
 Stoichiometry    FH
 Framework group  C*V[C*(HF)]
 Deg. of freedom     1
 Full point group                 C*V     NOp   4
 Largest Abelian subgroup         C2V     NOp   4
 Largest concise Abelian subgroup C1      NOp   1
                         Standard orientation:                         
 ---------------------------------------------------------------------
 Center     Atomic      Atomic             Coordinates (Angstroms)
 Number     Number       Type             X           Y           Z
 ---------------------------------------------------------------------
      1          9           0        0.000000    0.000000    0.091979
      2          1           0        0.000000    0.000000   -0.827814
 ---------------------------------------------------------------------
 Rotational constants (GHZ):      0.0000000    624.1649150    624.1649150
 Standard basis: GTBas3 (6D, 7F)
 There are    17 symmetry adapted cartesian basis functions of A1  symmetry.
 There are     3 symmetry adapted cartesian basis functions of A2  symmetry.
 There are     8 symmetry adapted cartesian basis functions of B1  symmetry.
 There are     8 symmetry adapted cartesian basis functions of B2  symmetry.
 There are    16 symmetry adapted basis functions of A1  symmetry.
 There are     3 symmetry adapted basis functions of A2  symmetry.
 There are     7 symmetry adapted basis functions of B1  symmetry.
 There are     7 symmetry adapted basis functions of B2  symmetry.
    33 basis functions,    51 primitive gaussians,    36 cartesian basis functions
     5 alpha electrons        5 beta electrons
       nuclear repulsion energy         5.1778949028 Hartrees.
 NAtoms=    2 NActive=    2 NUniq=    2 SFac= 1.00D+00 NAtFMM=   60 NAOKFM=F Big=F
 Integral buffers will be    131072 words long.
 Raffenetti 2 integral format.
 Two-electron integral symmetry is turned on.
 One-electron integrals computed using PRISM.
 NBasis=    33 RedAO= T EigKep=  1.88D-02  NBF=    16     3     7     7
 NBsUse=    33 1.00D-06 EigRej= -1.00D+00 NBFU=    16     3     7     7
 Initial guess from the checkpoint file:  "/home/iawad/Gau-21497.chk"
 B after Tr=     0.000000    0.000000    0.000000
         Rot=    1.000000    0.000000    0.000000    0.000000 Ang=   0.00 deg.
 Initial guess orbital symmetries:
       Occupied  (SG) (SG) (SG) (PI) (PI)
       Virtual   (SG) (SG) (SG) (SG) (SG) (DLTA) (SG) (DLTA) (SG)
                 (SG) (DLTA) (SG) (SG) (DLTA) (DLTA) (DLTA) (PI)
                 (PI) (PI) (PHI) (PI) (PI) (PI) (PI) (PI) (PHI)
                 (PI) (PI)
 Keep R1 ints in memory in symmetry-blocked form, NReq=2132302.
 Requested convergence on RMS density matrix=1.00D-08 within 128 cycles.
 Requested convergence on MAX density matrix=1.00D-06.
 Requested convergence on             energy=1.00D-06.
 No special actions if energy rises.
 SCF Done:  E(RB3LYP) =  -100.433188565     A.U. after    6 cycles
            NFock=  6  Conv=0.75D-08     -V/T= 2.0052
 Calling FoFJK, ICntrl=      2127 FMM=F ISym2X=1 I1Cent= 0 IOpClX= 0 NMat=1 NMatS=1 NMatT=0.
 ***** Axes restored to original set *****
 -------------------------------------------------------------------
 Center     Atomic                   Forces (Hartrees/Bohr)
 Number     Number              X              Y              Z
 -------------------------------------------------------------------
      1        9           0.000000000    0.000000000   -0.000393091
      2        1           0.000000000    0.000000000    0.000393091
 -------------------------------------------------------------------
 Cartesian Forces:  Max     0.000393091 RMS     0.000226951

 GradGradGradGradGradGradGradGradGradGradGradGradGradGradGradGradGradGrad
 Berny optimization.
 Using GEDIIS/GDIIS optimizer.
 Internal  Forces:  Max     0.000393091 RMS     0.000393091
 Search for a local minimum.
 Step number   2 out of a maximum of   20
 All quantities printed in internal units (Hartrees-Bohrs-Radians)
 Mixed Optimization -- En-DIIS/RFO-DIIS
 Update second derivatives using D2CorX and points    1    2
 DE= -3.80D-05 DEPred=-3.57D-05 R= 1.06D+00
 TightC=F SS=  1.41D+00  RLast= 1.06D-02 DXNew= 5.0454D-01 3.1783D-02
 Trust test= 1.06D+00 RLast= 1.06D-02 DXMaxT set to 3.00D-01
 The second derivative matrix:
                          R1
           R1           0.59931
 ITU=  1  0
 Use linear search instead of GDIIS.
     Eigenvalues ---    0.59931
 RFO step:  Lambda= 0.00000000D+00 EMin= 5.99310063D-01
 Quartic linear search produced a step of  0.06058.
 Iteration  1 RMS(Cart)=  0.00045385 RMS(Int)=  0.00000000
 Iteration  2 RMS(Cart)=  0.00000000 RMS(Int)=  0.00000000
 ClnCor:  largest displacement from symmetrization is 0.00D+00 for atom     0.
 Variable       Old X    -DE/DX   Delta X   Delta X   Delta X     New X
                                 (Linear)    (Quad)   (Total)
    R1        1.73816  -0.00039  -0.00064   0.00000  -0.00064   1.73752
         Item               Value     Threshold  Converged?
 Maximum Force            0.000393     0.000450     YES
 RMS     Force            0.000393     0.000300     NO 
 Maximum Displacement     0.000321     0.001800     YES
 RMS     Displacement     0.000454     0.001200     YES
 Predicted change in Energy=-1.288562D-07
 GradGradGradGradGradGradGradGradGradGradGradGradGradGradGradGradGradGrad

                          Input orientation:                          
 ---------------------------------------------------------------------
 Center     Atomic      Atomic             Coordinates (Angstroms)
 Number     Number       Type             X           Y           Z
 ---------------------------------------------------------------------
      1          9           0        0.000000    0.000000    0.089567
      2          1           0        0.000000    0.000000   -0.829887
 ---------------------------------------------------------------------
 Stoichiometry    FH
 Framework group  C*V[C*(HF)]
 Deg. of freedom     1
 Full point group                 C*V     NOp   4
 Largest Abelian subgroup         C2V     NOp   4
 Largest concise Abelian subgroup C1      NOp   1
                         Standard orientation:                         
 ---------------------------------------------------------------------
 Center     Atomic      Atomic             Coordinates (Angstroms)
 Number     Number       Type             X           Y           Z
 ---------------------------------------------------------------------
      1          9           0        0.000000    0.000000    0.091945
      2          1           0        0.000000    0.000000   -0.827509
 ---------------------------------------------------------------------
 Rotational constants (GHZ):      0.0000000    624.6261372    624.6261372
 Standard basis: GTBas3 (6D, 7F)
 There are    17 symmetry adapted cartesian basis functions of A1  symmetry.
 There are     3 symmetry adapted cartesian basis functions of A2  symmetry.
 There are     8 symmetry adapted cartesian basis functions of B1  symmetry.
 There are     8 symmetry adapted cartesian basis functions of B2  symmetry.
 There are    16 symmetry adapted basis functions of A1  symmetry.
 There are     3 symmetry adapted basis functions of A2  symmetry.
 There are     7 symmetry adapted basis functions of B1  symmetry.
 There are     7 symmetry adapted basis functions of B2  symmetry.
    33 basis functions,    51 primitive gaussians,    36 cartesian basis functions
     5 alpha electrons        5 beta electrons
       nuclear repulsion energy         5.1798076339 Hartrees.
 NAtoms=    2 NActive=    2 NUniq=    2 SFac= 1.00D+00 NAtFMM=   60 NAOKFM=F Big=F
 Integral buffers will be    131072 words long.
 Raffenetti 2 integral format.
 Two-electron integral symmetry is turned on.
 One-electron integrals computed using PRISM.
 NBasis=    33 RedAO= T EigKep=  1.88D-02  NBF=    16     3     7     7
 NBsUse=    33 1.00D-06 EigRej= -1.00D+00 NBFU=    16     3     7     7
 Initial guess from the checkpoint file:  "/home/iawad/Gau-21497.chk"
 B after Tr=     0.000000    0.000000    0.000000
         Rot=    1.000000    0.000000    0.000000    0.000000 Ang=   0.00 deg.
 Initial guess orbital symmetries:
       Occupied  (SG) (SG) (SG) (PI) (PI)
       Virtual   (SG) (SG) (SG) (SG) (SG) (DLTA) (SG) (DLTA) (SG)
                 (SG) (DLTA) (SG) (SG) (DLTA) (DLTA) (DLTA) (PI)
                 (PI) (PI) (PHI) (PI) (PI) (PI) (PI) (PI) (PHI)
                 (PI) (PI)
 Keep R1 ints in memory in symmetry-blocked form, NReq=2132302.
 Requested convergence on RMS density matrix=1.00D-08 within 128 cycles.
 Requested convergence on MAX density matrix=1.00D-06.
 Requested convergence on             energy=1.00D-06.
 No special actions if energy rises.
 SCF Done:  E(RB3LYP) =  -100.433188691     A.U. after    5 cycles
            NFock=  5  Conv=0.83D-08     -V/T= 2.0052
 Calling FoFJK, ICntrl=      2127 FMM=F ISym2X=1 I1Cent= 0 IOpClX= 0 NMat=1 NMatS=1 NMatT=0.
 ***** Axes restored to original set *****
 -------------------------------------------------------------------
 Center     Atomic                   Forces (Hartrees/Bohr)
 Number     Number              X              Y              Z
 -------------------------------------------------------------------
      1        9           0.000000000    0.000000000    0.000000047
      2        1           0.000000000    0.000000000   -0.000000047
 -------------------------------------------------------------------
 Cartesian Forces:  Max     0.000000047 RMS     0.000000027

 GradGradGradGradGradGradGradGradGradGradGradGradGradGradGradGradGradGrad
 Berny optimization.
 Using GEDIIS/GDIIS optimizer.
 Internal  Forces:  Max     0.000000047 RMS     0.000000047
 Search for a local minimum.
 Step number   3 out of a maximum of   20
 All quantities printed in internal units (Hartrees-Bohrs-Radians)
 Mixed Optimization -- En-DIIS/RFO-DIIS
 Swapping is turned off.
 Update second derivatives using D2CorX and points    3
 DE= -1.26D-07 DEPred=-1.29D-07 R= 9.79D-01
 Trust test= 9.79D-01 RLast= 6.42D-04 DXMaxT set to 3.00D-01
 The second derivative matrix:
                          R1
           R1           0.59931
 ITU=  0  1
     Eigenvalues ---    0.59931
 En-DIIS/RFO-DIIS IScMMF=        0 using points:     3    2
 RFO step:  Lambda=-2.83106871D-15.
 DidBck=F Rises=F RFO-DIIS coefs:    0.99988    0.00012
 Iteration  1 RMS(Cart)=  0.00000005 RMS(Int)=  0.00000000
 ClnCor:  largest displacement from symmetrization is 0.00D+00 for atom     0.
 Variable       Old X    -DE/DX   Delta X   Delta X   Delta X     New X
                                 (Linear)    (Quad)   (Total)
    R1        1.73752   0.00000   0.00000   0.00000   0.00000   1.73752
         Item               Value     Threshold  Converged?
 Maximum Force            0.000000     0.000450     YES
 RMS     Force            0.000000     0.000300     YES
 Maximum Displacement     0.000000     0.001800     YES
 RMS     Displacement     0.000000     0.001200     YES
 Predicted change in Energy=-1.833351D-15
 Optimization completed.
    -- Stationary point found.
                           ----------------------------
                           !   Optimized Parameters   !
                           ! (Angstroms and Degrees)  !
 --------------------------                            --------------------------
 ! Name  Definition              Value          Derivative Info.                !
 --------------------------------------------------------------------------------
 ! R1    R(1,2)                  0.9195         -DE/DX =    0.0                 !
 --------------------------------------------------------------------------------
 GradGradGradGradGradGradGradGradGradGradGradGradGradGradGradGradGradGrad

                          Input orientation:                          
 ---------------------------------------------------------------------
 Center     Atomic      Atomic             Coordinates (Angstroms)
 Number     Number       Type             X           Y           Z
 ---------------------------------------------------------------------
      1          9           0        0.000000    0.000000    0.089567
      2          1           0        0.000000    0.000000   -0.829887
 ---------------------------------------------------------------------
 Stoichiometry    FH
 Framework group  C*V[C*(HF)]
 Deg. of freedom     1
 Full point group                 C*V     NOp   4
 Largest Abelian subgroup         C2V     NOp   4
 Largest concise Abelian subgroup C1      NOp   1
                         Standard orientation:                         
 ---------------------------------------------------------------------
 Center     Atomic      Atomic             Coordinates (Angstroms)
 Number     Number       Type             X           Y           Z
 ---------------------------------------------------------------------
      1          9           0        0.000000    0.000000    0.091945
      2          1           0        0.000000    0.000000   -0.827509
 ---------------------------------------------------------------------
 Rotational constants (GHZ):      0.0000000    624.6261372    624.6261372

 **********************************************************************

            Population analysis using the SCF density.

 **********************************************************************

 Orbital symmetries:
       Occupied  (SG) (SG) (SG) (PI) (PI)
       Virtual   (SG) (SG) (SG) (PI) (PI) (DLTA) (DLTA) (SG) (PI)
                 (PI) (SG) (PI) (PI) (SG) (SG) (PI) (PI) (DLTA)
                 (DLTA) (SG) (DLTA) (DLTA) (PHI) (PHI) (PI) (PI)
                 (SG) (SG)
 The electronic state is 1-SG.
 Alpha  occ. eigenvalues --  -24.66016  -1.17065  -0.52061  -0.37903  -0.37903
 Alpha virt. eigenvalues --    0.06870   0.65169   0.71605   0.92019   0.92019
 Alpha virt. eigenvalues --    0.99585   0.99585   1.18305   1.18712   1.18712
 Alpha virt. eigenvalues --    2.14103   2.55652   2.55652   2.94424   3.67233
 Alpha virt. eigenvalues --    4.14513   4.14513   4.17855   4.17855   4.82536
 Alpha virt. eigenvalues --    6.64172   6.64172   6.67849   6.67849   7.00015
 Alpha virt. eigenvalues --    7.00015   7.54233   9.36494
          Condensed to atoms (all electrons):
               1          2
     1  F    9.068785   0.257726
     2  H    0.257726   0.415763
 Mulliken charges:
               1
     1  F   -0.326511
     2  H    0.326511
 Sum of Mulliken charges =   0.00000
 Mulliken charges with hydrogens summed into heavy atoms:
               1
     1  F    0.000000
 Electronic spatial extent (au):  <R**2>=             13.2991
 Charge=              0.0000 electrons
 Dipole moment (field-independent basis, Debye):
    X=              0.0000    Y=              0.0000    Z=             -1.7286  Tot=              1.7286
 Quadrupole moment (field-independent basis, Debye-Ang):
   XX=             -5.3656   YY=             -5.3656   ZZ=             -3.5021
   XY=              0.0000   XZ=              0.0000   YZ=              0.0000
 Traceless Quadrupole moment (field-independent basis, Debye-Ang):
   XX=             -0.6212   YY=             -0.6212   ZZ=              1.2423
   XY=              0.0000   XZ=              0.0000   YZ=              0.0000
 Octapole moment (field-independent basis, Debye-Ang**2):
  XXX=              0.0000  YYY=              0.0000  ZZZ=             -1.5086  XYY=              0.0000
  XXY=              0.0000  XXZ=             -0.0717  XZZ=              0.0000  YZZ=              0.0000
  YYZ=             -0.0717  XYZ=              0.0000
 Hexadecapole moment (field-independent basis, Debye-Ang**3):
 XXXX=             -2.8992 YYYY=             -2.8992 ZZZZ=             -3.1605 XXXY=              0.0000
 XXXZ=              0.0000 YYYX=              0.0000 YYYZ=              0.0000 ZZZX=              0.0000
 ZZZY=              0.0000 XXYY=             -0.9664 XXZZ=             -1.2260 YYZZ=             -1.2260
 XXYZ=              0.0000 YYXZ=              0.0000 ZZXY=              0.0000
 N-N= 5.179807633857D+00 E-N=-2.506255528941D+02  KE= 9.991245583547D+01
 Symmetry A1   KE= 8.716977504357D+01
 Symmetry A2   KE=-5.707895982011D-51
 Symmetry B1   KE= 6.371340395952D+00
 Symmetry B2   KE= 6.371340395952D+00
 1\1\GINC-TATANKA\FOpt\RB3LYP\GTBas3\F1H1\IAWAD\09-Mar-2017\0\\# G4\\FH
 .LOG\\0,1\F,0.,0.,0.0895670028\H,0.,0.,-0.8298870028\\Version=ES64L-G0
 9RevD.01\State=1-SG\HF=-100.4331887\RMSD=8.294e-09\RMSF=2.707e-08\Dipo
 le=0.,0.,-0.6800895\Quadrupole=-0.4618198,-0.4618198,0.9236397,0.,0.,0
 .\PG=C*V [C*(H1F1)]\\@


 TO DRY ONE'S EYES AND LAUGH AT A FALL
 AND BAFFLED, GET UP AND BEGIN AGAIN.
           R. BROWNING
 Job cpu time:       0 days  0 hours  0 minutes  5.5 seconds.
 File lengths (MBytes):  RWF=     72 Int=      0 D2E=      0 Chk=      2 Scr=      2
 Normal termination of Gaussian 09 at Thu Mar  9 16:39:00 2017.
 Link1:  Proceeding to internal job step number  2.
 ----------------------------------------------------------
 #N Geom=AllCheck Guess=TCheck SCRF=Check B3LYP/GTBas3 Freq
 ----------------------------------------------------------
 1/10=4,29=7,30=1,38=1,40=1/1,3;
 2/12=2,40=1/2;
 3/5=35,11=2,14=-4,16=1,25=1,30=1,70=2,71=2,74=-5,116=-2,140=1/1,2,3;
 4/5=101/1;
 5/5=2,98=1/2;
 8/6=4,10=90,11=11/1;
 11/6=1,8=1,9=11,15=111,16=1/1,2,10;
 10/6=1/2;
 6/7=2,8=2,9=2,10=2,18=1,28=1/1;
 7/8=1,10=1,25=1/1,2,3,16;
 1/10=4,30=1/3;
 99//99;
 Structure from the checkpoint file:  "/home/iawad/Gau-21497.chk"
 ------
 FH.LOG
 ------
 Charge =  0 Multiplicity = 1
 Redundant internal coordinates found in file.
 F,0,0.,0.,0.0895670028
 H,0,0.,0.,-0.8298870028
 Recover connectivity data from disk.

 GradGradGradGradGradGradGradGradGradGradGradGradGradGradGradGradGradGrad
 Berny optimization.
 Initialization pass.
                           ----------------------------
                           !    Initial Parameters    !
                           ! (Angstroms and Degrees)  !
 --------------------------                            --------------------------
 ! Name  Definition              Value          Derivative Info.                !
 --------------------------------------------------------------------------------
 ! R1    R(1,2)                  0.9195         calculate D2E/DX2 analytically  !
 --------------------------------------------------------------------------------
 Trust Radius=3.00D-01 FncErr=1.00D-07 GrdErr=1.00D-07
 Number of steps in this run=      2 maximum allowed number of steps=      2.
 GradGradGradGradGradGradGradGradGradGradGradGradGradGradGradGradGradGrad

                          Input orientation:                          
 ---------------------------------------------------------------------
 Center     Atomic      Atomic             Coordinates (Angstroms)
 Number     Number       Type             X           Y           Z
 ---------------------------------------------------------------------
      1          9           0        0.000000    0.000000    0.089567
      2          1           0        0.000000    0.000000   -0.829887
 ---------------------------------------------------------------------
 Stoichiometry    FH
 Framework group  C*V[C*(HF)]
 Deg. of freedom     1
 Full point group                 C*V     NOp   4
 Largest Abelian subgroup         C2V     NOp   4
 Largest concise Abelian subgroup C1      NOp   1
                         Standard orientation:                         
 ---------------------------------------------------------------------
 Center     Atomic      Atomic             Coordinates (Angstroms)
 Number     Number       Type             X           Y           Z
 ---------------------------------------------------------------------
      1          9           0        0.000000    0.000000    0.091945
      2          1           0        0.000000    0.000000   -0.827509
 ---------------------------------------------------------------------
 Rotational constants (GHZ):      0.0000000    624.6261372    624.6261372
 Standard basis: GTBas3 (6D, 7F)
 There are    17 symmetry adapted cartesian basis functions of A1  symmetry.
 There are     3 symmetry adapted cartesian basis functions of A2  symmetry.
 There are     8 symmetry adapted cartesian basis functions of B1  symmetry.
 There are     8 symmetry adapted cartesian basis functions of B2  symmetry.
 There are    16 symmetry adapted basis functions of A1  symmetry.
 There are     3 symmetry adapted basis functions of A2  symmetry.
 There are     7 symmetry adapted basis functions of B1  symmetry.
 There are     7 symmetry adapted basis functions of B2  symmetry.
    33 basis functions,    51 primitive gaussians,    36 cartesian basis functions
     5 alpha electrons        5 beta electrons
       nuclear repulsion energy         5.1798076339 Hartrees.
 NAtoms=    2 NActive=    2 NUniq=    2 SFac= 1.00D+00 NAtFMM=   60 NAOKFM=F Big=F
 Integral buffers will be    131072 words long.
 Raffenetti 2 integral format.
 Two-electron integral symmetry is turned on.
 One-electron integrals computed using PRISM.
 NBasis=    33 RedAO= T EigKep=  1.88D-02  NBF=    16     3     7     7
 NBsUse=    33 1.00D-06 EigRej= -1.00D+00 NBFU=    16     3     7     7
 Initial guess from the checkpoint file:  "/home/iawad/Gau-21497.chk"
 B after Tr=     0.000000    0.000000    0.000000
         Rot=    1.000000    0.000000    0.000000    0.000000 Ang=   0.00 deg.
 Initial guess orbital symmetries:
       Occupied  (SG) (SG) (SG) (PI) (PI)
       Virtual   (SG) (SG) (SG) (PI) (PI) (DLTA) (DLTA) (SG) (PI)
                 (PI) (SG) (PI) (PI) (SG) (SG) (PI) (PI) (DLTA)
                 (DLTA) (SG) (DLTA) (DLTA) (PHI) (PHI) (PI) (PI)
                 (SG) (SG)
 Keep R1 ints in memory in symmetry-blocked form, NReq=2132302.
 Requested convergence on RMS density matrix=1.00D-08 within 128 cycles.
 Requested convergence on MAX density matrix=1.00D-06.
 Requested convergence on             energy=1.00D-06.
 No special actions if energy rises.
 SCF Done:  E(RB3LYP) =  -100.433188691     A.U. after    1 cycles
            NFock=  1  Conv=0.51D-09     -V/T= 2.0052
 DoSCS=F DFT=T ScalE2(SS,OS)=  1.000000  1.000000
 Range of M.O.s used for correlation:     1    33
 NBasis=    33 NAE=     5 NBE=     5 NFC=     0 NFV=     0
 NROrb=     33 NOA=     5 NOB=     5 NVA=    28 NVB=    28
 Symmetrizing basis deriv contribution to polar:
 IMax=3 JMax=2 DiffMx= 0.00D+00
 G2DrvN: will do     3 centers at a time, making    1 passes.
 Calling FoFCou, ICntrl=  3107 FMM=F I1Cent=   0 AccDes= 0.00D+00.
 End of G2Drv F.D. properties file   721 does not exist.
 End of G2Drv F.D. properties file   722 does not exist.
 End of G2Drv F.D. properties file   788 does not exist.
          IDoAtm=11
          Differentiating once with respect to electric field.
                with respect to dipole field.
          Differentiating once with respect to nuclear coordinates.
 Keep R1 ints in memory in symmetry-blocked form, NReq=2117040.
          There are     9 degrees of freedom in the 1st order CPHF.  IDoFFX=6 NUNeed=     3.
      6 vectors produced by pass  0 Test12= 1.56D-15 1.11D-08 XBig12= 2.18D+00 1.26D+00.
 AX will form     6 AO Fock derivatives at one time.
      6 vectors produced by pass  1 Test12= 1.56D-15 1.11D-08 XBig12= 2.30D-01 2.35D-01.
      6 vectors produced by pass  2 Test12= 1.56D-15 1.11D-08 XBig12= 2.22D-03 1.90D-02.
      6 vectors produced by pass  3 Test12= 1.56D-15 1.11D-08 XBig12= 2.45D-06 5.86D-04.
      6 vectors produced by pass  4 Test12= 1.56D-15 1.11D-08 XBig12= 1.49D-09 1.54D-05.
      4 vectors produced by pass  5 Test12= 1.56D-15 1.11D-08 XBig12= 7.67D-13 4.19D-07.
 InvSVY:  IOpt=1 It=  1 EMax= 2.22D-16
 Solved reduced A of dimension    34 with     6 vectors.
 Isotropic polarizability for W=    0.000000        3.80 Bohr**3.
 End of Minotr F.D. properties file   721 does not exist.
 End of Minotr F.D. properties file   722 does not exist.
 End of Minotr F.D. properties file   788 does not exist.

 **********************************************************************

            Population analysis using the SCF density.

 **********************************************************************

 Orbital symmetries:
       Occupied  (SG) (SG) (SG) (PI) (PI)
       Virtual   (SG) (SG) (SG) (PI) (PI) (DLTA) (DLTA) (SG) (PI)
                 (PI) (SG) (PI) (PI) (SG) (SG) (PI) (PI) (DLTA)
                 (DLTA) (SG) (DLTA) (DLTA) (PHI) (PHI) (PI) (PI)
                 (SG) (SG)
 The electronic state is 1-SG.
 Alpha  occ. eigenvalues --  -24.66016  -1.17065  -0.52061  -0.37903  -0.37903
 Alpha virt. eigenvalues --    0.06870   0.65169   0.71605   0.92019   0.92019
 Alpha virt. eigenvalues --    0.99585   0.99585   1.18305   1.18712   1.18712
 Alpha virt. eigenvalues --    2.14103   2.55652   2.55652   2.94424   3.67233
 Alpha virt. eigenvalues --    4.14513   4.14513   4.17855   4.17855   4.82536
 Alpha virt. eigenvalues --    6.64172   6.64172   6.67849   6.67849   7.00015
 Alpha virt. eigenvalues --    7.00015   7.54233   9.36494
          Condensed to atoms (all electrons):
               1          2
     1  F    9.068785   0.257726
     2  H    0.257726   0.415763
 Mulliken charges:
               1
     1  F   -0.326511
     2  H    0.326511
 Sum of Mulliken charges =   0.00000
 Mulliken charges with hydrogens summed into heavy atoms:
               1
     1  F    0.000000
 APT charges:
               1
     1  F   -0.342638
     2  H    0.342638
 Sum of APT charges =   0.00000
 APT charges with hydrogens summed into heavy atoms:
               1
     1  F    0.000000
 Electronic spatial extent (au):  <R**2>=             13.2991
 Charge=              0.0000 electrons
 Dipole moment (field-independent basis, Debye):
    X=              0.0000    Y=              0.0000    Z=             -1.7286  Tot=              1.7286
 Quadrupole moment (field-independent basis, Debye-Ang):
   XX=             -5.3656   YY=             -5.3656   ZZ=             -3.5021
   XY=              0.0000   XZ=              0.0000   YZ=              0.0000
 Traceless Quadrupole moment (field-independent basis, Debye-Ang):
   XX=             -0.6212   YY=             -0.6212   ZZ=              1.2423
   XY=              0.0000   XZ=              0.0000   YZ=              0.0000
 Octapole moment (field-independent basis, Debye-Ang**2):
  XXX=              0.0000  YYY=              0.0000  ZZZ=             -1.5086  XYY=              0.0000
  XXY=              0.0000  XXZ=             -0.0717  XZZ=              0.0000  YZZ=              0.0000
  YYZ=             -0.0717  XYZ=              0.0000
 Hexadecapole moment (field-independent basis, Debye-Ang**3):
 XXXX=             -2.8992 YYYY=             -2.8992 ZZZZ=             -3.1605 XXXY=              0.0000
 XXXZ=              0.0000 YYYX=              0.0000 YYYZ=              0.0000 ZZZX=              0.0000
 ZZZY=              0.0000 XXYY=             -0.9664 XXZZ=             -1.2260 YYZZ=             -1.2260
 XXYZ=              0.0000 YYXZ=              0.0000 ZZXY=              0.0000
 N-N= 5.179807633857D+00 E-N=-2.506255525607D+02  KE= 9.991245564417D+01
 Symmetry A1   KE= 8.716977498069D+01
 Symmetry A2   KE=-4.032394927708D-51
 Symmetry B1   KE= 6.371340331741D+00
 Symmetry B2   KE= 6.371340331741D+00
  Exact polarizability:   3.091   0.000   3.091   0.000   0.000   5.226
 Approx polarizability:   3.548   0.000   3.548   0.000   0.000   6.872
 Calling FoFJK, ICntrl=    100127 FMM=F ISym2X=1 I1Cent= 0 IOpClX= 0 NMat=1 NMatS=1 NMatT=0.
 Full mass-weighted force constant matrix:
 Low frequencies ---   -0.0016   -0.0014   -0.0014   37.3261   37.3261 4114.9008
 Diagonal vibrational polarizability:
        0.0000000       0.0000000       0.0973228
 Harmonic frequencies (cm**-1), IR intensities (KM/Mole), Raman scattering
 activities (A**4/AMU), depolarization ratios for plane and unpolarized
 incident light, reduced masses (AMU), force constants (mDyne/A),
 and normal coordinates:
                      1
                     SG
 Frequencies --   4114.9008
 Red. masses --      1.0583
 Frc consts  --     10.5580
 IR Inten    --     61.2351
  Atom  AN      X      Y      Z
     1   9     0.00   0.00   0.05
     2   1     0.00   0.00  -1.00

 -------------------
 - Thermochemistry -
 -------------------
 Temperature   298.150 Kelvin.  Pressure   1.00000 Atm.
 Atom     1 has atomic number  9 and mass  18.99840
 Atom     2 has atomic number  1 and mass   1.00783
 Molecular mass:    20.00623 amu.
 Principal axes and moments of inertia in atomic units:
                           1         2         3
     Eigenvalues --     0.00000   2.88931   2.88931
           X            0.00000   0.00000   1.00000
           Y            0.00000   1.00000   0.00000
           Z            1.00000   0.00000   0.00000
 This molecule is a prolate symmetric top.
 Rotational symmetry number  1.
 Rotational temperature (Kelvin)     29.97729
 Rotational constant (GHZ):         624.626137
 Zero-point vibrational energy      24612.6 (Joules/Mol)
                                    5.88255 (Kcal/Mol)
 Vibrational temperatures:   5920.42
          (Kelvin)
 
 Zero-point correction=                           0.009374 (Hartree/Particle)
 Thermal correction to Energy=                    0.011735
 Thermal correction to Enthalpy=                  0.012679
 Thermal correction to Gibbs Free Energy=        -0.007026
 Sum of electronic and zero-point Energies=           -100.423814
 Sum of electronic and thermal Energies=              -100.421454
 Sum of electronic and thermal Enthalpies=            -100.420510
 Sum of electronic and thermal Free Energies=         -100.440215
 
                     E (Thermal)             CV                S
                      KCal/Mol        Cal/Mol-Kelvin    Cal/Mol-Kelvin
 Total                    7.364              4.968             41.474
 Electronic               0.000              0.000              0.000
 Translational            0.889              2.981             34.922
 Rotational               0.592              1.987              6.552
 Vibrational              5.883              0.000              0.000
                       Q            Log10(Q)             Ln(Q)
 Total Bot       0.170575D+04          3.231914          7.441758
 Total V=0       0.349821D+08          7.543845         17.370346
 Vib (Bot)       0.487606D-04         -4.311931         -9.928588
 Vib (V=0)       0.100000D+01          0.000000          0.000000
 Electronic      0.100000D+01          0.000000          0.000000
 Translational   0.351725D+07          6.546203         15.073190
 Rotational      0.994586D+01          0.997642          2.297157
 ***** Axes restored to original set *****
 -------------------------------------------------------------------
 Center     Atomic                   Forces (Hartrees/Bohr)
 Number     Number              X              Y              Z
 -------------------------------------------------------------------
      1        9           0.000000000    0.000000000    0.000000039
      2        1           0.000000000    0.000000000   -0.000000039
 -------------------------------------------------------------------
 Cartesian Forces:  Max     0.000000039 RMS     0.000000022
 FormGI is forming the generalized inverse of G from B-inverse, IUseBI=4.

 GradGradGradGradGradGradGradGradGradGradGradGradGradGradGradGradGradGrad
 Berny optimization.
 Internal  Forces:  Max     0.000000039 RMS     0.000000039
 Search for a local minimum.
 Step number   1 out of a maximum of    2
 All quantities printed in internal units (Hartrees-Bohrs-Radians)
 Second derivative matrix not updated -- analytic derivatives used.
 The second derivative matrix:
                          R1
           R1           0.61326
 ITU=  0
     Eigenvalues ---    0.61326
 Angle between quadratic step and forces=  90.00 degrees.
 Linear search not attempted -- first point.
 Iteration  1 RMS(Cart)=  0.00000004 RMS(Int)=  0.00000000
 ClnCor:  largest displacement from symmetrization is 0.00D+00 for atom     0.
 Variable       Old X    -DE/DX   Delta X   Delta X   Delta X     New X
                                 (Linear)    (Quad)   (Total)
    R1        1.73752   0.00000   0.00000   0.00000   0.00000   1.73752
         Item               Value     Threshold  Converged?
 Maximum Force            0.000000     0.000450     YES
 RMS     Force            0.000000     0.000300     YES
 Maximum Displacement     0.000000     0.001800     YES
 RMS     Displacement     0.000000     0.001200     YES
 Predicted change in Energy=-1.221670D-15
 Optimization completed.
    -- Stationary point found.
                           ----------------------------
                           !   Optimized Parameters   !
                           ! (Angstroms and Degrees)  !
 --------------------------                            --------------------------
 ! Name  Definition              Value          Derivative Info.                !
 --------------------------------------------------------------------------------
 ! R1    R(1,2)                  0.9195         -DE/DX =    0.0                 !
 --------------------------------------------------------------------------------
 GradGradGradGradGradGradGradGradGradGradGradGradGradGradGradGradGradGrad

 1\1\GINC-TATANKA\Freq\RB3LYP\GTBas3\F1H1\IAWAD\09-Mar-2017\0\\#N Geom=
 AllCheck Guess=TCheck SCRF=Check B3LYP/GTBas3 Freq\\FH.LOG\\0,1\F,0.,0
 .,0.0895670028\H,0.,0.,-0.8298870028\\Version=ES64L-G09RevD.01\State=1
 -SG\HF=-100.4331887\RMSD=5.114e-10\RMSF=2.235e-08\ZeroPoint=0.0093744\
 Thermal=0.0117349\Dipole=0.,0.,-0.6800895\DipoleDeriv=-0.3913645,0.,0.
 ,0.,-0.3913645,0.,0.,0.,-0.2451845,0.3913645,0.,0.,0.,0.3913645,0.,0.,
 0.,0.2451845\Polar=3.0906247,0.,3.0906247,0.,0.,5.2255692\PG=C*V [C*(H
 1F1)]\NImag=0\\0.00005046,0.,0.00005046,0.,0.,0.61326362,-0.00005046,0
 .,0.,0.00005046,0.,-0.00005046,0.,0.,0.00005046,0.,0.,-0.61326362,0.,0
 .,0.61326362\\0.,0.,-0.00000004,0.,0.,0.00000004\\\@


 ALL MY ATTEMPTS TO ADAPT THE THEORETICAL FOUNDATIONS OF PHYSICS
 TO THESE NEW NOTIONS FAILED COMPLETELY. IT WAS AS IF THE GROUND HAD
 BEEN PULLED OUT FROM UNDER ONE WITH NO FIRM FOUNDATION TO BE SEEN ANYWHERE,
 UPON WHICH ONE COULD HAVE BUILT.  -- A.EINSTEIN
 Job cpu time:       0 days  0 hours  0 minutes  4.7 seconds.
 File lengths (MBytes):  RWF=     82 Int=      0 D2E=      0 Chk=      2 Scr=      2
 Normal termination of Gaussian 09 at Thu Mar  9 16:39:04 2017.
 Link1:  Proceeding to internal job step number  3.
 -----------------------------------------------------------------
 #N Geom=AllCheck Guess=TCheck SCRF=Check CCSD(T,E4T,FrzG4)/GTBas1
 -----------------------------------------------------------------
 1/29=7,38=1,40=1/1;
 2/12=2,40=1/2;
 3/5=33,11=9,14=-4,16=1,25=1,30=1,70=2,116=-2/1,2,3;
 4/5=101/1;
 5/5=2/2;
 8/6=4,9=120000,10=6/1,4;
 9/5=7,14=4/13;
 6/7=2,8=2,9=2,10=2/1;
 99/5=1,9=1/99;
 Structure from the checkpoint file:  "/home/iawad/Gau-21497.chk"
 ------
 FH.LOG
 ------
 Charge =  0 Multiplicity = 1
 Redundant internal coordinates found in file.
 F,0,0.,0.,0.0895670028
 H,0,0.,0.,-0.8298870028
 Recover connectivity data from disk.
                          Input orientation:                          
 ---------------------------------------------------------------------
 Center     Atomic      Atomic             Coordinates (Angstroms)
 Number     Number       Type             X           Y           Z
 ---------------------------------------------------------------------
      1          9           0        0.000000    0.000000    0.089567
      2          1           0        0.000000    0.000000   -0.829887
 ---------------------------------------------------------------------
 Stoichiometry    FH
 Framework group  C*V[C*(HF)]
 Deg. of freedom     1
 Full point group                 C*V     NOp   4
 Largest Abelian subgroup         C2V     NOp   4
 Largest concise Abelian subgroup C1      NOp   1
                         Standard orientation:                         
 ---------------------------------------------------------------------
 Center     Atomic      Atomic             Coordinates (Angstroms)
 Number     Number       Type             X           Y           Z
 ---------------------------------------------------------------------
      1          9           0        0.000000    0.000000    0.091945
      2          1           0        0.000000    0.000000   -0.827509
 ---------------------------------------------------------------------
 Rotational constants (GHZ):      0.0000000    624.6261372    624.6261372
 Standard basis: GTBas1 (6D, 7F)
 There are    10 symmetry adapted cartesian basis functions of A1  symmetry.
 There are     1 symmetry adapted cartesian basis functions of A2  symmetry.
 There are     3 symmetry adapted cartesian basis functions of B1  symmetry.
 There are     3 symmetry adapted cartesian basis functions of B2  symmetry.
 There are    10 symmetry adapted basis functions of A1  symmetry.
 There are     1 symmetry adapted basis functions of A2  symmetry.
 There are     3 symmetry adapted basis functions of B1  symmetry.
 There are     3 symmetry adapted basis functions of B2  symmetry.
    17 basis functions,    32 primitive gaussians,    17 cartesian basis functions
     5 alpha electrons        5 beta electrons
       nuclear repulsion energy         5.1798076339 Hartrees.
 NAtoms=    2 NActive=    2 NUniq=    2 SFac= 1.00D+00 NAtFMM=   60 NAOKFM=F Big=F
 Integral buffers will be    131072 words long.
 Raffenetti 1 integral format.
 Two-electron integral symmetry is turned on.
 One-electron integrals computed using PRISM.
 NBasis=    17 RedAO= T EigKep=  2.45D-02  NBF=    10     1     3     3
 NBsUse=    17 1.00D-06 EigRej= -1.00D+00 NBFU=    10     1     3     3
 Initial guess from the checkpoint file:  "/home/iawad/Gau-21497.chk"
 B after Tr=     0.000000    0.000000    0.000000
         Rot=    1.000000    0.000000    0.000000    0.000000 Ang=   0.00 deg.
 Initial guess orbital symmetries:
       Occupied  (SG) (SG) (SG) (PI) (PI)
       Virtual   (SG) (SG) (SG) (PI) (PI) (DLTA) (DLTA) (SG) (PI)
                 (PI) (SG) (SG)
 Keep R1 ints in memory in symmetry-blocked form, NReq=857877.
 Requested convergence on RMS density matrix=1.00D-08 within 128 cycles.
 Requested convergence on MAX density matrix=1.00D-06.
 Requested convergence on             energy=1.00D-06.
 No special actions if energy rises.
 SCF Done:  E(RHF) =  -100.002819905     A.U. after    9 cycles
            NFock=  9  Conv=0.13D-08     -V/T= 2.0017
 ExpMin= 1.61D-01 ExpMax= 7.00D+03 ExpMxC= 1.05D+03 IAcc=3 IRadAn=         5 AccDes= 0.00D+00
 HarFok:  IExCor=  205 AccDes= 0.00D+00 IRadAn=         5 IDoV=-2 UseB2=F ITyADJ=14
 ICtDFT= 12500011 ScaDFX=  1.000000  1.000000  1.000000  1.000000
 Range of M.O.s used for correlation:     2    17
 NBasis=    17 NAE=     5 NBE=     5 NFC=     1 NFV=     0
 NROrb=     16 NOA=     4 NOB=     4 NVA=    12 NVB=    12
 Semi-Direct transformation.
 ModeAB=           2 MOrb=             4 LenV=     104694133
 LASXX=         1690 LTotXX=        1690 LenRXX=        1690
 LTotAB=        2156 MaxLAS=        9792 LenRXY=        9792
 NonZer=       11520 LenScr=      655360 LnRSAI=           0
 LnScr1=           0 LExtra=           0 Total=       666842
 MaxDsk=          -1 SrtSym=           F ITran=            4
 JobTyp=0 Pass  1:  I=   1 to   4.
 (rs|ai) integrals will be sorted in core.
 Spin components of T(2) and E(2):
     alpha-alpha T2 =       0.5248651474D-02 E2=     -0.2421534830D-01
     alpha-beta  T2 =       0.2877648260D-01 E2=     -0.1306908198D+00
     beta-beta   T2 =       0.5248651474D-02 E2=     -0.2421534830D-01
 ANorm=    0.1019447785D+01
 E2 =    -0.1791215164D+00 EUMP2 =    -0.10018194142131D+03
 Keep R2 and R3 ints in memory in symmetry-blocked form, NReq=833918.
 Iterations=  50 Convergence= 0.100D-06
 Iteration Nr.   1
 **********************
 DD1Dir will call FoFMem   1 times, MxPair=        20
 NAB=    10 NAA=     0 NBB=     0.
 MP4(R+Q)=  0.55995936D-03
 Time for triples=        0.01 seconds.
 MP4(T)=   -0.18053559D-02
 E3=       -0.17602968D-02        EUMP3=      -0.10018370172D+03
 E4(DQ)=   -0.17690517D-02        UMP4(DQ)=   -0.10018547077D+03
 E4(SDQ)=  -0.26687457D-02        UMP4(SDQ)=  -0.10018637046D+03
 E4(SDTQ)= -0.44741016D-02        UMP4(SDTQ)= -0.10018817582D+03
 DE(Corr)= -0.18021676     E(Corr)=     -100.18303667    
 NORM(A)=   0.10200928D+01
 Iteration Nr.   2
 **********************
 DD1Dir will call FoFMem   1 times, MxPair=        20
 NAB=    10 NAA=     0 NBB=     0.
 DE(Corr)= -0.18277904     E(CORR)=     -100.18559894     Delta=-2.56D-03
 NORM(A)=   0.10211053D+01
 Iteration Nr.   3
 **********************
 DD1Dir will call FoFMem   1 times, MxPair=        20
 NAB=    10 NAA=     0 NBB=     0.
 DE(Corr)= -0.18337159     E(CORR)=     -100.18619150     Delta=-5.93D-04
 NORM(A)=   0.10212565D+01
 Iteration Nr.   4
 **********************
 DD1Dir will call FoFMem   1 times, MxPair=        20
 NAB=    10 NAA=     0 NBB=     0.
 DE(Corr)= -0.18353468     E(CORR)=     -100.18635459     Delta=-1.63D-04
 NORM(A)=   0.10212767D+01
 Iteration Nr.   5
 **********************
 DD1Dir will call FoFMem   1 times, MxPair=        20
 NAB=    10 NAA=     0 NBB=     0.
 DE(Corr)= -0.18354235     E(CORR)=     -100.18636226     Delta=-7.67D-06
 NORM(A)=   0.10212799D+01
 Iteration Nr.   6
 **********************
 DD1Dir will call FoFMem   1 times, MxPair=        20
 NAB=    10 NAA=     0 NBB=     0.
 DE(Corr)= -0.18354292     E(CORR)=     -100.18636282     Delta=-5.61D-07
 NORM(A)=   0.10212806D+01
 Iteration Nr.   7
 **********************
 DD1Dir will call FoFMem   1 times, MxPair=        20
 NAB=    10 NAA=     0 NBB=     0.
 DE(Corr)= -0.18354279     E(CORR)=     -100.18636270     Delta= 1.25D-07
 NORM(A)=   0.10212808D+01
 Iteration Nr.   8
 **********************
 DD1Dir will call FoFMem   1 times, MxPair=        20
 NAB=    10 NAA=     0 NBB=     0.
 DE(Corr)= -0.18354275     E(CORR)=     -100.18636266     Delta= 4.00D-08
 NORM(A)=   0.10212808D+01
 Largest amplitude= 4.63D-02
 Time for triples=        0.01 seconds.
 T4(CCSD)= -0.19071566D-02
 T5(CCSD)=  0.21310925D-03
 CCSD(T)= -0.10018805670D+03
 Discarding MO integrals.

 **********************************************************************

            Population analysis using the SCF density.

 **********************************************************************

 Orbital symmetries:
       Occupied  (SG) (SG) (SG) (PI) (PI)
       Virtual   (SG) (SG) (SG) (PI) (PI) (SG) (PI) (PI) (DLTA)
                 (DLTA) (SG) (SG)
 The electronic state is 1-SG.
 Alpha  occ. eigenvalues --  -26.27873  -1.57965  -0.74407  -0.62828  -0.62828
 Alpha virt. eigenvalues --    0.21641   1.09737   1.33476   1.49076   1.49076
 Alpha virt. eigenvalues --    1.75336   2.08787   2.08787   2.15595   2.15595
 Alpha virt. eigenvalues --    2.97643   4.07527
          Condensed to atoms (all electrons):
               1          2
     1  F    9.294489   0.222459
     2  H    0.222459   0.260594
 Mulliken charges:
               1
     1  F   -0.516948
     2  H    0.516948
 Sum of Mulliken charges =   0.00000
 Mulliken charges with hydrogens summed into heavy atoms:
               1
     1  F    0.000000
 Electronic spatial extent (au):  <R**2>=             13.2254
 Charge=              0.0000 electrons
 Dipole moment (field-independent basis, Debye):
    X=              0.0000    Y=              0.0000    Z=             -1.9871  Tot=              1.9871
 Quadrupole moment (field-independent basis, Debye-Ang):
   XX=             -5.4015   YY=             -5.4015   ZZ=             -3.3309
   XY=              0.0000   XZ=              0.0000   YZ=              0.0000
 Traceless Quadrupole moment (field-independent basis, Debye-Ang):
   XX=             -0.6902   YY=             -0.6902   ZZ=              1.3804
   XY=              0.0000   XZ=              0.0000   YZ=              0.0000
 Octapole moment (field-independent basis, Debye-Ang**2):
  XXX=              0.0000  YYY=              0.0000  ZZZ=             -1.8997  XYY=              0.0000
  XXY=              0.0000  XXZ=             -0.1703  XZZ=              0.0000  YZZ=              0.0000
  YYZ=             -0.1703  XYZ=              0.0000
 Hexadecapole moment (field-independent basis, Debye-Ang**3):
 XXXX=             -2.8960 YYYY=             -2.8960 ZZZZ=             -2.6835 XXXY=              0.0000
 XXXZ=              0.0000 YYYX=              0.0000 YYYZ=              0.0000 ZZZX=              0.0000
 ZZZY=              0.0000 XXYY=             -0.9653 XXZZ=             -1.1668 YYZZ=             -1.1668
 XXYZ=              0.0000 YYXZ=              0.0000 ZZXY=              0.0000
 N-N= 5.179807633857D+00 E-N=-2.504841326026D+02  KE= 9.983690602424D+01
 Symmetry A1   KE= 8.715720349146D+01
 Symmetry A2   KE= 5.503362530810D-51
 Symmetry B1   KE= 6.339851266386D+00
 Symmetry B2   KE= 6.339851266386D+00
 1\1\GINC-TATANKA\SP\RCCSD(T)\GTBas1\F1H1\IAWAD\09-Mar-2017\0\\#N Geom=
 AllCheck Guess=TCheck SCRF=Check CCSD(T,E4T,FrzG4)/GTBas1\\FH.LOG\\0,1
 \F,0,0.,0.,0.0895670028\H,0,0.,0.,-0.8298870028\\Version=ES64L-G09RevD
 .01\State=1-SG\HF=-100.0028199\MP2=-100.1819414\MP3=-100.1837017\MP4D=
 -100.1860307\MP4DQ=-100.1854708\MP4SDTQ=-100.1881758\MP4SDQ=-100.18637
 05\CCSD=-100.1863627\CCSD(T)=-100.1880567\RMSD=1.306e-09\PG=C*V [C*(H1
 F1)]\\@


 BE NOT THE FIRST BY WHOM THE NEW ARE TRIED,
 NOR YET THE THE LAST TO LAY THE OLD ASIDE.

                          -- ALEXANDER POPE
 Job cpu time:       0 days  0 hours  0 minutes  1.4 seconds.
 File lengths (MBytes):  RWF=     82 Int=      0 D2E=      0 Chk=      2 Scr=      2
 Normal termination of Gaussian 09 at Thu Mar  9 16:39:07 2017.
 Link1:  Proceeding to internal job step number  4.
 ---------------------------------------------------------
 #N Geom=AllCheck Guess=TCheck SCRF=Check MP4=FrzG4/GTBas2
 ---------------------------------------------------------
 1/29=7,38=1,40=1/1;
 2/12=2,40=1/2;
 3/5=34,11=9,14=-4,16=1,25=1,30=1,70=2,116=-2/1,2,3;
 4/5=101/1;
 5/5=2/2;
 8/6=4,9=120000,10=6/1,4;
 9/5=5/13;
 6/7=2,8=2,9=2,10=2/1;
 99/5=1,9=1/99;
 Structure from the checkpoint file:  "/home/iawad/Gau-21497.chk"
 ------
 FH.LOG
 ------
 Charge =  0 Multiplicity = 1
 Redundant internal coordinates found in file.
 F,0,0.,0.,0.0895670028
 H,0,0.,0.,-0.8298870028
 Recover connectivity data from disk.
                          Input orientation:                          
 ---------------------------------------------------------------------
 Center     Atomic      Atomic             Coordinates (Angstroms)
 Number     Number       Type             X           Y           Z
 ---------------------------------------------------------------------
      1          9           0        0.000000    0.000000    0.089567
      2          1           0        0.000000    0.000000   -0.829887
 ---------------------------------------------------------------------
 Stoichiometry    FH
 Framework group  C*V[C*(HF)]
 Deg. of freedom     1
 Full point group                 C*V     NOp   4
 Largest Abelian subgroup         C2V     NOp   4
 Largest concise Abelian subgroup C1      NOp   1
                         Standard orientation:                         
 ---------------------------------------------------------------------
 Center     Atomic      Atomic             Coordinates (Angstroms)
 Number     Number       Type             X           Y           Z
 ---------------------------------------------------------------------
      1          9           0        0.000000    0.000000    0.091945
      2          1           0        0.000000    0.000000   -0.827509
 ---------------------------------------------------------------------
 Rotational constants (GHZ):      0.0000000    624.6261372    624.6261372
 Standard basis: GTBas2 (6D, 7F)
 There are    12 symmetry adapted cartesian basis functions of A1  symmetry.
 There are     1 symmetry adapted cartesian basis functions of A2  symmetry.
 There are     4 symmetry adapted cartesian basis functions of B1  symmetry.
 There are     4 symmetry adapted cartesian basis functions of B2  symmetry.
 There are    12 symmetry adapted basis functions of A1  symmetry.
 There are     1 symmetry adapted basis functions of A2  symmetry.
 There are     4 symmetry adapted basis functions of B1  symmetry.
 There are     4 symmetry adapted basis functions of B2  symmetry.
    21 basis functions,    36 primitive gaussians,    21 cartesian basis functions
     5 alpha electrons        5 beta electrons
       nuclear repulsion energy         5.1798076339 Hartrees.
 NAtoms=    2 NActive=    2 NUniq=    2 SFac= 1.00D+00 NAtFMM=   60 NAOKFM=F Big=F
 Integral buffers will be    131072 words long.
 Raffenetti 1 integral format.
 Two-electron integral symmetry is turned on.
 One-electron integrals computed using PRISM.
 NBasis=    21 RedAO= T EigKep=  1.45D-02  NBF=    12     1     4     4
 NBsUse=    21 1.00D-06 EigRej= -1.00D+00 NBFU=    12     1     4     4
 Initial guess from the checkpoint file:  "/home/iawad/Gau-21497.chk"
 B after Tr=     0.000000    0.000000    0.000000
         Rot=    1.000000    0.000000    0.000000    0.000000 Ang=   0.00 deg.
 Initial guess orbital symmetries:
       Occupied  (SG) (SG) (SG) (PI) (PI)
       Virtual   (SG) (SG) (SG) (PI) (PI) (SG) (PI) (PI) (DLTA)
                 (DLTA) (SG) (SG) (SG) (SG) (PI) (PI)
 Keep R1 ints in memory in symmetry-blocked form, NReq=873564.
 Requested convergence on RMS density matrix=1.00D-08 within 128 cycles.
 Requested convergence on MAX density matrix=1.00D-06.
 Requested convergence on             energy=1.00D-06.
 No special actions if energy rises.
 SCF Done:  E(RHF) =  -100.014827928     A.U. after    9 cycles
            NFock=  9  Conv=0.74D-08     -V/T= 2.0032
 ExpMin= 1.08D-01 ExpMax= 7.00D+03 ExpMxC= 1.05D+03 IAcc=3 IRadAn=         5 AccDes= 0.00D+00
 HarFok:  IExCor=  205 AccDes= 0.00D+00 IRadAn=         5 IDoV=-2 UseB2=F ITyADJ=14
 ICtDFT= 12500011 ScaDFX=  1.000000  1.000000  1.000000  1.000000
 Range of M.O.s used for correlation:     2    21
 NBasis=    21 NAE=     5 NBE=     5 NFC=     1 NFV=     0
 NROrb=     20 NOA=     4 NOB=     4 NVA=    16 NVB=    16
 Semi-Direct transformation.
 ModeAB=           2 MOrb=             4 LenV=     104691955
 LASXX=         3548 LTotXX=        3548 LenRXX=        3548
 LTotAB=        4302 MaxLAS=       18480 LenRXY=       18480
 NonZer=       21120 LenScr=      655360 LnRSAI=           0
 LnScr1=           0 LExtra=           0 Total=       677388
 MaxDsk=          -1 SrtSym=           F ITran=            4
 JobTyp=0 Pass  1:  I=   1 to   4.
 (rs|ai) integrals will be sorted in core.
 Spin components of T(2) and E(2):
     alpha-alpha T2 =       0.5959178538D-02 E2=     -0.2553368522D-01
     alpha-beta  T2 =       0.3175042337D-01 E2=     -0.1365403393D+00
     beta-beta   T2 =       0.5959178538D-02 E2=     -0.2553368522D-01
 ANorm=    0.1021601087D+01
 E2 =    -0.1876077098D+00 EUMP2 =    -0.10020243563769D+03
 Keep R2 and R3 ints in memory in symmetry-blocked form, NReq=849241.
 DD1Dir will call FoFMem   1 times, MxPair=        20
 NAB=    10 NAA=     0 NBB=     0.
 MP4(D)= -0.27984571D-02
 MP4(S)= -0.21663907D-02
 MP4(R+Q)=  0.48292285D-03
 Time for triples=        0.02 seconds.
 MP4(T)=   -0.30203988D-02
 E3=        0.86567499D-03        EUMP3=      -0.10020156996D+03
 E4(DQ)=   -0.23155342D-02        UMP4(DQ)=   -0.10020388550D+03
 E4(SDQ)=  -0.44819249D-02        UMP4(SDQ)=  -0.10020605189D+03
 E4(SDTQ)= -0.75023237D-02        UMP4(SDTQ)= -0.10020907229D+03
 Largest amplitude= 3.29D-02
 Discarding MO integrals.

 **********************************************************************

            Population analysis using the SCF density.

 **********************************************************************

 Orbital symmetries:
       Occupied  (SG) (SG) (SG) (PI) (PI)
       Virtual   (SG) (SG) (PI) (PI) (SG) (SG) (PI) (PI) (SG) (SG)
                 (PI) (PI) (DLTA) (DLTA) (SG) (SG)
 The electronic state is 1-SG.
 Alpha  occ. eigenvalues --  -26.31404  -1.60522  -0.76940  -0.65098  -0.65098
 Alpha virt. eigenvalues --    0.18997   0.30659   0.31088   0.31088   0.37249
 Alpha virt. eigenvalues --    1.25811   1.78058   1.78058   1.81886   1.85759
 Alpha virt. eigenvalues --    2.06967   2.06967   2.13503   2.13503   3.02358
 Alpha virt. eigenvalues --    4.61671
          Condensed to atoms (all electrons):
               1          2
     1  F    9.383626   0.188571
     2  H    0.188571   0.239233
 Mulliken charges:
               1
     1  F   -0.572196
     2  H    0.572196
 Sum of Mulliken charges =   0.00000
 Mulliken charges with hydrogens summed into heavy atoms:
               1
     1  F    0.000000
 Electronic spatial extent (au):  <R**2>=             13.8499
 Charge=              0.0000 electrons
 Dipole moment (field-independent basis, Debye):
    X=              0.0000    Y=              0.0000    Z=             -2.0913  Tot=              2.0913
 Quadrupole moment (field-independent basis, Debye-Ang):
   XX=             -5.7396   YY=             -5.7396   ZZ=             -3.4950
   XY=              0.0000   XZ=              0.0000   YZ=              0.0000
 Traceless Quadrupole moment (field-independent basis, Debye-Ang):
   XX=             -0.7482   YY=             -0.7482   ZZ=              1.4964
   XY=              0.0000   XZ=              0.0000   YZ=              0.0000
 Octapole moment (field-independent basis, Debye-Ang**2):
  XXX=              0.0000  YYY=              0.0000  ZZZ=             -2.1201  XYY=              0.0000
  XXY=              0.0000  XXZ=             -0.2444  XZZ=              0.0000  YZZ=              0.0000
  YYZ=             -0.2444  XYZ=              0.0000
 Hexadecapole moment (field-independent basis, Debye-Ang**3):
 XXXX=             -3.7567 YYYY=             -3.7567 ZZZZ=             -3.0614 XXXY=              0.0000
 XXXZ=              0.0000 YYYX=              0.0000 YYYZ=              0.0000 ZZZX=              0.0000
 ZZZY=              0.0000 XXYY=             -1.2522 XXZZ=             -1.3777 YYZZ=             -1.3777
 XXYZ=              0.0000 YYXZ=              0.0000 ZZXY=              0.0000
 N-N= 5.179807633857D+00 E-N=-2.501054818509D+02  KE= 9.969746812604D+01
 Symmetry A1   KE= 8.716057236563D+01
 Symmetry A2   KE= 3.302017518486D-50
 Symmetry B1   KE= 6.268447880206D+00
 Symmetry B2   KE= 6.268447880206D+00
 1\1\GINC-TATANKA\SP\RMP4SDTQ\GTBas2\F1H1\IAWAD\09-Mar-2017\0\\#N Geom=
 AllCheck Guess=TCheck SCRF=Check MP4=FrzG4/GTBas2\\FH.LOG\\0,1\F,0,0.,
 0.,0.0895670028\H,0,0.,0.,-0.8298870028\\Version=ES64L-G09RevD.01\Stat
 e=1-SG\HF=-100.0148279\MP2=-100.2024356\MP3=-100.20157\MP4D=-100.20436
 84\MP4DQ=-100.2038855\MP4SDQ=-100.2060519\MP4SDTQ=-100.2090723\RMSD=7.
 373e-09\PG=C*V [C*(H1F1)]\\@



 WE LOSE BECAUSE WE WIN

 GAMBLERS,

 RECOLLECTING WHICH,

 TOSS THEIR DICE AGAIN....


                          EMILY DICKINSON  BOLTS OF MELODY NO. 533
 Job cpu time:       0 days  0 hours  0 minutes  1.1 seconds.
 File lengths (MBytes):  RWF=     82 Int=      0 D2E=      0 Chk=      2 Scr=      2
 Normal termination of Gaussian 09 at Thu Mar  9 16:39:08 2017.
 Link1:  Proceeding to internal job step number  5.
 ---------------------------------------------------------
 #N Geom=AllCheck Guess=TCheck SCRF=Check MP4=FrzG4/GTBas3
 ---------------------------------------------------------
 1/29=7,38=1,40=1/1;
 2/12=2,40=1/2;
 3/5=35,11=9,14=-4,16=1,25=1,30=1,70=2,116=-2/1,2,3;
 4/5=101/1;
 5/5=2/2;
 8/6=4,9=120000,10=6/1,4;
 9/5=5/13;
 6/7=2,8=2,9=2,10=2/1;
 99/5=1,9=1/99;
 Structure from the checkpoint file:  "/home/iawad/Gau-21497.chk"
 ------
 FH.LOG
 ------
 Charge =  0 Multiplicity = 1
 Redundant internal coordinates found in file.
 F,0,0.,0.,0.0895670028
 H,0,0.,0.,-0.8298870028
 Recover connectivity data from disk.
                          Input orientation:                          
 ---------------------------------------------------------------------
 Center     Atomic      Atomic             Coordinates (Angstroms)
 Number     Number       Type             X           Y           Z
 ---------------------------------------------------------------------
      1          9           0        0.000000    0.000000    0.089567
      2          1           0        0.000000    0.000000   -0.829887
 ---------------------------------------------------------------------
 Stoichiometry    FH
 Framework group  C*V[C*(HF)]
 Deg. of freedom     1
 Full point group                 C*V     NOp   4
 Largest Abelian subgroup         C2V     NOp   4
 Largest concise Abelian subgroup C1      NOp   1
                         Standard orientation:                         
 ---------------------------------------------------------------------
 Center     Atomic      Atomic             Coordinates (Angstroms)
 Number     Number       Type             X           Y           Z
 ---------------------------------------------------------------------
      1          9           0        0.000000    0.000000    0.091945
      2          1           0        0.000000    0.000000   -0.827509
 ---------------------------------------------------------------------
 Rotational constants (GHZ):      0.0000000    624.6261372    624.6261372
 Standard basis: GTBas3 (6D, 7F)
 There are    17 symmetry adapted cartesian basis functions of A1  symmetry.
 There are     3 symmetry adapted cartesian basis functions of A2  symmetry.
 There are     8 symmetry adapted cartesian basis functions of B1  symmetry.
 There are     8 symmetry adapted cartesian basis functions of B2  symmetry.
 There are    16 symmetry adapted basis functions of A1  symmetry.
 There are     3 symmetry adapted basis functions of A2  symmetry.
 There are     7 symmetry adapted basis functions of B1  symmetry.
 There are     7 symmetry adapted basis functions of B2  symmetry.
    33 basis functions,    51 primitive gaussians,    36 cartesian basis functions
     5 alpha electrons        5 beta electrons
       nuclear repulsion energy         5.1798076339 Hartrees.
 NAtoms=    2 NActive=    2 NUniq=    2 SFac= 1.00D+00 NAtFMM=   60 NAOKFM=F Big=F
 Integral buffers will be    131072 words long.
 Raffenetti 1 integral format.
 Two-electron integral symmetry is turned on.
 One-electron integrals computed using PRISM.
 NBasis=    33 RedAO= T EigKep=  1.88D-02  NBF=    16     3     7     7
 NBsUse=    33 1.00D-06 EigRej= -1.00D+00 NBFU=    16     3     7     7
 Initial guess from the checkpoint file:  "/home/iawad/Gau-21497.chk"
 B after Tr=     0.000000    0.000000    0.000000
         Rot=    1.000000    0.000000    0.000000    0.000000 Ang=   0.00 deg.
 Initial guess orbital symmetries:
       Occupied  (SG) (SG) (SG) (PI) (PI)
       Virtual   (SG) (SG) (PI) (PI) (SG) (SG) (PI) (PI) (SG) (SG)
                 (PI) (PI) (DLTA) (DLTA) (SG) (SG) (SG) (SG) (DLTA)
                 (DLTA) (DLTA) (DLTA) (PI) (PI) (PHI) (PI) (PI)
                 (PHI)
 Keep R1 ints in memory in symmetry-blocked form, NReq=2132302.
 Requested convergence on RMS density matrix=1.00D-08 within 128 cycles.
 Requested convergence on MAX density matrix=1.00D-06.
 Requested convergence on             energy=1.00D-06.
 No special actions if energy rises.
 SCF Done:  E(RHF) =  -100.015156937     A.U. after    9 cycles
            NFock=  9  Conv=0.15D-08     -V/T= 1.9999
 ExpMin= 1.61D-01 ExpMax= 7.00D+03 ExpMxC= 1.05D+03 IAcc=3 IRadAn=         5 AccDes= 0.00D+00
 HarFok:  IExCor=  205 AccDes= 0.00D+00 IRadAn=         5 IDoV=-2 UseB2=F ITyADJ=14
 ICtDFT= 12500011 ScaDFX=  1.000000  1.000000  1.000000  1.000000
 Range of M.O.s used for correlation:     2    33
 NBasis=    33 NAE=     5 NBE=     5 NFC=     1 NFV=     0
 NROrb=     32 NOA=     4 NOB=     4 NVA=    28 NVB=    28
 Semi-Direct transformation.
 ModeAB=           2 MOrb=             4 LenV=     104628403
 LASXX=        15026 LTotXX=       15026 LenRXX=       15026
 LTotAB=       16852 MaxLAS=       85248 LenRXY=       85248
 NonZer=       96768 LenScr=      655360 LnRSAI=           0
 LnScr1=           0 LExtra=           0 Total=       755634
 MaxDsk=          -1 SrtSym=           F ITran=            4
 JobTyp=0 Pass  1:  I=   1 to   4.
 (rs|ai) integrals will be sorted in core.
 Spin components of T(2) and E(2):
     alpha-alpha T2 =       0.5990491950D-02 E2=     -0.3043007584D-01
     alpha-beta  T2 =       0.3359881137D-01 E2=     -0.1776777616D+00
     beta-beta   T2 =       0.5990491950D-02 E2=     -0.3043007584D-01
 ANorm=    0.1022535963D+01
 E2 =    -0.2385379133D+00 EUMP2 =    -0.10025369485068D+03
 Keep R2 and R3 ints in memory in symmetry-blocked form, NReq=2101198.
 DD1Dir will call FoFMem   1 times, MxPair=        20
 NAB=    10 NAA=     0 NBB=     0.
 MP4(D)= -0.31356179D-02
 MP4(S)= -0.81884387D-03
 MP4(R+Q)=  0.21147666D-02
 Time for triples=        0.10 seconds.
 MP4(T)=   -0.41397442D-02
 E3=       -0.46791732D-02        EUMP3=      -0.10025837402D+03
 E4(DQ)=   -0.10208513D-02        UMP4(DQ)=   -0.10025939488D+03
 E4(SDQ)=  -0.18396951D-02        UMP4(SDQ)=  -0.10026021372D+03
 E4(SDTQ)= -0.59794393D-02        UMP4(SDTQ)= -0.10026435346D+03
 Largest amplitude= 4.20D-02
 Discarding MO integrals.

 **********************************************************************

            Population analysis using the SCF density.

 **********************************************************************

 Orbital symmetries:
       Occupied  (SG) (SG) (SG) (PI) (PI)
       Virtual   (SG) (SG) (SG) (PI) (PI) (DLTA) (DLTA) (SG) (PI)
                 (PI) (SG) (PI) (PI) (SG) (SG) (PI) (PI) (DLTA)
                 (DLTA) (SG) (DLTA) (DLTA) (PHI) (PHI) (PI) (PI)
                 (SG) (SG)
 The electronic state is 1-SG.
 Alpha  occ. eigenvalues --  -26.27118  -1.57821  -0.74246  -0.62763  -0.62763
 Alpha virt. eigenvalues --    0.21459   0.87644   0.91234   1.13262   1.13262
 Alpha virt. eigenvalues --    1.20339   1.20339   1.47182   1.49803   1.49803
 Alpha virt. eigenvalues --    2.45717   2.84929   2.84929   3.29864   4.02964
 Alpha virt. eigenvalues --    4.57866   4.57866   4.60387   4.60387   5.27986
 Alpha virt. eigenvalues --    7.14963   7.14963   7.18707   7.18707   7.51190
 Alpha virt. eigenvalues --    7.51190   8.06692   9.99852
          Condensed to atoms (all electrons):
               1          2
     1  F    9.101384   0.281257
     2  H    0.281257   0.336102
 Mulliken charges:
               1
     1  F   -0.382641
     2  H    0.382641
 Sum of Mulliken charges =   0.00000
 Mulliken charges with hydrogens summed into heavy atoms:
               1
     1  F    0.000000
 Electronic spatial extent (au):  <R**2>=             13.1954
 Charge=              0.0000 electrons
 Dipole moment (field-independent basis, Debye):
    X=              0.0000    Y=              0.0000    Z=             -1.8810  Tot=              1.8810
 Quadrupole moment (field-independent basis, Debye-Ang):
   XX=             -5.3789   YY=             -5.3789   ZZ=             -3.3359
   XY=              0.0000   XZ=              0.0000   YZ=              0.0000
 Traceless Quadrupole moment (field-independent basis, Debye-Ang):
   XX=             -0.6810   YY=             -0.6810   ZZ=              1.3620
   XY=              0.0000   XZ=              0.0000   YZ=              0.0000
 Octapole moment (field-independent basis, Debye-Ang**2):
  XXX=              0.0000  YYY=              0.0000  ZZZ=             -1.8168  XYY=              0.0000
  XXY=              0.0000  XXZ=             -0.1150  XZZ=              0.0000  YZZ=              0.0000
  YYZ=             -0.1150  XYZ=              0.0000
 Hexadecapole moment (field-independent basis, Debye-Ang**3):
 XXXX=             -2.8901 YYYY=             -2.8901 ZZZZ=             -2.6958 XXXY=              0.0000
 XXXZ=              0.0000 YYYX=              0.0000 YYYZ=              0.0000 ZZZX=              0.0000
 ZZZY=              0.0000 XXYY=             -0.9634 XXZZ=             -1.1790 YYZZ=             -1.1790
 XXYZ=              0.0000 YYXZ=              0.0000 ZZXY=              0.0000
 N-N= 5.179807633857D+00 E-N=-2.507176150406D+02  KE= 1.000218822251D+02
 Symmetry A1   KE= 8.737679155124D+01
 Symmetry A2   KE=-1.269650562632D-50
 Symmetry B1   KE= 6.322545336946D+00
 Symmetry B2   KE= 6.322545336946D+00
 1\1\GINC-TATANKA\SP\RMP4SDTQ\GTBas3\F1H1\IAWAD\09-Mar-2017\0\\#N Geom=
 AllCheck Guess=TCheck SCRF=Check MP4=FrzG4/GTBas3\\FH.LOG\\0,1\F,0,0.,
 0.,0.0895670028\H,0,0.,0.,-0.8298870028\\Version=ES64L-G09RevD.01\Stat
 e=1-SG\HF=-100.0151569\MP2=-100.2536949\MP3=-100.258374\MP4D=-100.2615
[...]
 Stoichiometry    FH
 Framework group  C*V[C*(HF)]
 Deg. of freedom     1
 Full point group                 C*V     NOp   4
 Largest Abelian subgroup         C2V     NOp   4
 Largest concise Abelian subgroup C1      NOp   1
                         Standard orientation:                         
 ---------------------------------------------------------------------
 Center     Atomic      Atomic             Coordinates (Angstroms)
 Number     Number       Type             X           Y           Z
 ---------------------------------------------------------------------
      1          9           0        0.000000    0.000000    0.091945
      2          1           0        0.000000    0.000000   -0.827509
 ---------------------------------------------------------------------
 Rotational constants (GHZ):      0.0000000    624.6261372    624.6261372
 Standard basis: GFHFB1 (5D, 7F)
 There are    41 symmetry adapted cartesian basis functions of A1  symmetry.
 There are     9 symmetry adapted cartesian basis functions of A2  symmetry.
 There are    20 symmetry adapted cartesian basis functions of B1  symmetry.
 There are    20 symmetry adapted cartesian basis functions of B2  symmetry.
 There are    32 symmetry adapted basis functions of A1  symmetry.
 There are     8 symmetry adapted basis functions of A2  symmetry.
 There are    17 symmetry adapted basis functions of B1  symmetry.
 There are    17 symmetry adapted basis functions of B2  symmetry.
    74 basis functions,   111 primitive gaussians,    90 cartesian basis functions
     5 alpha electrons        5 beta electrons
       nuclear repulsion energy         5.1798076339 Hartrees.
 NAtoms=    2 NActive=    2 NUniq=    2 SFac= 1.00D+00 NAtFMM=   60 NAOKFM=F Big=F
 Integral buffers will be    131072 words long.
 Raffenetti 1 integral format.
 Two-electron integral symmetry is turned on.
 One-electron integrals computed using PRISM.
 NBasis=    74 RedAO= T EigKep=  2.78D-03  NBF=    32     8    17    17
 NBsUse=    74 1.00D-06 EigRej= -1.00D+00 NBFU=    32     8    17    17
 Initial guess from the checkpoint file:  "/home/iawad/Gau-21497.chk"
 B after Tr=     0.000000    0.000000    0.000000
         Rot=    1.000000    0.000000    0.000000    0.000000 Ang=   0.00 deg.
 Initial guess orbital symmetries:
       Occupied  (SG) (SG) (SG) (PI) (PI)
       Virtual   (SG) (SG) (PI) (PI) (SG) (SG) (SG) (PI) (PI) (DLTA)
                 (DLTA) (SG) (PI) (PI) (SG) (PI) (PI) (SG) (SG)
                 (SG) (PI) (PI) (SG) (DLTA) (DLTA) (PI) (PI) (SG)
                 (PI) (PI) (DLTA) (DLTA) (PHI) (PHI) (SG) (PI)
                 (PI) (SG) (DLTA) (DLTA) (PI) (PI) (SG) (PI) (PI)
                 (SG) (DLTA) (DLTA) (PI) (PI) (SG) (SG) (SG) (DLTA)
                 (DLTA) (SG) (SG) (?A) (DLTA) (DLTA) (?A) (PI)
                 (PI) (PHI) (PHI) (PI) (PI) (PHI) (PHI)
 Keep R1 ints in memory in symmetry-blocked form, NReq=8440208.
 Requested convergence on RMS density matrix=1.00D-08 within 128 cycles.
 Requested convergence on MAX density matrix=1.00D-06.
 Requested convergence on             energy=1.00D-06.
 No special actions if energy rises.
 SCF Done:  E(RHF) =  -100.067978257     A.U. after    8 cycles
            NFock=  8  Conv=0.46D-08     -V/T= 2.0006

 **********************************************************************

            Population analysis using the SCF density.

 **********************************************************************

 Orbital symmetries:
       Occupied  (SG) (SG) (SG) (PI) (PI)
       Virtual   (SG) (SG) (PI) (PI) (SG) (SG) (SG) (PI) (PI) (PI)
                 (PI) (SG) (SG) (SG) (DLTA) (DLTA) (PI) (PI) (SG)
                 (PI) (PI) (DLTA) (DLTA) (PI) (PI) (SG) (SG) (PI)
                 (PI) (PHI) (PHI) (SG) (DLTA) (DLTA) (SG) (DLTA)
                 (DLTA) (PI) (PI) (SG) (PI) (PI) (SG) (SG) (PHI)
                 (PHI) (?A) (?A) (DLTA) (DLTA) (PI) (PI) (SG) (PI)
                 (PI) (SG) (PHI) (PHI) (DLTA) (DLTA) (PI) (PI)
                 (SG) (DLTA) (DLTA) (PI) (PI) (SG) (SG)
 The electronic state is 1-SG.
 Alpha  occ. eigenvalues --  -26.29574  -1.60057  -0.76724  -0.65020  -0.65020
 Alpha virt. eigenvalues --    0.11233   0.16362   0.17304   0.17304   0.29852
 Alpha virt. eigenvalues --    0.52512   0.79403   0.86405   0.86405   0.91456
 Alpha virt. eigenvalues --    0.91456   1.24646   1.47635   1.53652   1.60804
 Alpha virt. eigenvalues --    1.60804   1.93361   1.93361   2.35050   3.38300
 Alpha virt. eigenvalues --    3.38300   3.45863   3.45863   3.73719   3.73719
 Alpha virt. eigenvalues --    3.73795   4.25420   4.26160   4.26160   4.54756
 Alpha virt. eigenvalues --    4.54756   4.78760   4.97294   4.97294   5.02150
 Alpha virt. eigenvalues --    5.41000   5.41000   5.59323   5.59323   6.01050
 Alpha virt. eigenvalues --    6.40338   6.40338   7.48094   9.39685  11.95766
 Alpha virt. eigenvalues --   11.95766  11.98613  11.98613  12.12707  12.12707
 Alpha virt. eigenvalues --   12.64834  12.64834  12.93764  13.11164  13.11164
 Alpha virt. eigenvalues --   13.76090  15.24222  15.24222  15.34635  15.34635
 Alpha virt. eigenvalues --   15.82788  15.82788  16.16923  16.46867  16.46867
 Alpha virt. eigenvalues --   16.67428  16.67428  18.03652  54.27702
          Condensed to atoms (all electrons):
               1          2
     1  F    9.059394   0.280404
     2  H    0.280404   0.379797
 Mulliken charges:
               1
     1  F   -0.339799
     2  H    0.339799
 Sum of Mulliken charges =   0.00000
 Mulliken charges with hydrogens summed into heavy atoms:
               1
     1  F    0.000000
 Electronic spatial extent (au):  <R**2>=             13.8030
 Charge=              0.0000 electrons
 Dipole moment (field-independent basis, Debye):
    X=              0.0000    Y=              0.0000    Z=             -1.9550  Tot=              1.9550
 Quadrupole moment (field-independent basis, Debye-Ang):
   XX=             -5.6873   YY=             -5.6873   ZZ=             -3.5363
   XY=              0.0000   XZ=              0.0000   YZ=              0.0000
 Traceless Quadrupole moment (field-independent basis, Debye-Ang):
   XX=             -0.7170   YY=             -0.7170   ZZ=              1.4340
   XY=              0.0000   XZ=              0.0000   YZ=              0.0000
 Octapole moment (field-independent basis, Debye-Ang**2):
  XXX=              0.0000  YYY=              0.0000  ZZZ=             -2.0023  XYY=              0.0000
  XXY=              0.0000  XXZ=             -0.1695  XZZ=              0.0000  YZZ=              0.0000
  YYZ=             -0.1695  XYZ=              0.0000
 Hexadecapole moment (field-independent basis, Debye-Ang**3):
 XXXX=             -3.7724 YYYY=             -3.7724 ZZZZ=             -3.1959 XXXY=              0.0000
 XXXZ=              0.0000 YYYX=              0.0000 YYYZ=              0.0000 ZZZX=              0.0000
 ZZZY=              0.0000 XXYY=             -1.2575 XXZZ=             -1.4298 YYZZ=             -1.4298
 XXYZ=              0.0000 YYXZ=              0.0000 ZZXY=              0.0000
 N-N= 5.179807633857D+00 E-N=-2.505804272514D+02  KE= 1.000127340545D+02
 Symmetry A1   KE= 8.745675565779D+01
 Symmetry A2   KE= 4.679577764437D-52
 Symmetry B1   KE= 6.277989198381D+00
 Symmetry B2   KE= 6.277989198381D+00
 1\1\GINC-TATANKA\SP\RHF\GFHFB1\F1H1\IAWAD\09-Mar-2017\0\\#N Geom=AllCh
 eck Guess=TCheck SCRF=Check HF/GFHFB1 SCF=Tight\\FH.LOG\\0,1\F,0,0.,0.
 ,0.0895670028\H,0,0.,0.,-0.8298870028\\Version=ES64L-G09RevD.01\State=
 1-SG\HF=-100.0679783\RMSD=4.582e-09\Dipole=0.,0.,-0.7691685\Quadrupole
 =-0.5330695,-0.5330695,1.0661389,0.,0.,0.\PG=C*V [C*(H1F1)]\\@


 IF AT FIRST YOU DON'T SUCCEED, TRY, TRY AGAIN.
 THEN GIVE UP;
 THERE'S NO USE BEING A DAMN FOOL ABOUT IT.

                                 -- W. C. FIELDS
 Job cpu time:       0 days  0 hours  0 minutes  2.5 seconds.
 File lengths (MBytes):  RWF=     82 Int=      0 D2E=      0 Chk=      2 Scr=      2
 Normal termination of Gaussian 09 at Thu Mar  9 16:39:15 2017.
 Link1:  Proceeding to internal job step number  8.
 ------------------------------------------------------------
 #N Geom=AllCheck Guess=TCheck SCRF=Check HF/GFHFB2 SCF=Tight
 ------------------------------------------------------------
 1/29=7,38=1,40=1/1;
 2/12=2,40=1/2;
 3/5=37,11=9,14=-4,16=1,25=1,30=1,70=2,116=-2/1,2,3;
 4/5=101/1;
 5/5=2,32=2/2;
 6/7=2,8=2,9=2,10=2,28=1/1;
 99/5=1,9=1/99;
 Structure from the checkpoint file:  "/home/iawad/Gau-21497.chk"
 ------
 FH.LOG
 ------
 Charge =  0 Multiplicity = 1
 Redundant internal coordinates found in file.
 F,0,0.,0.,0.0895670028
 H,0,0.,0.,-0.8298870028
 Recover connectivity data from disk.
                          Input orientation:                          
 ---------------------------------------------------------------------
 Center     Atomic      Atomic             Coordinates (Angstroms)
 Number     Number       Type             X           Y           Z
 ---------------------------------------------------------------------
      1          9           0        0.000000    0.000000    0.089567
      2          1           0        0.000000    0.000000   -0.829887
 ---------------------------------------------------------------------
 Stoichiometry    FH
 Framework group  C*V[C*(HF)]
 Deg. of freedom     1
 Full point group                 C*V     NOp   4
 Largest Abelian subgroup         C2V     NOp   4
 Largest concise Abelian subgroup C1      NOp   1
                         Standard orientation:                         
 ---------------------------------------------------------------------
 Center     Atomic      Atomic             Coordinates (Angstroms)
 Number     Number       Type             X           Y           Z
 ---------------------------------------------------------------------
      1          9           0        0.000000    0.000000    0.091945
      2          1           0        0.000000    0.000000   -0.827509
 ---------------------------------------------------------------------
 Rotational constants (GHZ):      0.0000000    624.6261372    624.6261372
 Standard basis: GFHFB2 (5D, 7F)
 There are    66 symmetry adapted cartesian basis functions of A1  symmetry.
 There are    18 symmetry adapted cartesian basis functions of A2  symmetry.
 There are    36 symmetry adapted cartesian basis functions of B1  symmetry.
 There are    36 symmetry adapted cartesian basis functions of B2  symmetry.
 There are    48 symmetry adapted basis functions of A1  symmetry.
 There are    15 symmetry adapted basis functions of A2  symmetry.
 There are    28 symmetry adapted basis functions of B1  symmetry.
 There are    28 symmetry adapted basis functions of B2  symmetry.
   119 basis functions,   182 primitive gaussians,   156 cartesian basis functions
     5 alpha electrons        5 beta electrons
       nuclear repulsion energy         5.1798076339 Hartrees.
 NAtoms=    2 NActive=    2 NUniq=    2 SFac= 1.00D+00 NAtFMM=   60 NAOKFM=F Big=F
 Integral buffers will be    131072 words long.
 Raffenetti 1 integral format.
 Two-electron integral symmetry is turned on.
 One-electron integrals computed using PRISM.
 NBasis=   119 RedAO= T EigKep=  5.23D-04  NBF=    48    15    28    28
 NBsUse=   119 1.00D-06 EigRej= -1.00D+00 NBFU=    48    15    28    28
 Initial guess from the checkpoint file:  "/home/iawad/Gau-21497.chk"
 B after Tr=     0.000000    0.000000    0.000000
         Rot=    1.000000    0.000000    0.000000    0.000000 Ang=   0.00 deg.
 Initial guess orbital symmetries:
       Occupied  (SG) (SG) (SG) (PI) (PI)
       Virtual   (SG) (SG) (PI) (PI) (SG) (SG) (SG) (PI) (PI) (PI)
                 (PI) (SG) (SG) (SG) (DLTA) (DLTA) (PI) (PI) (SG)
                 (PI) (PI) (DLTA) (DLTA) (PI) (PI) (SG) (SG) (PI)
                 (PI) (PHI) (PHI) (SG) (DLTA) (DLTA) (SG) (DLTA)
                 (DLTA) (PI) (PI) (SG) (PI) (PI) (SG) (SG) (PHI)
                 (PHI) (?A) (?A) (DLTA) (DLTA) (PI) (PI) (SG) (PI)
                 (PI) (SG) (PHI) (PHI) (DLTA) (DLTA) (PI) (PI)
                 (SG) (DLTA) (DLTA) (PI) (PI) (SG) (SG) (SG) (DLTA)
                 (SG) (DLTA) (SG) (SG) (DLTA) (SG) (SG) (?A) (DLTA)
                 (SG) (DLTA) (SG) (SG) (?A) (DLTA) (DLTA) (DLTA)
                 (?A) (DLTA) (DLTA) (?A) (PI) (PI) (PI) (PHI) (PI)
                 (PHI) (PI) (PI) (?B) (?B) (PI) (PI) (PI) (PI)
                 (PHI) (PI) (PHI) (PI) (PI) (?B) (?B) (PI)
 Keep R1 ints in memory in symmetry-blocked form, NReq=42101204.
 Requested convergence on RMS density matrix=1.00D-08 within 128 cycles.
 Requested convergence on MAX density matrix=1.00D-06.
 Requested convergence on             energy=1.00D-06.
 No special actions if energy rises.
 SCF Done:  E(RHF) =  -100.070348624     A.U. after    7 cycles
            NFock=  7  Conv=0.95D-08     -V/T= 2.0005

 **********************************************************************

            Population analysis using the SCF density.

 **********************************************************************

 Orbital symmetries:
       Occupied  (SG) (SG) (SG) (PI) (PI)
       Virtual   (SG) (SG) (PI) (PI) (SG) (SG) (SG) (PI) (PI) (PI)
                 (PI) (SG) (SG) (SG) (DLTA) (DLTA) (PI) (PI) (SG)
                 (PI) (PI) (DLTA) (DLTA) (SG) (PI) (PI) (SG) (SG)
                 (PI) (PI) (PHI) (PHI) (DLTA) (DLTA) (SG) (DLTA)
                 (DLTA) (PI) (PI) (SG) (SG) (PI) (PI) (SG) (PI)
                 (PI) (SG) (DLTA) (DLTA) (PI) (PI) (PHI) (PHI)
                 (?A) (?A) (SG) (PI) (PI) (DLTA) (DLTA) (SG) (PHI)
                 (PHI) (DLTA) (DLTA) (PI) (PI) (SG) (PI) (PI) (DLTA)
                 (DLTA) (SG) (PI) (PI) (SG) (SG) (SG) (PHI) (PHI)
                 (?A) (?A) (?B) (?B) (DLTA) (DLTA) (PI) (PI) (SG)
                 (PI) (PI) (SG) (PHI) (PHI) (?A) (?A) (DLTA) (DLTA)
                 (PI) (PI) (SG) (PHI) (PHI) (DLTA) (DLTA) (PI)
                 (PI) (SG) (DLTA) (DLTA) (PI) (PI) (SG) (SG)
 The electronic state is 1-SG.
 Alpha  occ. eigenvalues --  -26.29462  -1.60010  -0.76719  -0.65012  -0.65012
 Alpha virt. eigenvalues --    0.07791   0.12917   0.13538   0.13538   0.28713
 Alpha virt. eigenvalues --    0.37998   0.57905   0.60530   0.60530   0.68122
 Alpha virt. eigenvalues --    0.68122   0.91534   1.06660   1.14132   1.28193
 Alpha virt. eigenvalues --    1.28193   1.55300   1.55300   1.76795   2.01401
 Alpha virt. eigenvalues --    2.01401   2.22705   2.22705   2.29699   2.37750
 Alpha virt. eigenvalues --    2.37750   2.74113   2.85138   2.91701   2.91701
 Alpha virt. eigenvalues --    3.17989   3.17989   3.55708   3.55708   3.62645
 Alpha virt. eigenvalues --    3.94937   3.94937   4.03932   4.03932   4.08659
 Alpha virt. eigenvalues --    4.60687   4.63741   4.63741   5.32636   6.00963
 Alpha virt. eigenvalues --    6.00963   7.22162   7.43066   7.43066   7.48544
 Alpha virt. eigenvalues --    7.48544   7.61729   7.61729   7.64794   7.64794
 Alpha virt. eigenvalues --    7.88850   8.36458   8.36458   8.72589   8.72589
 Alpha virt. eigenvalues --    9.14885   9.38188   9.38188   9.59318   9.59318
 Alpha virt. eigenvalues --    9.66100   9.66100   9.87742  10.56666  10.56666
 Alpha virt. eigenvalues --   10.65983  10.65983  11.07091  11.63297  11.63297
 Alpha virt. eigenvalues --   12.26659  13.82728  16.46831  18.32927  18.32927
 Alpha virt. eigenvalues --   18.35380  18.35380  18.37718  18.37718  18.53965
 Alpha virt. eigenvalues --   18.53965  19.16470  19.16470  19.39529  19.63472
 Alpha virt. eigenvalues --   19.63472  22.22516  23.74939  23.74939  23.77504
 Alpha virt. eigenvalues --   23.77504  23.90264  23.90264  24.50930  24.50930
 Alpha virt. eigenvalues --   24.67168  25.30002  25.30002  25.40525  25.40525
 Alpha virt. eigenvalues --   25.81602  25.81602  27.18909  28.67556  28.67556
 Alpha virt. eigenvalues --   29.00760  29.00760  30.53302  78.03313
          Condensed to atoms (all electrons):
               1          2
     1  F    9.159308   0.259341
     2  H    0.259341   0.322011
 Mulliken charges:
               1
     1  F   -0.418649
     2  H    0.418649
 Sum of Mulliken charges =   0.00000
 Mulliken charges with hydrogens summed into heavy atoms:
               1
     1  F    0.000000
 Electronic spatial extent (au):  <R**2>=             13.7937
 Charge=              0.0000 electrons
 Dipole moment (field-independent basis, Debye):
    X=              0.0000    Y=              0.0000    Z=             -1.9388  Tot=              1.9388
 Quadrupole moment (field-independent basis, Debye-Ang):
   XX=             -5.6832   YY=             -5.6832   ZZ=             -3.5319
   XY=              0.0000   XZ=              0.0000   YZ=              0.0000
 Traceless Quadrupole moment (field-independent basis, Debye-Ang):
   XX=             -0.7171   YY=             -0.7171   ZZ=              1.4342
   XY=              0.0000   XZ=              0.0000   YZ=              0.0000
 Octapole moment (field-independent basis, Debye-Ang**2):
  XXX=              0.0000  YYY=              0.0000  ZZZ=             -1.9788  XYY=              0.0000
  XXY=              0.0000  XXZ=             -0.1531  XZZ=              0.0000  YZZ=              0.0000
  YYZ=             -0.1531  XYZ=              0.0000
 Hexadecapole moment (field-independent basis, Debye-Ang**3):
 XXXX=             -3.7658 YYYY=             -3.7658 ZZZZ=             -3.2043 XXXY=              0.0000
 XXXZ=              0.0000 YYYX=              0.0000 YYYZ=              0.0000 ZZZX=              0.0000
 ZZZY=              0.0000 XXYY=             -1.2553 XXZZ=             -1.4291 YYZZ=             -1.4291
 XXYZ=              0.0000 YYXZ=              0.0000 ZZXY=              0.0000
 N-N= 5.179807633857D+00 E-N=-2.505964751246D+02  KE= 1.000204477263D+02
 Symmetry A1   KE= 8.746023922644D+01
 Symmetry A2   KE=-2.488565715775D-52
 Symmetry B1   KE= 6.280104249954D+00
 Symmetry B2   KE= 6.280104249954D+00
 1\1\GINC-TATANKA\SP\RHF\GFHFB2\F1H1\IAWAD\09-Mar-2017\0\\#N Geom=AllCh
 eck Guess=TCheck SCRF=Check HF/GFHFB2 SCF=Tight\\FH.LOG\\0,1\F,0,0.,0.
 ,0.0895670028\H,0,0.,0.,-0.8298870028\\Version=ES64L-G09RevD.01\State=
 1-SG\HF=-100.0703486\RMSD=9.509e-09\Dipole=0.,0.,-0.7627738\Quadrupole
 =-0.533144,-0.533144,1.066288,0.,0.,0.\PG=C*V [C*(H1F1)]\\@


 THERE ONCE WAS A GIRL NAMED IRENE,
 WHO LIVED ON DISTILLED KEROSENE,
      BUT SHE STARTED ABSORBIN'
      A NEW HYDROCARBON,
 AND SINCE THEN HAS NEVER BENZENE.
 Diagonal vibrational polarizability:
        0.0000000       0.0000000       0.0000000

 Temperature=              298.150000 Pressure=                      1.000000
 E(ZPE)=                     0.009238 E(Thermal)=                    0.011598
 E(CCSD(T))=              -100.188057 E(Empiric)=                   -0.027788
 DE(Plus)=                  -0.020896 DE(2DF)=                      -0.076178
 E(Delta-G3XP)=             -0.104245 DE(HF)=                       -0.014427
 G4(0 K)=                 -100.422354 G4 Energy=                  -100.419993
 G4 Enthalpy=             -100.419049 G4 Free Energy=             -100.438755
 1\1\GINC-TATANKA\Mixed\G4\G4\F1H1\IAWAD\09-Mar-2017\0\\# G4\\FH.LOG\\0
 ,1\F,0,0.,0.,0.0895670028\H,0,0.,0.,-0.8298870028\\Version=ES64L-G09Re
 vD.01\State=1-SG\MP2/GTBas1=-100.1819414\MP4/GTBas1=-100.1881758\CCSD(
 T)/G3Bas1=-100.1880567\MP2/GTBas2=-100.2024356\MP4/GTBas2=-100.2090723
 \MP2/GTBas3=-100.2536949\MP4/GTBas3=-100.2643535\HF/GTLargeXP=-100.056
 4991\MP2/GTLargeXP=-100.3784345\HF/GFHFB1=-100.0679783\HF/GFHFB2=-100.
 0703486\G4=-100.4223537\FreqCoord=0.,0.,0.1692571059,0.,0.,-1.56825915
 66\PG=C*V [C*(H1F1)]\NImag=0\\0.00005046,0.,0.00005046,0.,0.,0.6132636
 2,-0.00005046,0.,0.,0.00005046,0.,-0.00005046,0.,0.,0.00005046,0.,0.,-
 0.61326362,0.,0.,0.61326362\\0.,0.,-0.00000004,0.,0.,0.00000004\\\@
 Job cpu time:       0 days  0 hours  0 minutes 10.9 seconds.
 File lengths (MBytes):  RWF=     82 Int=      0 D2E=      0 Chk=      2 Scr=      2
 Normal termination of Gaussian 09 at Thu Mar  9 16:39:26 2017.
