 Entering Gaussian System, Link 0=g09
 Initial command:
 /global/software/gaussian/g09.e01/l1.exe "/scratch/10501390.yak.local/Gau-10885.inp" -scrdir="/scratch/10501390.yak.local/"
 Entering Link 1 = /global/software/gaussian/g09.e01/l1.exe PID=     10886.
  
 Copyright (c) 1988,1990,1992,1993,1995,1998,2003,2009,2015,
            Gaussian, Inc.  All Rights Reserved.
  
 This is part of the Gaussian(R) 09 program.  It is based on
 the Gaussian(R) 03 system (copyright 2003, Gaussian, Inc.),
 the Gaussian(R) 98 system (copyright 1998, Gaussian, Inc.),
 the Gaussian(R) 94 system (copyright 1995, Gaussian, Inc.),
 the Gaussian 92(TM) system (copyright 1992, Gaussian, Inc.),
 the Gaussian 90(TM) system (copyright 1990, Gaussian, Inc.),
 the Gaussian 88(TM) system (copyright 1988, Gaussian, Inc.),
 the Gaussian 86(TM) system (copyright 1986, Carnegie Mellon
 University), and the Gaussian 82(TM) system (copyright 1983,
 Carnegie Mellon University). Gaussian is a federally registered
 trademark of Gaussian, Inc.
  
 This software contains proprietary and confidential information,
 including trade secrets, belonging to Gaussian, Inc.
  
 This software is provided under written license and may be
 used, copied, transmitted, or stored only in accord with that
 written license.
  
 The following legend is applicable only to US Government
 contracts under FAR:
  
                    RESTRICTED RIGHTS LEGEND
  
 Use, reproduction and disclosure by the US Government is
 subject to restrictions as set forth in subparagraphs (a)
 and (c) of the Commercial Computer Software - Restricted
 Rights clause in FAR 52.227-19.
  
 Gaussian, Inc.
 340 Quinnipiac St., Bldg. 40, Wallingford CT 06492
  
  
 ---------------------------------------------------------------
 Warning -- This program may not be used in any manner that
 competes with the business of Gaussian, Inc. or will provide
 assistance to any competitor of Gaussian, Inc.  The licensee
 of this program is prohibited from giving any competitor of
 Gaussian, Inc. access to this program.  By using this program,
 the user acknowledges that Gaussian, Inc. is engaged in the
 business of creating and licensing software in the field of
 computational chemistry and represents and warrants to the
 licensee that it is not a competitor of Gaussian, Inc. and that
 it will not use this program in any manner prohibited above.
 ---------------------------------------------------------------
  

 Cite this work as:
 Gaussian 09, Revision E.01,
 M. J. Frisch, G. W. Trucks, H. B. Schlegel, G. E. Scuseria, 
 M. A. Robb, J. R. Cheeseman, G. Scalmani, V. Barone, B. Mennucci, 
 G. A. Petersson, H. Nakatsuji, M. Caricato, X. Li, H. P. Hratchian, 
 A. F. Izmaylov, J. Bloino, G. Zheng, J. L. Sonnenberg, M. Hada, 
 M. Ehara, K. Toyota, R. Fukuda, J. Hasegawa, M. Ishida, T. Nakajima, 
 Y. Honda, O. Kitao, H. Nakai, T. Vreven, J. A. Montgomery, Jr., 
 J. E. Peralta, F. Ogliaro, M. Bearpark, J. J. Heyd, E. Brothers, 
 K. N. Kudin, V. N. Staroverov, T. Keith, R. Kobayashi, J. Normand, 
 K. Raghavachari, A. Rendell, J. C. Burant, S. S. Iyengar, J. Tomasi, 
 M. Cossi, N. Rega, J. M. Millam, M. Klene, J. E. Knox, J. B. Cross, 
 V. Bakken, C. Adamo, J. Jaramillo, R. Gomperts, R. E. Stratmann, 
 O. Yazyev, A. J. Austin, R. Cammi, C. Pomelli, J. W. Ochterski, 
 R. L. Martin, K. Morokuma, V. G. Zakrzewski, G. A. Voth, 
 P. Salvador, J. J. Dannenberg, S. Dapprich, A. D. Daniels, 
 O. Farkas, J. B. Foresman, J. V. Ortiz, J. Cioslowski, 
 and D. J. Fox, Gaussian, Inc., Wallingford CT, 2013.
 
 ******************************************
 Gaussian 09:  ES64L-G09RevE.01 30-Nov-2015
                31-Jan-2017 
 ******************************************
 %NPROCS=4
 Will use up to    4 processors via shared memory.
 ----------------------------------------------------------------------
 # opt=(calcfc,ts,noeigentest,maxcycle=1000,cartesian) b3lyp 6-31g(d) f
 req
 ----------------------------------------------------------------------
 1/5=1,6=1000,10=4,11=1,14=-1,18=10,26=3,38=1/1,3;
 2/12=2,17=6,18=5,29=2,40=1/2;
 3/5=1,6=6,7=1,11=2,16=1,25=1,30=1,71=2,74=-5,140=1/1,2,3;
 4//1;
 5/5=2,38=5/2;
 8/6=4,10=90,11=11/1;
 11/6=1,8=1,9=11,15=111,16=1/1,2,10;
 10/6=1,13=1/2;
 6/7=2,8=2,9=2,10=2,28=1/1;
 7/7=1,10=1,18=20,25=1/1,2,3,16;
 1/5=1,6=1000,10=4,11=1,14=-1,18=10,26=3/3(2);
 2/29=1/2;
 99/12=1/99;
 2/29=1/2;
 3/5=1,6=6,7=1,11=2,16=1,25=1,30=1,71=1,74=-5/1,2,3;
 4/5=5,16=3,69=1/1;
 5/5=2,38=5/2;
 7/7=1/1,2,3,16;
 1/5=1,6=1000,11=1,14=-1,18=10,26=3/3(-5);
 2/29=1/2;
 6/7=2,8=2,9=2,10=2,19=2,28=1/1;
 99/9=1,12=1/99;
 -------------------------------------------
 ./5/glo_1w_alpha_boat5_b3lyp_631Gd_iopt.out
 -------------------------------------------
 Symbolic Z-matrix:
 Charge =  0 Multiplicity = 1
 O                     1.53072   0.41478  -0.6963 
 C                     0.24463  -0.83769   1.03538 
 C                    -0.89866   0.37196  -0.93034 
 C                    -1.09782  -0.48823   0.32946 
 C                     0.35822   1.23049  -0.79648 
 C                     1.44263  -0.81172   0.07632 
 H                    -1.68618   0.08146   1.06002 
 H                     2.34908  -0.83439   0.69601 
 H                     0.18381  -1.85847   1.42969 
 H                    -0.73038  -0.30248  -1.77576 
 C                     1.48342  -2.01492  -0.88168 
 H                     2.26351  -1.83911  -1.63651 
 H                     0.52981  -2.13434  -1.4016 
 O                     1.68606  -3.23269  -0.17433 
 H                     2.5881   -3.22367   0.1827 
 O                    -2.0323    1.13563  -1.2848 
 H                    -2.36898   1.58284  -0.48921 
 O                    -1.83924  -1.63555  -0.09907 
 H                    -1.96382  -2.21297   0.67136 
 O                     0.46275   0.00741   2.1544 
 H                     0.39815   0.91981   1.80396 
 H                     0.51209   1.82203  -1.70453 
 O                     0.21573   2.08368   0.32102 
 H                     1.0279    2.64606   0.33831 
 O                    -4.14921   0.47762   0.42342 
 H                    -4.5042   -0.08992   1.12307 
 H                    -3.72722  -0.13767  -0.20032 
 O                     2.8547    2.78684   0.12259 
 H                     3.28386   2.71007   0.98866 
 H                     2.81619   1.86959  -0.21729 
 

 GradGradGradGradGradGradGradGradGradGradGradGradGradGradGradGradGradGrad
 Berny optimization.
 Initialization pass.
 No Z-matrix variables, so optimization will use Cartesian coordinates.
 Trust Radius=3.00D-01 FncErr=1.00D-07 GrdErr=1.00D-06
 Number of steps in this run=    180 maximum allowed number of steps=    180.
 Search for a saddle point of order  1.
 GradGradGradGradGradGradGradGradGradGradGradGradGradGradGradGradGradGrad

 ---------------------------------------------------------------------------------------------------
                            Z-MATRIX (ANGSTROMS AND DEGREES)
   CD    Cent   Atom    N1       Length/X        N2       Alpha/Y        N3        Beta/Z          J
 ---------------------------------------------------------------------------------------------------
      1      1  O        0   1.530720          0.414780         -0.696300
      2      2  C        0   0.244630         -0.837690          1.035380
      3      3  C        0  -0.898660          0.371960         -0.930340
      4      4  C        0  -1.097820         -0.488230          0.329460
      5      5  C        0   0.358220          1.230490         -0.796480
      6      6  C        0   1.442630         -0.811720          0.076320
      7      7  H        0  -1.686180          0.081460          1.060020
      8      8  H        0   2.349080         -0.834390          0.696010
      9      9  H        0   0.183810         -1.858470          1.429690
     10     10  H        0  -0.730380         -0.302480         -1.775760
     11     11  C        0   1.483420         -2.014920         -0.881680
     12     12  H        0   2.263510         -1.839110         -1.636510
     13     13  H        0   0.529810         -2.134340         -1.401600
     14     14  O        0   1.686060         -3.232690         -0.174330
     15     15  H        0   2.588100         -3.223670          0.182700
     16     16  O        0  -2.032300          1.135630         -1.284800
     17     17  H        0  -2.368980          1.582840         -0.489210
     18     18  O        0  -1.839240         -1.635550         -0.099070
     19     19  H        0  -1.963820         -2.212970          0.671360
     20     20  O        0   0.462750          0.007410          2.154400
     21     21  H        0   0.398150          0.919810          1.803960
     22     22  H        0   0.512090          1.822030         -1.704530
     23     23  O        0   0.215730          2.083680          0.321020
     24     24  H        0   1.027900          2.646060          0.338310
     25     25  O        0  -4.149210          0.477620          0.423420
     26     26  H        0  -4.504200         -0.089920          1.123070
     27     27  H        0  -3.727220         -0.137670         -0.200320
     28     28  O        0   2.854700          2.786840          0.122590
     29     29  H        0   3.283860          2.710070          0.988660
     30     30  H        0   2.816190          1.869590         -0.217290
 ---------------------------------------------------------------------------------------------------
                         Z-Matrix orientation:                         
 ---------------------------------------------------------------------
 Center     Atomic      Atomic             Coordinates (Angstroms)
 Number     Number       Type             X           Y           Z
 ---------------------------------------------------------------------
      1          8           0        1.530720    0.414780   -0.696300
      2          6           0        0.244630   -0.837690    1.035380
      3          6           0       -0.898660    0.371960   -0.930340
      4          6           0       -1.097820   -0.488230    0.329460
      5          6           0        0.358220    1.230490   -0.796480
      6          6           0        1.442630   -0.811720    0.076320
      7          1           0       -1.686180    0.081460    1.060020
      8          1           0        2.349080   -0.834390    0.696010
      9          1           0        0.183810   -1.858470    1.429690
     10          1           0       -0.730380   -0.302480   -1.775760
     11          6           0        1.483420   -2.014920   -0.881680
     12          1           0        2.263510   -1.839110   -1.636510
     13          1           0        0.529810   -2.134340   -1.401600
     14          8           0        1.686060   -3.232690   -0.174330
     15          1           0        2.588100   -3.223670    0.182700
     16          8           0       -2.032300    1.135630   -1.284800
     17          1           0       -2.368980    1.582840   -0.489210
     18          8           0       -1.839240   -1.635550   -0.099070
     19          1           0       -1.963820   -2.212970    0.671360
     20          8           0        0.462750    0.007410    2.154400
     21          1           0        0.398150    0.919810    1.803960
     22          1           0        0.512090    1.822030   -1.704530
     23          8           0        0.215730    2.083680    0.321020
     24          1           0        1.027900    2.646060    0.338310
     25          8           0       -4.149210    0.477620    0.423420
     26          1           0       -4.504200   -0.089920    1.123070
     27          1           0       -3.727220   -0.137670   -0.200320
     28          8           0        2.854700    2.786840    0.122590
     29          1           0        3.283860    2.710070    0.988660
     30          1           0        2.816190    1.869590   -0.217290
 ---------------------------------------------------------------------
                    Distance matrix (angstroms):
                    1          2          3          4          5
     1  O    0.000000
     2  C    2.494278   0.000000
     3  C    2.441003   2.575737   0.000000
     4  C    2.962572   1.556476   1.538404   0.000000
     5  C    1.431843   2.765137   1.527985   2.518291   0.000000
     6  C    1.452241   1.534821   2.810000   2.573444   2.471507
     7  H    3.680246   2.138568   2.160118   1.097466   2.991059
     8  H    2.041731   2.131641   3.827285   3.483577   3.233385
     9  H    3.391411   1.095980   3.422908   2.175003   3.811552
    10  H    2.606198   3.023178   1.094496   2.145103   2.119914
    11  C    2.437221   2.568188   3.372517   3.234261   3.435989
    12  H    2.549705   3.495385   3.922604   4.121705   3.709208
    13  H    2.827947   2.775158   2.923038   2.890575   3.423112
    14  O    3.687902   3.045840   4.499537   3.941555   4.697894
    15  H    3.889603   3.451350   5.130780   4.592404   5.076485
    16  O    3.682536   3.802846   1.412081   2.473057   2.441729
    17  H    4.076139   3.874829   1.955164   2.564254   2.766981
    18  O    3.989632   2.503212   2.367656   1.431672   3.678233
    19  H    4.581198   2.627005   3.222091   1.959995   4.404979
    20  O    3.071319   1.419146   3.391453   2.451825   3.196020
    21  H    2.790891   1.924341   3.075427   2.528765   2.619237
    22  H    2.008603   3.827891   2.166169   3.473647   1.094601
    23  O    2.355709   3.007582   2.395361   2.887941   1.413168
    24  H    2.510350   3.638122   3.239234   3.787154   1.933923
    25  O    5.789588   4.627134   3.522770   3.201980   4.729894
    26  H    6.323376   4.808143   4.174895   3.520212   5.391779
    27  H    5.310097   4.218125   2.965367   2.705051   4.349493
    28  O    2.837283   4.558823   4.585632   5.137246   3.082098
    29  H    3.343792   4.671799   5.161666   5.464685   3.732995
    30  H    1.999589   3.938460   4.068347   4.601926   2.604904
                    6          7          8          9         10
     6  C    0.000000
     7  H    3.399248   0.000000
     8  H    1.098263   4.153867   0.000000
     9  H    2.124129   2.719714   2.505079   0.000000
    10  H    2.900258   3.017053   3.984426   3.678554   0.000000
    11  C    1.538544   4.267478   2.152237   2.656293   2.938153
    12  H    2.159435   5.153631   2.541148   3.705011   3.368085
    13  H    2.183303   3.984966   3.065874   2.865663   2.254725
    14  O    2.446054   4.886636   2.636082   2.591933   4.121880
    15  H    2.672250   5.473851   2.455459   3.033046   4.835414
    16  O    4.209508   2.594081   5.196256   4.609147   2.001049
    17  H    4.536751   2.262846   5.432112   4.694841   2.809742
    18  O    3.388234   2.077268   4.337745   2.545492   2.412040
    19  H    3.731149   2.343619   4.527935   2.305005   3.340620
    20  O    2.439171   2.412685   2.528590   2.021020   4.118950
    21  H    2.659676   2.366582   2.847964   2.811558   3.947400
    22  H    3.312698   3.937602   4.024139   4.845326   2.462184
    23  O    3.154125   2.858718   3.634134   4.095206   3.314419
    24  H    3.492404   3.803192   3.739920   4.711092   4.031715
    25  O    5.749048   2.574630   6.635017   5.024436   4.139245
    26  H    6.081239   2.823930   6.906813   5.019883   4.763414
    27  H    5.220941   2.408800   6.181444   4.573209   3.389723
    28  O    3.865969   5.368188   3.701050   5.515530   5.099062
    29  H    4.077438   5.622809   3.677316   5.538626   5.729886
    30  H    3.026929   5.010017   2.892026   4.851845   4.441270
                   11         12         13         14         15
    11  C    0.000000
    12  H    1.099644   0.000000
    13  H    1.092680   1.774277   0.000000
    14  O    1.422804   2.100829   2.012332   0.000000
    15  H    1.953023   2.309089   2.816594   0.970169   0.000000
    16  O    4.738012   5.237057   4.155810   5.843078   6.519597
    17  H    5.285726   5.872478   4.801340   6.303319   6.937337
    18  O    3.434599   4.386082   2.749141   3.870951   4.711991
    19  H    3.786109   4.830772   3.243692   3.882865   4.688313
    20  O    3.788056   4.585125   4.151714   4.173454   4.341036
    21  H    4.123483   4.788323   4.429535   4.776568   4.959112
    22  H    4.042617   4.059069   3.967990   5.410167   5.773261
    23  O    4.455564   4.838761   4.567030   5.538143   5.815087
    24  H    4.839484   5.054047   5.111517   5.937649   6.075539
    25  O    6.296234   7.122747   5.660942   6.940755   7.690828
    26  H    6.601230   7.515108   5.991233   7.062547   7.810596
    27  H    5.580241   6.391118   4.853047   6.235658   7.039415
    28  O    5.093708   4.984311   5.652104   6.139106   6.016720
    29  H    5.391223   5.350483   6.063534   6.262740   6.028509
    30  H    4.160181   4.009251   4.760418   5.226117   5.114031
                   16         17         18         19         20
    16  O    0.000000
    17  H    0.972787   0.000000
    18  O    3.020375   3.284946   0.000000
    19  H    3.878708   3.989894   0.970823   0.000000
    20  O    4.396163   4.182027   3.616159   3.608010   0.000000
    21  H    3.936255   3.654483   3.893238   4.083625   0.979518
    22  H    2.668565   3.136045   4.478964   5.296811   4.264577
    23  O    2.920804   2.754640   4.269900   4.830567   2.780863
    24  H    3.778983   3.654315   5.171458   5.715897   3.252699
    25  O    2.798625   2.285525   3.174027   3.475152   4.948491
    26  H    3.661980   3.155430   3.314304   3.341394   5.073826
    27  H    2.381206   2.210979   2.412129   2.859419   4.808493
    28  O    5.346963   5.395438   6.452886   6.965442   4.192244
    29  H    5.992415   5.950575   6.805419   7.202440   4.077007
    30  H    5.018579   5.200207   5.828637   6.348661   3.825089
                   21         22         23         24         25
    21  H    0.000000
    22  H    3.624429   0.000000
    23  O    1.893933   2.063769   0.000000
    24  H    2.350458   2.262362   0.988023   0.000000
    25  O    4.772830   5.297483   4.652162   5.613541   0.000000
    26  H    5.051356   6.067457   5.257905   6.221380   0.968313
    27  H    4.706812   4.906610   4.555551   5.536284   0.972476
    28  O    3.513893   3.123627   2.738242   1.844872   7.380904
    29  H    3.492430   3.965425   3.201801   2.348703   7.781636
    30  H    3.291573   2.742813   2.664208   2.027209   7.131962
                   26         27         28         29         30
    26  H    0.000000
    27  H    1.535363   0.000000
    28  O    7.964303   7.209626   0.000000
    29  H    8.277191   7.660192   0.969613   0.000000
    30  H    7.695736   6.844384   0.978953   1.542542   0.000000
 Stoichiometry    C6H16O8
 Framework group  C1[X(C6H16O8)]
 Deg. of freedom    84
 Full point group                 C1      NOp   1
 Largest Abelian subgroup         C1      NOp   1
 Largest concise Abelian subgroup C1      NOp   1
                         Standard orientation:                         
 ---------------------------------------------------------------------
 Center     Atomic      Atomic             Coordinates (Angstroms)
 Number     Number       Type             X           Y           Z
 ---------------------------------------------------------------------
      1          8           0       -1.530721   -0.414779   -0.696300
      2          6           0       -0.244630    0.837690    1.035380
      3          6           0        0.898659   -0.371961   -0.930340
      4          6           0        1.097820    0.488228    0.329460
      5          6           0       -0.358222   -1.230490   -0.796480
      6          6           0       -1.442630    0.811721    0.076320
      7          1           0        1.686179   -0.081462    1.060020
      8          1           0       -2.349080    0.834392    0.696010
      9          1           0       -0.183809    1.858470    1.429690
     10          1           0        0.730380    0.302479   -1.775760
     11          6           0       -1.483419    2.014921   -0.881680
     12          1           0       -2.263509    1.839112   -1.636510
     13          1           0       -0.529809    2.134340   -1.401600
     14          8           0       -1.686058    3.232691   -0.174330
     15          1           0       -2.588098    3.223672    0.182700
     16          8           0        2.032298   -1.135632   -1.284800
     17          1           0        2.368978   -1.582843   -0.489210
     18          8           0        1.839241    1.635548   -0.099070
     19          1           0        1.963821    2.212968    0.671360
     20          8           0       -0.462751   -0.007410    2.154400
     21          1           0       -0.398152   -0.919810    1.803960
     22          1           0       -0.512092   -1.822030   -1.704530
     23          8           0       -0.215733   -2.083680    0.321020
     24          1           0       -1.027903   -2.646060    0.338310
     25          8           0        4.149209   -0.477625    0.423420
     26          1           0        4.504199    0.089915    1.123070
     27          1           0        3.727219    0.137666   -0.200320
     28          8           0       -2.854703   -2.786838    0.122590
     29          1           0       -3.283863   -2.710067    0.988660
     30          1           0       -2.816192   -1.869588   -0.217290
 ---------------------------------------------------------------------
 Rotational constants (GHZ):      0.6765614      0.5304824      0.3751445
 Standard basis: 6-31G(d) (6D, 7F)
 There are   242 symmetry adapted cartesian basis functions of A   symmetry.
 There are   242 symmetry adapted basis functions of A   symmetry.
   242 basis functions,   456 primitive gaussians,   242 cartesian basis functions
    58 alpha electrons       58 beta electrons
       nuclear repulsion energy      1110.9266520444 Hartrees.
 NAtoms=   30 NActive=   30 NUniq=   30 SFac= 1.00D+00 NAtFMM=   60 NAOKFM=F Big=F
 Integral buffers will be    131072 words long.
 Raffenetti 2 integral format.
 Two-electron integral symmetry is turned on.
 One-electron integrals computed using PRISM.
 NBasis=   242 RedAO= T EigKep=  1.05D-03  NBF=   242
 NBsUse=   242 1.00D-06 EigRej= -1.00D+00 NBFU=   242
 ExpMin= 1.61D-01 ExpMax= 5.48D+03 ExpMxC= 8.25D+02 IAcc=1 IRadAn=         1 AccDes= 0.00D+00
 Harris functional with IExCor=  402 and IRadAn=       1 diagonalized for initial guess.
 HarFok:  IExCor=  402 AccDes= 0.00D+00 IRadAn=         1 IDoV= 1 UseB2=F ITyADJ=14
 ICtDFT=  3500011 ScaDFX=  1.000000  1.000000  1.000000  1.000000
 FoFCou: FMM=F IPFlag=           0 FMFlag=      100000 FMFlg1=           0
         NFxFlg=           0 DoJE=T BraDBF=F KetDBF=T FulRan=T
         wScrn=  0.000000 ICntrl=     500 IOpCl=  0 I1Cent=   200000004 NGrid=           0
         NMat0=    1 NMatS0=      1 NMatT0=    0 NMatD0=    1 NMtDS0=    0 NMtDT0=    0
 Petite list used in FoFCou.
 Requested convergence on RMS density matrix=1.00D-08 within 128 cycles.
 Requested convergence on MAX density matrix=1.00D-06.
 Requested convergence on             energy=1.00D-06.
 No special actions if energy rises.
 Integral accuracy reduced to 1.0D-05 until final iterations.
 Initial convergence to 1.0D-05 achieved.  Increase integral accuracy.
 SCF Done:  E(RB3LYP) =  -839.986361012     A.U. after   14 cycles
            NFock= 14  Conv=0.39D-08     -V/T= 2.0085
 DoSCS=F DFT=T ScalE2(SS,OS)=  1.000000  1.000000
 Range of M.O.s used for correlation:     1   242
 NBasis=   242 NAE=    58 NBE=    58 NFC=     0 NFV=     0
 NROrb=    242 NOA=    58 NOB=    58 NVA=   184 NVB=   184
 Symmetrizing basis deriv contribution to polar:
 IMax=3 JMax=2 DiffMx= 0.00D+00
 G2DrvN: will do    31 centers at a time, making    1 passes.
 Calling FoFCou, ICntrl=  3107 FMM=F I1Cent=   0 AccDes= 0.00D+00.
 End of G2Drv F.D. properties file   721 does not exist.
 End of G2Drv F.D. properties file   722 does not exist.
 End of G2Drv F.D. properties file   788 does not exist.
          IDoAtm=111111111111111111111111111111
          Differentiating once with respect to nuclear coordinates.
          There are    93 degrees of freedom in the 1st order CPHF.  IDoFFX=6 NUNeed=     0.
     87 vectors produced by pass  0 Test12= 1.15D-14 1.08D-09 XBig12= 9.92D-02 1.00D-01.
 AX will form    87 AO Fock derivatives at one time.
     87 vectors produced by pass  1 Test12= 1.15D-14 1.08D-09 XBig12= 1.11D-02 1.26D-02.
     87 vectors produced by pass  2 Test12= 1.15D-14 1.08D-09 XBig12= 1.19D-04 1.16D-03.
     87 vectors produced by pass  3 Test12= 1.15D-14 1.08D-09 XBig12= 2.43D-07 6.76D-05.
     87 vectors produced by pass  4 Test12= 1.15D-14 1.08D-09 XBig12= 3.00D-10 1.36D-06.
     66 vectors produced by pass  5 Test12= 1.15D-14 1.08D-09 XBig12= 2.11D-13 4.61D-08.
      2 vectors produced by pass  6 Test12= 1.15D-14 1.08D-09 XBig12= 2.16D-16 1.43D-09.
 InvSVY:  IOpt=1 It=  1 EMax= 6.11D-16
 Solved reduced A of dimension   503 with    93 vectors.
 End of Minotr F.D. properties file   721 does not exist.
 End of Minotr F.D. properties file   722 does not exist.
 End of Minotr F.D. properties file   788 does not exist.

 **********************************************************************

            Population analysis using the SCF density.

 **********************************************************************

 Orbital symmetries:
       Occupied  (A) (A) (A) (A) (A) (A) (A) (A) (A) (A) (A) (A)
                 (A) (A) (A) (A) (A) (A) (A) (A) (A) (A) (A) (A)
                 (A) (A) (A) (A) (A) (A) (A) (A) (A) (A) (A) (A)
                 (A) (A) (A) (A) (A) (A) (A) (A) (A) (A) (A) (A)
                 (A) (A) (A) (A) (A) (A) (A) (A) (A) (A)
       Virtual   (A) (A) (A) (A) (A) (A) (A) (A) (A) (A) (A) (A)
                 (A) (A) (A) (A) (A) (A) (A) (A) (A) (A) (A) (A)
                 (A) (A) (A) (A) (A) (A) (A) (A) (A) (A) (A) (A)
                 (A) (A) (A) (A) (A) (A) (A) (A) (A) (A) (A) (A)
                 (A) (A) (A) (A) (A) (A) (A) (A) (A) (A) (A) (A)
                 (A) (A) (A) (A) (A) (A) (A) (A) (A) (A) (A) (A)
                 (A) (A) (A) (A) (A) (A) (A) (A) (A) (A) (A) (A)
                 (A) (A) (A) (A) (A) (A) (A) (A) (A) (A) (A) (A)
                 (A) (A) (A) (A) (A) (A) (A) (A) (A) (A) (A) (A)
                 (A) (A) (A) (A) (A) (A) (A) (A) (A) (A) (A) (A)
                 (A) (A) (A) (A) (A) (A) (A) (A) (A) (A) (A) (A)
                 (A) (A) (A) (A) (A) (A) (A) (A) (A) (A) (A) (A)
                 (A) (A) (A) (A) (A) (A) (A) (A) (A) (A) (A) (A)
                 (A) (A) (A) (A) (A) (A) (A) (A) (A) (A) (A) (A)
                 (A) (A) (A) (A) (A) (A) (A) (A) (A) (A) (A) (A)
                 (A) (A) (A) (A)
 The electronic state is 1-A.
 Alpha  occ. eigenvalues --  -19.17808 -19.16848 -19.16618 -19.16446 -19.15982
 Alpha  occ. eigenvalues --  -19.14663 -19.13826 -19.13614 -10.29466 -10.25053
 Alpha  occ. eigenvalues --  -10.24488 -10.24391 -10.24353 -10.24018  -1.08219
 Alpha  occ. eigenvalues --   -1.04017  -1.03211  -1.02524  -1.02133  -1.01193
 Alpha  occ. eigenvalues --   -1.01026  -0.99549  -0.78406  -0.77211  -0.69229
 Alpha  occ. eigenvalues --   -0.66008  -0.63753  -0.58724  -0.55605  -0.54284
 Alpha  occ. eigenvalues --   -0.53919  -0.52423  -0.51818  -0.50794  -0.49042
 Alpha  occ. eigenvalues --   -0.48826  -0.46340  -0.45053  -0.43543  -0.42540
 Alpha  occ. eigenvalues --   -0.41948  -0.41738  -0.39818  -0.38971  -0.37869
 Alpha  occ. eigenvalues --   -0.37141  -0.36160  -0.35508  -0.34326  -0.32289
 Alpha  occ. eigenvalues --   -0.31871  -0.30661  -0.30343  -0.29822  -0.29185
 Alpha  occ. eigenvalues --   -0.27623  -0.26387  -0.25647
 Alpha virt. eigenvalues --    0.04519   0.04831   0.05754   0.08193   0.09493
 Alpha virt. eigenvalues --    0.09744   0.11261   0.12478   0.13294   0.13979
 Alpha virt. eigenvalues --    0.14164   0.15488   0.16243   0.18003   0.18158
 Alpha virt. eigenvalues --    0.18679   0.20269   0.20616   0.21525   0.22296
 Alpha virt. eigenvalues --    0.23732   0.24851   0.25812   0.26309   0.29982
 Alpha virt. eigenvalues --    0.30628   0.32741   0.35813   0.52056   0.52851
 Alpha virt. eigenvalues --    0.53148   0.55187   0.56799   0.57181   0.58276
 Alpha virt. eigenvalues --    0.61058   0.62672   0.63160   0.64623   0.66753
 Alpha virt. eigenvalues --    0.67921   0.69391   0.71302   0.75058   0.76517
 Alpha virt. eigenvalues --    0.76987   0.78268   0.79343   0.80725   0.81274
 Alpha virt. eigenvalues --    0.82426   0.83115   0.83740   0.84565   0.85105
 Alpha virt. eigenvalues --    0.85784   0.87402   0.87577   0.88425   0.88709
 Alpha virt. eigenvalues --    0.90270   0.91040   0.92205   0.93973   0.95519
 Alpha virt. eigenvalues --    0.96704   0.98239   0.99277   1.01475   1.02049
 Alpha virt. eigenvalues --    1.02874   1.03314   1.03852   1.06036   1.07242
 Alpha virt. eigenvalues --    1.07700   1.09449   1.11741   1.12408   1.14594
 Alpha virt. eigenvalues --    1.16971   1.17850   1.19618   1.21614   1.23263
 Alpha virt. eigenvalues --    1.26099   1.26739   1.30547   1.32591   1.35129
 Alpha virt. eigenvalues --    1.37469   1.39106   1.43149   1.44392   1.46612
 Alpha virt. eigenvalues --    1.51188   1.52977   1.54715   1.57886   1.58603
 Alpha virt. eigenvalues --    1.61265   1.63426   1.64416   1.66637   1.68502
 Alpha virt. eigenvalues --    1.70295   1.71191   1.72230   1.73154   1.73709
 Alpha virt. eigenvalues --    1.74599   1.76776   1.77085   1.78217   1.79300
 Alpha virt. eigenvalues --    1.80629   1.81309   1.83074   1.83620   1.84767
 Alpha virt. eigenvalues --    1.86902   1.88057   1.91619   1.92629   1.93867
 Alpha virt. eigenvalues --    1.98262   1.99214   2.00125   2.05497   2.06681
 Alpha virt. eigenvalues --    2.07560   2.08618   2.11271   2.12459   2.16192
 Alpha virt. eigenvalues --    2.18551   2.19753   2.23511   2.25859   2.27702
 Alpha virt. eigenvalues --    2.28449   2.32310   2.34989   2.36688   2.37883
 Alpha virt. eigenvalues --    2.41085   2.44845   2.46071   2.47745   2.49735
 Alpha virt. eigenvalues --    2.52385   2.54379   2.55169   2.56101   2.57791
 Alpha virt. eigenvalues --    2.59559   2.61061   2.63124   2.64208   2.69629
 Alpha virt. eigenvalues --    2.76288   2.76994   2.84724   2.88608   2.90579
 Alpha virt. eigenvalues --    2.92892   2.97825   2.99929   3.04905   3.14703
 Alpha virt. eigenvalues --    3.62454   3.67595   3.71554   3.81661   3.88632
 Alpha virt. eigenvalues --    3.91569   3.99118   4.15846   4.25269   4.38258
 Alpha virt. eigenvalues --    4.53252   4.59989   4.60970   4.95265
          Condensed to atoms (all electrons):
               1          2          3          4          5          6
     1  O    8.400657  -0.026089  -0.014217  -0.012704   0.159813   0.159233
     2  C   -0.026089   4.988507  -0.030778   0.253100   0.005166   0.300466
     3  C   -0.014217  -0.030778   4.901752   0.288514   0.292875  -0.016947
     4  C   -0.012704   0.253100   0.288514   5.142652  -0.030572  -0.018975
     5  C    0.159813   0.005166   0.292875  -0.030572   4.842577  -0.022085
     6  C    0.159233   0.300466  -0.016947  -0.018975  -0.022085   5.068632
     7  H    0.000293  -0.050288  -0.039427   0.341366  -0.004742   0.005432
     8  H   -0.037910  -0.042294   0.000199   0.005087   0.002913   0.357333
     9  H    0.003251   0.362550   0.003777  -0.045563  -0.000222  -0.047096
    10  H    0.004685  -0.000588   0.373822  -0.044187  -0.056290  -0.001097
    11  C   -0.034429  -0.034065  -0.001874  -0.002496  -0.001333   0.286678
    12  H    0.006584   0.005363  -0.000009  -0.000265   0.000193  -0.046892
    13  H    0.001915  -0.009958  -0.002634   0.002052   0.000431  -0.038035
    14  O    0.001485  -0.004496   0.000068  -0.000111   0.000004  -0.039599
    15  H    0.000023  -0.000740   0.000002   0.000007  -0.000000  -0.003075
    16  O    0.001415   0.002918   0.269016  -0.037014  -0.041050  -0.000076
    17  H    0.000107   0.000258  -0.027779  -0.005731  -0.008373   0.000002
    18  O    0.000037  -0.026306  -0.034216   0.171023   0.002535  -0.000007
    19  H    0.000013  -0.002916   0.006682  -0.024754  -0.000339  -0.000032
    20  O    0.000253   0.242874   0.001729  -0.039241   0.003333  -0.042342
    21  H    0.001275  -0.039724  -0.002263  -0.001533  -0.004776  -0.000683
    22  H   -0.049535  -0.000500  -0.044428   0.006622   0.384074   0.005662
    23  O   -0.056874   0.003573  -0.043067  -0.004152   0.200163  -0.001847
    24  H    0.002602  -0.000367   0.005427  -0.000156  -0.016562  -0.000057
    25  O    0.000000   0.000307  -0.003046   0.000460  -0.000007  -0.000002
    26  H   -0.000000  -0.000011   0.000097   0.000168  -0.000000  -0.000000
    27  H   -0.000002   0.000230  -0.000196  -0.001758   0.000326  -0.000004
    28  O   -0.013704  -0.000117   0.000016   0.000002   0.004444   0.000322
    29  H    0.000548  -0.000020  -0.000010   0.000002  -0.000253   0.000105
    30  H    0.043542   0.000349   0.000366   0.000001  -0.004408  -0.000784
               7          8          9         10         11         12
     1  O    0.000293  -0.037910   0.003251   0.004685  -0.034429   0.006584
     2  C   -0.050288  -0.042294   0.362550  -0.000588  -0.034065   0.005363
     3  C   -0.039427   0.000199   0.003777   0.373822  -0.001874  -0.000009
     4  C    0.341366   0.005087  -0.045563  -0.044187  -0.002496  -0.000265
     5  C   -0.004742   0.002913  -0.000222  -0.056290  -0.001333   0.000193
     6  C    0.005432   0.357333  -0.047096  -0.001097   0.286678  -0.046892
     7  H    0.603966  -0.000255  -0.000393   0.005108  -0.000017   0.000009
     8  H   -0.000255   0.635966  -0.001413   0.000057  -0.055458  -0.005333
     9  H   -0.000393  -0.001413   0.588740  -0.000223  -0.004582   0.000467
    10  H    0.005108   0.000057  -0.000223   0.583802   0.000283   0.000206
    11  C   -0.000017  -0.055458  -0.004582   0.000283   4.984449   0.351007
    12  H    0.000009  -0.005333   0.000467   0.000206   0.351007   0.622292
    13  H    0.000126   0.005209   0.000106   0.005539   0.373717  -0.036719
    14  O   -0.000007   0.002047   0.016276   0.000011   0.231340  -0.028843
    15  H   -0.000000   0.006367  -0.000195   0.000004  -0.032054  -0.007291
    16  O   -0.005225   0.000003  -0.000045  -0.038580   0.000024  -0.000001
    17  H    0.007733  -0.000001   0.000000   0.007005   0.000001   0.000000
    18  O   -0.036247  -0.000132  -0.000280  -0.001108  -0.000422   0.000097
    19  H   -0.003006   0.000000   0.006879   0.000023   0.000001  -0.000008
    20  O    0.008176   0.002830  -0.036625  -0.000067   0.003828  -0.000071
    21  H    0.000728  -0.000876   0.006200   0.000039   0.000076   0.000002
    22  H   -0.000167  -0.000212   0.000010  -0.004344  -0.000031  -0.000033
    23  O    0.002186   0.000053  -0.000002   0.003739   0.000003   0.000007
    24  H   -0.000032  -0.000031   0.000003  -0.000199   0.000010  -0.000001
    25  O    0.016944   0.000000   0.000002  -0.000021   0.000000   0.000000
    26  H    0.000029  -0.000000  -0.000001   0.000007   0.000000   0.000000
    27  H   -0.005368   0.000000  -0.000015  -0.000308  -0.000000  -0.000000
    28  O    0.000000   0.000515   0.000000   0.000003  -0.000002  -0.000002
    29  H   -0.000000   0.000037  -0.000000  -0.000000   0.000004  -0.000000
    30  H    0.000000  -0.001372  -0.000013  -0.000011   0.000155   0.000063
              13         14         15         16         17         18
     1  O    0.001915   0.001485   0.000023   0.001415   0.000107   0.000037
     2  C   -0.009958  -0.004496  -0.000740   0.002918   0.000258  -0.026306
     3  C   -0.002634   0.000068   0.000002   0.269016  -0.027779  -0.034216
     4  C    0.002052  -0.000111   0.000007  -0.037014  -0.005731   0.171023
     5  C    0.000431   0.000004  -0.000000  -0.041050  -0.008373   0.002535
     6  C   -0.038035  -0.039599  -0.003075  -0.000076   0.000002  -0.000007
     7  H    0.000126  -0.000007  -0.000000  -0.005225   0.007733  -0.036247
     8  H    0.005209   0.002047   0.006367   0.000003  -0.000001  -0.000132
     9  H    0.000106   0.016276  -0.000195  -0.000045   0.000000  -0.000280
    10  H    0.005539   0.000011   0.000004  -0.038580   0.007005  -0.001108
    11  C    0.373717   0.231340  -0.032054   0.000024   0.000001  -0.000422
    12  H   -0.036719  -0.028843  -0.007291  -0.000001   0.000000   0.000097
    13  H    0.542496  -0.034478   0.007016   0.000010   0.000001   0.007998
    14  O   -0.034478   8.232139   0.234593  -0.000000   0.000000  -0.000084
    15  H    0.007016   0.234593   0.402769   0.000000  -0.000000  -0.000008
    16  O    0.000010  -0.000000   0.000000   8.235068   0.232012   0.001027
    17  H    0.000001   0.000000  -0.000000   0.232012   0.360468  -0.000481
    18  O    0.007998  -0.000084  -0.000008   0.001027  -0.000481   8.308291
    19  H   -0.000263  -0.000013   0.000002  -0.000183   0.000005   0.229236
    20  O    0.000021  -0.000006  -0.000029  -0.000008  -0.000024   0.001570
    21  H    0.000004  -0.000003   0.000001  -0.000058   0.000047  -0.000029
    22  H   -0.000050   0.000001  -0.000000   0.003457  -0.000293  -0.000065
    23  O    0.000013   0.000000   0.000000   0.001074   0.006201   0.000025
    24  H    0.000000  -0.000000   0.000000  -0.000178  -0.000081   0.000001
    25  O   -0.000000   0.000000  -0.000000  -0.007025   0.017643  -0.003969
    26  H   -0.000000  -0.000000  -0.000000   0.000530  -0.000652   0.000533
    27  H   -0.000000   0.000000   0.000000   0.016190  -0.007730   0.020576
    28  O    0.000000   0.000000   0.000000   0.000000   0.000001   0.000000
    29  H   -0.000000  -0.000000  -0.000000  -0.000000  -0.000000  -0.000000
    30  H   -0.000009  -0.000001  -0.000001  -0.000007  -0.000000   0.000000
              19         20         21         22         23         24
     1  O    0.000013   0.000253   0.001275  -0.049535  -0.056874   0.002602
     2  C   -0.002916   0.242874  -0.039724  -0.000500   0.003573  -0.000367
     3  C    0.006682   0.001729  -0.002263  -0.044428  -0.043067   0.005427
     4  C   -0.024754  -0.039241  -0.001533   0.006622  -0.004152  -0.000156
     5  C   -0.000339   0.003333  -0.004776   0.384074   0.200163  -0.016562
     6  C   -0.000032  -0.042342  -0.000683   0.005662  -0.001847  -0.000057
     7  H   -0.003006   0.008176   0.000728  -0.000167   0.002186  -0.000032
     8  H    0.000000   0.002830  -0.000876  -0.000212   0.000053  -0.000031
     9  H    0.006879  -0.036625   0.006200   0.000010  -0.000002   0.000003
    10  H    0.000023  -0.000067   0.000039  -0.004344   0.003739  -0.000199
    11  C    0.000001   0.003828   0.000076  -0.000031   0.000003   0.000010
    12  H   -0.000008  -0.000071   0.000002  -0.000033   0.000007  -0.000001
    13  H   -0.000263   0.000021   0.000004  -0.000050   0.000013   0.000000
    14  O   -0.000013  -0.000006  -0.000003   0.000001   0.000000  -0.000000
    15  H    0.000002  -0.000029   0.000001  -0.000000   0.000000   0.000000
    16  O   -0.000183  -0.000008  -0.000058   0.003457   0.001074  -0.000178
    17  H    0.000005  -0.000024   0.000047  -0.000293   0.006201  -0.000081
    18  O    0.229236   0.001570  -0.000029  -0.000065   0.000025   0.000001
    19  H    0.391243   0.000024   0.000050   0.000006   0.000003  -0.000000
    20  O    0.000024   8.319159   0.221064  -0.000079  -0.021805   0.001102
    21  H    0.000050   0.221064   0.351263   0.000847   0.057233  -0.001352
    22  H    0.000006  -0.000079   0.000847   0.590034  -0.044349  -0.005114
    23  O    0.000003  -0.021805   0.057233  -0.044349   8.378081   0.200651
    24  H   -0.000000   0.001102  -0.001352  -0.005114   0.200651   0.323606
    25  O    0.000520  -0.000001  -0.000007   0.000001  -0.000006  -0.000000
    26  H    0.000129  -0.000001   0.000000  -0.000000  -0.000000   0.000000
    27  H   -0.001027  -0.000008  -0.000001  -0.000005  -0.000005   0.000000
    28  O    0.000000  -0.000042   0.000524   0.000487  -0.024451   0.069822
    29  H   -0.000000   0.000052   0.000149   0.000001   0.001553  -0.002965
    30  H   -0.000000   0.000025   0.000054  -0.000961   0.003590  -0.008175
              25         26         27         28         29         30
     1  O    0.000000  -0.000000  -0.000002  -0.013704   0.000548   0.043542
     2  C    0.000307  -0.000011   0.000230  -0.000117  -0.000020   0.000349
     3  C   -0.003046   0.000097  -0.000196   0.000016  -0.000010   0.000366
     4  C    0.000460   0.000168  -0.001758   0.000002   0.000002   0.000001
     5  C   -0.000007  -0.000000   0.000326   0.004444  -0.000253  -0.004408
     6  C   -0.000002  -0.000000  -0.000004   0.000322   0.000105  -0.000784
     7  H    0.016944   0.000029  -0.005368   0.000000  -0.000000   0.000000
     8  H    0.000000  -0.000000   0.000000   0.000515   0.000037  -0.001372
     9  H    0.000002  -0.000001  -0.000015   0.000000  -0.000000  -0.000013
    10  H   -0.000021   0.000007  -0.000308   0.000003  -0.000000  -0.000011
    11  C    0.000000   0.000000  -0.000000  -0.000002   0.000004   0.000155
    12  H    0.000000   0.000000  -0.000000  -0.000002  -0.000000   0.000063
    13  H   -0.000000  -0.000000  -0.000000   0.000000  -0.000000  -0.000009
    14  O    0.000000  -0.000000   0.000000   0.000000  -0.000000  -0.000001
    15  H   -0.000000  -0.000000   0.000000   0.000000  -0.000000  -0.000001
    16  O   -0.007025   0.000530   0.016190   0.000000  -0.000000  -0.000007
    17  H    0.017643  -0.000652  -0.007730   0.000001  -0.000000  -0.000000
    18  O   -0.003969   0.000533   0.020576   0.000000  -0.000000   0.000000
    19  H    0.000520   0.000129  -0.001027   0.000000  -0.000000  -0.000000
    20  O   -0.000001  -0.000001  -0.000008  -0.000042   0.000052   0.000025
    21  H   -0.000007   0.000000  -0.000001   0.000524   0.000149   0.000054
    22  H    0.000001  -0.000000  -0.000005   0.000487   0.000001  -0.000961
    23  O   -0.000006  -0.000000  -0.000005  -0.024451   0.001553   0.003590
    24  H   -0.000000   0.000000   0.000000   0.069822  -0.002965  -0.008175
    25  O    8.314300   0.237662   0.222389  -0.000000   0.000000   0.000000
    26  H    0.237662   0.392009  -0.016614  -0.000000   0.000000   0.000000
    27  H    0.222389  -0.016614   0.359888  -0.000000   0.000000   0.000000
    28  O   -0.000000  -0.000000  -0.000000   8.300103   0.241552   0.215814
    29  H    0.000000   0.000000   0.000000   0.241552   0.371637  -0.014619
    30  H    0.000000   0.000000   0.000000   0.215814  -0.014619   0.343690
 Mulliken charges:
               1
     1  O   -0.542267
     2  C    0.103596
     3  C    0.116549
     4  C    0.058155
     5  C    0.292165
     6  C    0.095769
     7  H    0.153080
     8  H    0.126673
     9  H    0.148405
    10  H    0.162690
    11  C   -0.064811
    12  H    0.139176
    13  H    0.175492
    14  O   -0.610322
    15  H    0.392609
    16  O   -0.633293
    17  H    0.419662
    18  O   -0.639594
    19  H    0.397725
    20  O   -0.665693
    21  H    0.411750
    22  H    0.158963
    23  O   -0.661592
    24  H    0.432048
    25  O   -0.796144
    26  H    0.386115
    27  H    0.413443
    28  O   -0.795288
    29  H    0.402228
    30  H    0.422712
 Sum of Mulliken charges =  -0.00000
 Mulliken charges with hydrogens summed into heavy atoms:
               1
     1  O   -0.542267
     2  C    0.252000
     3  C    0.279239
     4  C    0.211235
     5  C    0.451128
     6  C    0.222442
    11  C    0.249857
    14  O   -0.217713
    16  O   -0.213631
    18  O   -0.241869
    20  O   -0.253943
    23  O   -0.229544
    25  O    0.003415
    28  O    0.029652
 APT charges:
               1
     1  O   -0.411611
     2  C   -0.347731
     3  C   -0.286186
     4  C   -0.194355
     5  C   -0.262691
     6  C   -0.307939
     7  H    0.344103
     8  H    0.449644
     9  H    0.454108
    10  H    0.390133
    11  C   -0.584003
    12  H    0.485580
    13  H    0.265099
    14  O   -0.851631
    15  H    0.764453
    16  O   -0.702981
    17  H    0.584290
    18  O   -0.902930
    19  H    0.707960
    20  O   -0.565392
    21  H    0.413841
    22  H    0.541041
    23  O   -0.797033
    24  H    0.645609
    25  O   -0.893853
    26  H    0.773567
    27  H    0.196084
    28  O   -0.835299
    29  H    0.744438
    30  H    0.183685
 Sum of APT charges =  -0.00000
 APT charges with hydrogens summed into heavy atoms:
               1
     1  O   -0.411611
     2  C    0.106377
     3  C    0.103947
     4  C    0.149747
     5  C    0.278349
     6  C    0.141705
    11  C    0.166675
    14  O   -0.087178
    16  O   -0.118691
    18  O   -0.194969
    20  O   -0.151551
    23  O   -0.151425
    25  O    0.075798
    28  O    0.092824
 Electronic spatial extent (au):  <R**2>=           3186.0777
 Charge=              0.0000 electrons
 Dipole moment (field-independent basis, Debye):
    X=             -2.8934    Y=              1.8992    Z=              1.9454  Tot=              3.9703
 Quadrupole moment (field-independent basis, Debye-Ang):
   XX=            -75.1725   YY=            -88.4341   ZZ=            -86.5710
   XY=              5.5619   XZ=              3.7395   YZ=             -0.5337
 Traceless Quadrupole moment (field-independent basis, Debye-Ang):
   XX=              8.2200   YY=             -5.0416   ZZ=             -3.1784
   XY=              5.5619   XZ=              3.7395   YZ=             -0.5337
 Octapole moment (field-independent basis, Debye-Ang**2):
  XXX=            -39.3816  YYY=            -13.9347  ZZZ=             -7.4408  XYY=              2.6668
  XXY=             45.7371  XXZ=             48.9785  XZZ=              1.8817  YZZ=             -3.8823
  YYZ=             26.4172  XYZ=             16.2520
 Hexadecapole moment (field-independent basis, Debye-Ang**3):
 XXXX=          -1683.7593 YYYY=          -1485.8918 ZZZZ=           -533.4726 XXXY=             97.9232
 XXXZ=             38.4106 YYYX=            -11.8308 YYYZ=              5.4930 ZZZX=             23.3265
 ZZZY=            -17.7505 XXYY=           -487.2070 XXZZ=           -343.0701 YYZZ=           -280.2907
 XXYZ=            -19.3953 YYXZ=            -36.4104 ZZXY=             37.7352
 N-N= 1.110926652044D+03 E-N=-4.194083777578D+03  KE= 8.329056864459D+02
  Exact polarizability:   0.000   0.000   0.000   0.000   0.000   0.000
 Approx polarizability: 126.170  -1.781 132.866  -1.312   1.707 125.345
 Calling FoFJK, ICntrl=    100147 FMM=F ISym2X=0 I1Cent= 0 IOpClX= 0 NMat=1 NMatS=1 NMatT=0.
 ***** Axes restored to original set *****
 -------------------------------------------------------------------
 Center     Atomic                   Forces (Hartrees/Bohr)
 Number     Number              X              Y              Z
 -------------------------------------------------------------------
      1        8           0.000002678    0.000003349    0.000004258
      2        6          -0.000003518   -0.000005563    0.000000768
      3        6          -0.000001512    0.000001891   -0.000004328
      4        6          -0.000002543    0.000002090   -0.000005216
      5        6          -0.000003495    0.000004655    0.000009060
      6        6          -0.000000376   -0.000000220   -0.000003234
      7        1           0.000000495   -0.000004339   -0.000003328
      8        1           0.000001244   -0.000000984    0.000002578
      9        1          -0.000001823   -0.000002791   -0.000001796
     10        1          -0.000003129    0.000005110   -0.000000844
     11        6           0.000007004    0.000003222   -0.000006281
     12        1          -0.000002094    0.000003262   -0.000001311
     13        1          -0.000003333   -0.000000007   -0.000002656
     14        8           0.000008818    0.000005789   -0.000016035
     15        1          -0.000002732    0.000001110   -0.000009662
     16        8           0.000019933    0.000013560    0.000004079
     17        1          -0.000008205   -0.000001514    0.000005926
     18        8           0.000006041    0.000007594   -0.000022531
     19        1          -0.000003340   -0.000011642    0.000005371
     20        8          -0.000006155   -0.000004493   -0.000001104
     21        1          -0.000002096   -0.000006687    0.000002986
     22        1           0.000002147    0.000002756    0.000000851
     23        8          -0.000000033    0.000000566    0.000011422
     24        1          -0.000004754   -0.000003397    0.000004989
     25        8           0.000074757    0.000077027   -0.000155837
     26        1          -0.000074850   -0.000110388    0.000146765
     27        1           0.000003991    0.000022400   -0.000000480
     28        8          -0.000025340    0.000022045   -0.000025980
     29        1           0.000027100   -0.000004561    0.000062251
     30        1          -0.000004881   -0.000019838   -0.000000681
 -------------------------------------------------------------------
 Cartesian Forces:  Max     0.000155837 RMS     0.000030780

 GradGradGradGradGradGradGradGradGradGradGradGradGradGradGradGradGradGrad
 Berny optimization.
 Search for a saddle point.
 Step number   1 out of a maximum of  180
 All quantities printed in internal units (Hartrees-Bohrs-Radians)
 Swapping is turned off.
 Second derivative matrix not updated -- analytic derivatives used.
 ITU=  0
     Eigenvalues ---   -0.00185   0.00029   0.00036   0.00075   0.00103
     Eigenvalues ---    0.00123   0.00160   0.00209   0.00343   0.00399
     Eigenvalues ---    0.00454   0.00620   0.00707   0.00717   0.00791
     Eigenvalues ---    0.00950   0.01140   0.01227   0.01348   0.01656
     Eigenvalues ---    0.01799   0.02145   0.02537   0.02800   0.02890
     Eigenvalues ---    0.03279   0.03524   0.04071   0.04359   0.04847
     Eigenvalues ---    0.04989   0.05092   0.05600   0.05852   0.06198
     Eigenvalues ---    0.06509   0.06941   0.07581   0.07994   0.08528
     Eigenvalues ---    0.09307   0.10361   0.10974   0.11646   0.13645
     Eigenvalues ---    0.15020   0.16499   0.16980   0.17263   0.18026
     Eigenvalues ---    0.18897   0.20066   0.21173   0.23689   0.25552
     Eigenvalues ---    0.26410   0.31502   0.38153   0.41389   0.48350
     Eigenvalues ---    0.52280   0.54907   0.56135   0.62175   0.62987
     Eigenvalues ---    0.65346   0.66636   0.68399   0.74821   0.78447
     Eigenvalues ---    0.79703   0.81455   0.83469   0.85758   0.88989
     Eigenvalues ---    0.90198   0.92883   0.96143   0.98695   1.01370
     Eigenvalues ---    1.03944   1.06237   1.08860   1.13413
 Eigenvectors required to have negative eigenvalues:
                          Y27       Y26       Y17       X17       Z27
   1                    0.60235  -0.35413   0.34869   0.34137  -0.23701
                          Z26       Z25       Y25       X18       Y7
   1                   -0.22370   0.18784   0.14841   0.11057  -0.10859
 RFO step:  Lambda0=1.765523291D-09 Lambda=-1.81867138D-07.
 Linear search not attempted -- option 19 set.
 B after Tr=    -0.000011    0.000103    0.000030
         Rot=    1.000000    0.000008    0.000007    0.000003 Ang=   0.00 deg.
 Variable       Old X    -DE/DX   Delta X   Delta X   Delta X     New X
                                 (Linear)    (Quad)   (Total)
    X1        2.89264   0.00000   0.00000  -0.00017  -0.00016   2.89248
    Y1        0.78382   0.00000   0.00000  -0.00011  -0.00004   0.78378
    Z1       -1.31582   0.00000   0.00000  -0.00018  -0.00012  -1.31594
    X2        0.46228  -0.00000   0.00000  -0.00029  -0.00034   0.46194
    Y2       -1.58300  -0.00001   0.00000   0.00077   0.00090  -1.58210
    Z2        1.95658   0.00000   0.00000   0.00030   0.00036   1.95694
    X3       -1.69822  -0.00000   0.00000  -0.00020  -0.00019  -1.69841
    Y3        0.70290   0.00000   0.00000   0.00093   0.00102   0.70392
    Z3       -1.75809  -0.00000   0.00000   0.00024   0.00024  -1.75785
    X4       -2.07458  -0.00000   0.00000  -0.00019  -0.00022  -2.07479
    Y4       -0.92262   0.00000   0.00000   0.00068   0.00081  -0.92182
    Z4        0.62259  -0.00001   0.00000   0.00010   0.00012   0.62271
    X5        0.67694  -0.00000   0.00000   0.00018   0.00020   0.67714
    Y5        2.32529   0.00000   0.00000   0.00041   0.00049   2.32578
    Z5       -1.50513   0.00001   0.00000  -0.00011  -0.00010  -1.50523
    X6        2.72618  -0.00000   0.00000  -0.00041  -0.00043   2.72574
    Y6       -1.53393  -0.00000   0.00000   0.00010   0.00019  -1.53374
    Z6        0.14422  -0.00000   0.00000   0.00014   0.00023   0.14445
    X7       -3.18642   0.00000   0.00000  -0.00045  -0.00049  -3.18691
    Y7        0.15394  -0.00000   0.00000   0.00039   0.00054   0.15448
    Z7        2.00315  -0.00000   0.00000   0.00011   0.00009   2.00324
    X8        4.43912   0.00000   0.00000  -0.00029  -0.00032   4.43880
    Y8       -1.57677  -0.00000   0.00000  -0.00007   0.00003  -1.57674
    Z8        1.31527   0.00000   0.00000  -0.00004   0.00007   1.31534
    X9        0.34735  -0.00000   0.00000  -0.00050  -0.00057   0.34678
    Y9       -3.51200  -0.00000   0.00000   0.00096   0.00110  -3.51090
    Z9        2.70172  -0.00000   0.00000   0.00078   0.00087   2.70259
   X10       -1.38022  -0.00000   0.00000  -0.00081  -0.00078  -1.38100
   Y10       -0.57160   0.00001   0.00000   0.00104   0.00109  -0.57051
   Z10       -3.35570  -0.00000   0.00000   0.00004   0.00006  -3.35564
   X11        2.80326   0.00001   0.00000  -0.00109  -0.00109   2.80216
   Y11       -3.80765   0.00000   0.00000  -0.00015  -0.00009  -3.80773
   Z11       -1.66613  -0.00001   0.00000   0.00040   0.00053  -1.66560
   X12        4.27741  -0.00000   0.00000  -0.00212  -0.00210   4.27531
   Y12       -3.47541   0.00000   0.00000  -0.00003   0.00001  -3.47541
   Z12       -3.09256  -0.00000   0.00000  -0.00061  -0.00047  -3.09303
   X13        1.00120  -0.00000   0.00000  -0.00173  -0.00172   0.99947
   Y13       -4.03332  -0.00000   0.00000  -0.00070  -0.00064  -4.03396
   Z13       -2.64864  -0.00000   0.00000   0.00168   0.00178  -2.64686
   X14        3.18619   0.00001   0.00000   0.00030   0.00026   3.18645
   Y14       -6.10890   0.00001   0.00000   0.00016   0.00024  -6.10866
   Z14       -0.32944  -0.00002   0.00000   0.00051   0.00068  -0.32875
   X15        4.89080  -0.00000   0.00000   0.00092   0.00087   4.89167
   Y15       -6.09185   0.00000   0.00000   0.00042   0.00050  -6.09135
   Z15        0.34525  -0.00001   0.00000  -0.00111  -0.00092   0.34433
   X16       -3.84049   0.00002   0.00000   0.00004   0.00008  -3.84041
   Y16        2.14603   0.00001   0.00000   0.00157   0.00166   2.14769
   Z16       -2.42792   0.00000   0.00000   0.00081   0.00076  -2.42716
   X17       -4.47672  -0.00001   0.00000  -0.00034  -0.00032  -4.47704
   Y17        2.99113  -0.00000   0.00000   0.00052   0.00063   2.99177
   Z17       -0.92447   0.00001   0.00000   0.00125   0.00117  -0.92331
   X18       -3.47566   0.00001   0.00000   0.00015   0.00012  -3.47554
   Y18       -3.09074   0.00001   0.00000   0.00057   0.00069  -3.09005
   Z18       -0.18722  -0.00002   0.00000  -0.00026  -0.00023  -0.18744
   X19       -3.71108  -0.00000   0.00000   0.00008   0.00003  -3.71106
   Y19       -4.18191  -0.00001   0.00000   0.00035   0.00049  -4.18142
   Z19        1.26869   0.00001   0.00000  -0.00040  -0.00035   1.26833
   X20        0.87447  -0.00001   0.00000  -0.00018  -0.00024   0.87423
   Y20        0.01400  -0.00000   0.00000   0.00123   0.00139   0.01540
   Z20        4.07123  -0.00000   0.00000  -0.00011  -0.00006   4.07116
   X21        0.75239  -0.00000   0.00000   0.00003  -0.00002   0.75238
   Y21        1.73819  -0.00001   0.00000   0.00110   0.00126   1.73945
   Z21        3.40899   0.00000   0.00000  -0.00048  -0.00046   3.40853
   X22        0.96771   0.00000   0.00000   0.00031   0.00036   0.96807
   Y22        3.44314   0.00000   0.00000   0.00013   0.00018   3.44332
   Z22       -3.22109   0.00000   0.00000  -0.00028  -0.00029  -3.22138
   X23        0.40767  -0.00000   0.00000   0.00073   0.00073   0.40840
   Y23        3.93758   0.00000   0.00000   0.00072   0.00083   3.93842
   Z23        0.60664   0.00001   0.00000  -0.00029  -0.00031   0.60633
   X24        1.94245  -0.00000   0.00000   0.00111   0.00112   1.94357
   Y24        5.00033  -0.00000   0.00000   0.00016   0.00027   5.00059
   Z24        0.63931   0.00000   0.00000  -0.00034  -0.00036   0.63895
   X25       -7.84087   0.00007   0.00000  -0.00081  -0.00083  -7.84170
   Y25        0.90257   0.00008   0.00000  -0.00322  -0.00307   0.89951
   Z25        0.80015  -0.00016   0.00000  -0.00072  -0.00081   0.79934
   X26       -8.51170  -0.00007   0.00000   0.00195   0.00191  -8.50980
   Y26       -0.16992  -0.00011   0.00000  -0.00558  -0.00540  -0.17533
   Z26        2.12229   0.00015   0.00000  -0.00071  -0.00079   2.12150
   X27       -7.04343   0.00000   0.00000   0.00111   0.00110  -7.04232
   Y27       -0.26016   0.00002   0.00000  -0.00092  -0.00078  -0.26094
   Z27       -0.37855  -0.00000   0.00000  -0.00166  -0.00172  -0.38027
   X28        5.39460  -0.00003   0.00000   0.00133   0.00134   5.39594
   Y28        5.26636   0.00002   0.00000  -0.00140  -0.00132   5.26504
   Z28        0.23166  -0.00003   0.00000  -0.00011  -0.00009   0.23158
   X29        6.20560   0.00003   0.00000   0.00136   0.00135   6.20695
   Y29        5.12129  -0.00000   0.00000  -0.00166  -0.00155   5.11974
   Z29        1.86830   0.00006   0.00000  -0.00001   0.00002   1.86832
   X30        5.32183  -0.00000   0.00000   0.00036   0.00037   5.32220
   Y30        3.53301  -0.00002   0.00000  -0.00149  -0.00142   3.53159
   Z30       -0.41062  -0.00000   0.00000   0.00007   0.00012  -0.41050
         Item               Value     Threshold  Converged?
 Maximum Force            0.000156     0.000450     YES
 RMS     Force            0.000031     0.000300     YES
 Maximum Displacement     0.005401     0.001800     NO 
 RMS     Displacement     0.001029     0.001200     YES
 Predicted change in Energy=-8.205839D-08
 GradGradGradGradGradGradGradGradGradGradGradGradGradGradGradGradGradGrad

                          Input orientation:                          
 ---------------------------------------------------------------------
 Center     Atomic      Atomic             Coordinates (Angstroms)
 Number     Number       Type             X           Y           Z
 ---------------------------------------------------------------------
      1          8           0        1.530636    0.414758   -0.696363
      2          6           0        0.244450   -0.837213    1.035568
      3          6           0       -0.898759    0.372498   -0.930215
      4          6           0       -1.097934   -0.487804    0.329523
      5          6           0        0.358325    1.230749   -0.796535
      6          6           0        1.442401   -0.811621    0.076441
      7          1           0       -1.686441    0.081747    1.060067
      8          1           0        2.348909   -0.834374    0.696048
      9          1           0        0.183508   -1.857886    1.430151
     10          1           0       -0.730792   -0.301901   -1.775730
     11          6           0        1.482841   -2.014966   -0.881399
     12          1           0        2.262396   -1.839107   -1.636759
     13          1           0        0.528899   -2.134679   -1.400656
     14          8           0        1.686196   -3.232562   -0.173969
     15          1           0        2.588563   -3.223405    0.182213
     16          8           0       -2.032259    1.136507   -1.284398
     17          1           0       -2.369149    1.583174   -0.488592
     18          8           0       -1.839176   -1.635184   -0.099191
     19          1           0       -1.963807   -2.212710    0.671173
     20          8           0        0.462621    0.008148    2.154366
     21          1           0        0.398141    0.920475    1.803714
     22          1           0        0.512280    1.822124   -1.704681
     23          8           0        0.216117    2.084120    0.320854
     24          1           0        1.028493    2.646200    0.338118
     25          8           0       -4.149647    0.475998    0.422992
     26          1           0       -4.503192   -0.092778    1.122650
     27          1           0       -3.726637   -0.138085   -0.201229
     28          8           0        2.855409    2.786139    0.122545
     29          1           0        3.284575    2.709247    0.988672
     30          1           0        2.816384    1.868840   -0.217227
 ---------------------------------------------------------------------
                    Distance matrix (angstroms):
                    1          2          3          4          5
     1  O    0.000000
     2  C    2.494252   0.000000
     3  C    2.440990   2.575778   0.000000
     4  C    2.962505   1.556464   1.538417   0.000000
     5  C    1.431848   2.765147   1.527981   2.518356   0.000000
     6  C    1.452246   1.534818   2.810076   2.573366   2.471555
     7  H    3.680425   2.138557   2.160139   1.097462   2.991361
     8  H    2.041743   2.131673   3.827352   3.483558   3.233413
     9  H    3.391420   1.095985   3.423046   2.174994   3.811608
    10  H    2.606279   3.023417   1.094497   2.145097   2.119909
    11  C    2.437228   2.568166   3.372593   3.234030   3.436044
    12  H    2.549456   3.495316   3.922156   4.121178   3.708838
    13  H    2.828275   2.774801   2.923262   2.890035   3.423472
    14  O    3.687823   3.046196   4.500040   3.941901   4.698082
    15  H    3.889388   3.452099   5.131221   4.592980   5.076553
    16  O    3.682516   3.802791   1.412083   2.473073   2.441677
    17  H    4.076357   3.874563   1.955201   2.564030   2.767336
    18  O    3.989299   2.503185   2.367651   1.431683   3.678161
    19  H    4.580925   2.627008   3.222121   1.960041   4.404982
    20  O    3.071261   1.419134   3.391275   2.451806   3.195848
    21  H    2.790821   1.924354   3.075158   2.528780   2.618998
    22  H    2.008590   3.827894   2.166159   3.473693   1.094603
    23  O    2.355729   3.007625   2.395365   2.888182   1.413161
    24  H    2.510305   3.638039   3.239242   3.787314   1.933925
    25  O    5.789846   4.626863   3.522804   3.201656   4.730613
    26  H    6.322458   4.806441   4.174047   3.518647   5.391599
    27  H    5.309398   4.217580   2.964626   2.704456   4.349139
    28  O    2.837090   4.558442   4.585602   5.137164   3.082105
    29  H    3.343699   4.671396   5.161667   5.464613   3.733076
    30  H    1.999268   3.937901   4.068130   4.601586   2.604767
                    6          7          8          9         10
     6  C    0.000000
     7  H    3.399306   0.000000
     8  H    1.098266   4.154015   0.000000
     9  H    2.124151   2.719530   2.505084   0.000000
    10  H    2.900538   3.016985   3.984692   3.678954   0.000000
    11  C    1.538548   4.267299   2.152257   2.656352   2.938467
    12  H    2.159439   5.153239   2.541449   3.705141   3.367713
    13  H    2.183297   3.984399   3.065844   2.865202   2.255344
    14  O    2.446037   4.886938   2.635797   2.592491   4.122649
    15  H    2.672373   5.474515   2.455387   3.034185   4.835994
    16  O    4.209555   2.593960   5.196266   4.609207   2.001060
    17  H    4.536763   2.262459   5.432125   4.694521   2.809706
    18  O    3.387898   2.077272   4.337483   2.545533   2.411833
    19  H    3.730819   2.343652   4.527687   2.304975   3.340486
    20  O    2.439214   2.412752   2.528758   2.021007   4.118983
    21  H    2.659720   2.366845   2.848143   2.811567   3.947292
    22  H    3.312723   3.937908   4.024139   4.845383   2.462064
    23  O    3.154176   2.859311   3.634168   4.095243   3.314423
    24  H    3.492323   3.803747   3.739788   4.710979   4.031717
    25  O    5.748831   2.574623   6.634973   5.023705   4.138607
    26  H    6.079586   2.822847   6.905305   5.017501   4.761863
    27  H    5.220125   2.408650   6.180792   4.572565   3.388359
    28  O    3.865565   5.368527   3.700481   5.515057   5.099046
    29  H    4.077043   5.623153   3.676731   5.538070   5.729930
    30  H    3.026374   5.010051   2.891361   4.851224   4.441116
                   11         12         13         14         15
    11  C    0.000000
    12  H    1.099637   0.000000
    13  H    1.092687   1.774295   0.000000
    14  O    1.422797   2.100828   2.012323   0.000000
    15  H    1.953002   2.308966   2.816561   0.970163   0.000000
    16  O    4.738155   5.236650   4.156164   5.843691   6.520105
    17  H    5.285710   5.872096   4.801351   6.303659   6.937729
    18  O    3.433931   4.385042   2.747924   3.871105   4.712378
    19  H    3.785361   4.829795   3.242243   3.882896   4.688779
    20  O    3.788100   4.585212   4.151419   4.173785   4.341883
    21  H    4.123496   4.788278   4.429340   4.776823   4.959733
    22  H    4.042652   4.058588   3.968501   5.410269   5.773100
    23  O    4.455615   4.838514   4.567242   5.538329   5.815285
    24  H    4.839434   5.053775   5.111726   5.937563   6.075392
    25  O    6.295335   7.121557   5.659515   6.940233   7.690710
    26  H    6.598758   7.512469   5.988186   7.060311   7.808856
    27  H    5.578886   6.389268   4.851247   6.235005   7.039032
    28  O    5.093373   4.983946   5.652189   6.138382   6.015761
    29  H    5.390881   5.350259   6.063519   6.261920   6.027534
    30  H    4.159736   4.008846   4.760384   5.225274   5.112965
                   16         17         18         19         20
    16  O    0.000000
    17  H    0.972787   0.000000
    18  O    3.020640   3.284864   0.000000
    19  H    3.878942   3.989748   0.970840   0.000000
    20  O    4.395762   4.181490   3.616259   3.608271   0.000000
    21  H    3.935728   3.654002   3.893332   4.083907   0.979518
    22  H    2.668593   3.136655   4.478830   5.296751   4.264414
    23  O    2.920617   2.754951   4.270116   4.830894   2.780682
    24  H    3.778880   3.654784   5.171558   5.716099   3.252428
    25  O    2.799068   2.286262   3.173017   3.473995   4.948692
    26  H    3.662039   3.155797   3.311932   3.338625   5.072861
    27  H    2.380915   2.210901   2.411270   2.858798   4.808336
    28  O    5.346968   5.395981   6.452627   6.965222   4.191774
    29  H    5.992419   5.951045   6.805171   7.202220   4.076543
    30  H    5.018417   5.200481   5.828066   6.348112   3.824504
                   21         22         23         24         25
    21  H    0.000000
    22  H    3.624202   0.000000
    23  O    1.893694   2.063770   0.000000
    24  H    2.350200   2.262434   0.988021   0.000000
    25  O    4.773502   5.298359   4.653642   5.615168   0.000000
    26  H    5.051098   6.067587   5.258673   6.222301   0.968515
    27  H    4.706819   4.906242   4.555884   5.536642   0.972464
    28  O    3.513573   3.123833   2.738250   1.844905   7.382264
    29  H    3.492206   3.965698   3.201905   2.348851   7.782997
    30  H    3.291124   2.742918   2.664069   2.027130   7.132705
                   26         27         28         29         30
    26  H    0.000000
    27  H    1.535495   0.000000
    28  O    7.964758   7.209663   0.000000
    29  H    8.277596   7.660304   0.969676   0.000000
    30  H    7.695415   6.843912   0.978982   1.542621   0.000000
 Stoichiometry    C6H16O8
 Framework group  C1[X(C6H16O8)]
 Deg. of freedom    84
 Full point group                 C1      NOp   1
 Largest Abelian subgroup         C1      NOp   1
 Largest concise Abelian subgroup C1      NOp   1
                         Standard orientation:                         
 ---------------------------------------------------------------------
 Center     Atomic      Atomic             Coordinates (Angstroms)
 Number     Number       Type             X           Y           Z
 ---------------------------------------------------------------------
      1          8           0       -1.530854   -0.413887   -0.696388
      2          6           0       -0.244028    0.837426    1.035543
      3          6           0        0.898562   -0.372871   -0.930240
      4          6           0        1.098177    0.487329    0.329498
      5          6           0       -0.358962   -1.230478   -0.796560
      6          6           0       -1.441992    0.812447    0.076416
      7          1           0        1.686392   -0.082523    1.060042
      8          1           0       -2.348488    0.835664    0.696023
      9          1           0       -0.182563    1.858067    1.430126
     10          1           0        0.730940    0.301614   -1.775755
     11          6           0       -1.481815    2.015812   -0.881424
     12          1           0       -2.261460    1.840353   -1.636785
     13          1           0       -0.527812    2.135037   -1.400681
     14          8           0       -1.684547    3.233512   -0.173995
     15          1           0       -2.586918    3.224817    0.182188
     16          8           0        2.031670   -1.137460   -1.284423
     17          1           0        2.368331   -1.584300   -0.488617
     18          8           0        1.840007    1.634329   -0.099216
     19          1           0        1.964933    2.211791    0.671148
     20          8           0       -0.462632   -0.007823    2.154341
     21          1           0       -0.398619   -0.920184    1.803689
     22          1           0       -0.513220   -1.821774   -1.704706
     23          8           0       -0.217191   -2.083922    0.320829
     24          1           0       -1.029854   -2.645586    0.338093
     25          8           0        4.149396   -0.478036    0.422967
     26          1           0        4.503232    0.090559    1.122625
     27          1           0        3.726701    0.136264   -0.201254
     28          8           0       -2.856842   -2.784589    0.122520
     29          1           0       -3.285968   -2.707477    0.988647
     30          1           0       -2.817348   -1.867309   -0.217252
 ---------------------------------------------------------------------
 Rotational constants (GHZ):      0.6766483      0.5304533      0.3751386
 Standard basis: 6-31G(d) (6D, 7F)
 There are   242 symmetry adapted cartesian basis functions of A   symmetry.
 There are   242 symmetry adapted basis functions of A   symmetry.
   242 basis functions,   456 primitive gaussians,   242 cartesian basis functions
    58 alpha electrons       58 beta electrons
       nuclear repulsion energy      1110.9350745394 Hartrees.
 NAtoms=   30 NActive=   30 NUniq=   30 SFac= 1.00D+00 NAtFMM=   60 NAOKFM=F Big=F
 Integral buffers will be    131072 words long.
 Raffenetti 2 integral format.
 Two-electron integral symmetry is turned on.
 One-electron integrals computed using PRISM.
 NBasis=   242 RedAO= T EigKep=  1.05D-03  NBF=   242
 NBsUse=   242 1.00D-06 EigRej= -1.00D+00 NBFU=   242
 Initial guess from the checkpoint file:  "/scratch/10501390.yak.local/Gau-10886.chk"
 B after Tr=    -0.000000   -0.000000   -0.000000
         Rot=    1.000000   -0.000014   -0.000013    0.000259 Ang=  -0.03 deg.
 Requested convergence on RMS density matrix=1.00D-08 within 128 cycles.
 Requested convergence on MAX density matrix=1.00D-06.
 Requested convergence on             energy=1.00D-06.
 No special actions if energy rises.
 SCF Done:  E(RB3LYP) =  -839.986361019     A.U. after    7 cycles
            NFock=  7  Conv=0.27D-08     -V/T= 2.0085
 Calling FoFJK, ICntrl=      2127 FMM=F ISym2X=0 I1Cent= 0 IOpClX= 0 NMat=1 NMatS=1 NMatT=0.
 ***** Axes restored to original set *****
 -------------------------------------------------------------------
 Center     Atomic                   Forces (Hartrees/Bohr)
 Number     Number              X              Y              Z
 -------------------------------------------------------------------
      1        8           0.000000703    0.000005087    0.000005849
      2        6          -0.000000840   -0.000004540   -0.000004183
      3        6           0.000000577    0.000003321    0.000000887
      4        6           0.000000065   -0.000001971   -0.000004702
      5        6           0.000001349    0.000005431    0.000006107
      6        6           0.000000082   -0.000001087   -0.000002366
      7        1          -0.000000797   -0.000002526   -0.000000235
      8        1          -0.000000240   -0.000000965   -0.000000159
      9        1          -0.000000824   -0.000002806   -0.000003315
     10        1           0.000000267    0.000003434   -0.000001033
     11        6           0.000002298    0.000005350   -0.000007111
     12        1           0.000001339    0.000003783   -0.000002187
     13        1           0.000001829    0.000002718   -0.000003461
     14        8           0.000002639    0.000002042   -0.000015207
     15        1           0.000000234    0.000000094   -0.000004960
     16        8           0.000002015    0.000006348    0.000003049
     17        1           0.000000435    0.000000248    0.000001463
     18        8           0.000001086   -0.000000379   -0.000012508
     19        1           0.000000005   -0.000001513   -0.000005734
     20        8          -0.000003950   -0.000011972    0.000000771
     21        1          -0.000001222   -0.000003012    0.000002322
     22        1           0.000000734    0.000003562    0.000004010
     23        8          -0.000002005   -0.000002846    0.000012313
     24        1          -0.000000886   -0.000000242    0.000006141
     25        8          -0.000000870   -0.000006714   -0.000004342
     26        1          -0.000000352   -0.000001963   -0.000004231
     27        1          -0.000000498    0.000000502   -0.000001653
     28        8          -0.000001824    0.000000845    0.000021124
     29        1          -0.000001174   -0.000001332    0.000007625
     30        1          -0.000000173    0.000001102    0.000005728
 -------------------------------------------------------------------
 Cartesian Forces:  Max     0.000021124 RMS     0.000004643

 GradGradGradGradGradGradGradGradGradGradGradGradGradGradGradGradGradGrad
 Berny optimization.
 Search for a saddle point.
 Step number   2 out of a maximum of  180
 All quantities printed in internal units (Hartrees-Bohrs-Radians)
 Swapping is turned off.
 Update second derivatives using D2CorN and points    1    2
 ITU=  0  0
     Eigenvalues ---   -0.00185   0.00029   0.00035   0.00077   0.00103
     Eigenvalues ---    0.00124   0.00160   0.00208   0.00343   0.00399
     Eigenvalues ---    0.00454   0.00620   0.00707   0.00717   0.00791
     Eigenvalues ---    0.00950   0.01140   0.01227   0.01348   0.01656
     Eigenvalues ---    0.01799   0.02145   0.02537   0.02800   0.02889
     Eigenvalues ---    0.03279   0.03524   0.04071   0.04359   0.04847
     Eigenvalues ---    0.04989   0.05092   0.05600   0.05852   0.06198
     Eigenvalues ---    0.06509   0.06941   0.07581   0.07994   0.08528
     Eigenvalues ---    0.09307   0.10361   0.10974   0.11646   0.13645
     Eigenvalues ---    0.15021   0.16499   0.16980   0.17263   0.18026
     Eigenvalues ---    0.18897   0.20066   0.21173   0.23689   0.25552
     Eigenvalues ---    0.26410   0.31502   0.38153   0.41389   0.48350
     Eigenvalues ---    0.52280   0.54907   0.56135   0.62175   0.62987
     Eigenvalues ---    0.65346   0.66636   0.68399   0.74821   0.78446
     Eigenvalues ---    0.79703   0.81455   0.83468   0.85758   0.88989
     Eigenvalues ---    0.90198   0.92883   0.96143   0.98695   1.01369
     Eigenvalues ---    1.03944   1.06237   1.08859   1.13413
 Eigenvectors required to have negative eigenvalues:
                          Y27       Y26       Y17       X17       Z27
   1                    0.60220  -0.35398   0.34881   0.34150  -0.23681
                          Z26       Z25       Y25       X18       Y7
   1                   -0.22385   0.18790   0.14841   0.11053  -0.10856
 RFO step:  Lambda0=1.851535418D-14 Lambda= 0.00000000D+00.
 Linear search not attempted -- option 19 set.
 B after Tr=     0.000011   -0.000001   -0.000002
         Rot=    1.000000   -0.000000   -0.000001   -0.000000 Ang=  -0.00 deg.
 Variable       Old X    -DE/DX   Delta X   Delta X   Delta X     New X
                                 (Linear)    (Quad)   (Total)
    X1        2.89248   0.00000   0.00000  -0.00000   0.00001   2.89249
    Y1        0.78378   0.00001   0.00000  -0.00001  -0.00001   0.78377
    Z1       -1.31594   0.00001   0.00000  -0.00004  -0.00004  -1.31598
    X2        0.46194  -0.00000   0.00000   0.00002   0.00003   0.46198
    Y2       -1.58210  -0.00000   0.00000   0.00002   0.00002  -1.58208
    Z2        1.95694  -0.00000   0.00000  -0.00002  -0.00002   1.95692
    X3       -1.69841   0.00000   0.00000  -0.00001  -0.00000  -1.69841
    Y3        0.70392   0.00000   0.00000  -0.00002  -0.00002   0.70390
    Z3       -1.75785   0.00000   0.00000  -0.00003  -0.00003  -1.75788
    X4       -2.07479   0.00000   0.00000   0.00001   0.00002  -2.07477
    Y4       -0.92182  -0.00000   0.00000   0.00002   0.00002  -0.92180
    Z4        0.62271  -0.00000   0.00000   0.00000   0.00000   0.62271
    X5        0.67714   0.00000   0.00000  -0.00000   0.00000   0.67714
    Y5        2.32578   0.00001   0.00000  -0.00002  -0.00002   2.32576
    Z5       -1.50523   0.00001   0.00000  -0.00006  -0.00006  -1.50530
    X6        2.72574   0.00000   0.00000   0.00000   0.00002   2.72576
    Y6       -1.53374  -0.00000   0.00000  -0.00001  -0.00001  -1.53375
    Z6        0.14445  -0.00000   0.00000  -0.00004  -0.00004   0.14441
    X7       -3.18691  -0.00000   0.00000   0.00003   0.00004  -3.18687
    Y7        0.15448  -0.00000   0.00000   0.00004   0.00004   0.15452
    Z7        2.00324  -0.00000   0.00000   0.00001   0.00001   2.00324
    X8        4.43880  -0.00000   0.00000   0.00001   0.00003   4.43882
    Y8       -1.57674  -0.00000   0.00000  -0.00001  -0.00000  -1.57674
    Z8        1.31534  -0.00000   0.00000  -0.00005  -0.00006   1.31528
    X9        0.34678  -0.00000   0.00000   0.00001   0.00003   0.34681
    Y9       -3.51090  -0.00000   0.00000   0.00003   0.00003  -3.51086
    Z9        2.70259  -0.00000   0.00000   0.00001   0.00001   2.70260
   X10       -1.38100   0.00000   0.00000  -0.00005  -0.00004  -1.38104
   Y10       -0.57051   0.00000   0.00000  -0.00005  -0.00005  -0.57056
   Z10       -3.35564  -0.00000   0.00000  -0.00001  -0.00001  -3.35566
   X11        2.80216   0.00000   0.00000  -0.00000   0.00001   2.80217
   Y11       -3.80773   0.00001   0.00000  -0.00002  -0.00002  -3.80775
   Z11       -1.66560  -0.00001   0.00000  -0.00002  -0.00002  -1.66562
   X12        4.27531   0.00000   0.00000  -0.00007  -0.00006   4.27525
   Y12       -3.47541   0.00000   0.00000   0.00001   0.00001  -3.47540
   Z12       -3.09303  -0.00000   0.00000  -0.00008  -0.00008  -3.09311
   X13        0.99947   0.00000   0.00000  -0.00004  -0.00002   0.99945
   Y13       -4.03396   0.00000   0.00000  -0.00009  -0.00009  -4.03405
   Z13       -2.64686  -0.00000   0.00000   0.00006   0.00006  -2.64680
   X14        3.18645   0.00000   0.00000   0.00012   0.00013   3.18658
   Y14       -6.10866   0.00000   0.00000   0.00001   0.00001  -6.10865
   Z14       -0.32875  -0.00002   0.00000  -0.00001  -0.00001  -0.32877
   X15        4.89167   0.00000   0.00000   0.00014   0.00016   4.89183
   Y15       -6.09135   0.00000   0.00000   0.00006   0.00006  -6.09129
   Z15        0.34433  -0.00000   0.00000  -0.00008  -0.00009   0.34425
   X16       -3.84041   0.00000   0.00000  -0.00001   0.00000  -3.84041
   Y16        2.14769   0.00001   0.00000  -0.00001  -0.00002   2.14767
   Z16       -2.42716   0.00000   0.00000  -0.00002  -0.00002  -2.42718
[...]
 09879,-0.00016214,-0.00002826,0.00030197,0.00043293,0.00062528,-0.0009
 2795,0.00004693,-0.00014770,0.00048144,0.00037388,0.00011145,-0.000115
 14,-0.00001941,0.00000349,0.00096643,0.00090721,-0.00008219,-0.0020150
 1,-0.00229610,0.00195477,0.00095228,0.00179082,0.00120242,-0.16945454,
 -0.14946877,-0.01749007,0.18685815,0.17797027,0.00087071,0.00162467,-0
 .00001888,0.00012619,-0.00014495,0.00054353,0.00252191,-0.00379455,-0.
 00535132,0.00047898,-0.00029100,-0.00054193,-0.03234366,-0.02745454,-0
 .00437758,0.00024822,-0.00024228,0.00042598,-0.00020344,0.00007746,0.0
 0027219,-0.00013466,0.00010870,-0.00003960,0.00000989,-0.00005569,-0.0
 0013097,-0.00137444,-0.00103913,0.00011317,-0.00008459,-0.00000329,-0.
 00015977,0.00002724,-0.00002605,-0.00001992,0.00000318,0.00001505,0.00
 000170,0.00001448,0.00014802,-0.00002645,0.00000629,-0.00001092,0.0000
 2868,0.00030256,0.00068647,0.00034531,-0.00023351,-0.00001332,-0.00012
 899,-0.00012227,0.00019951,0.00012512,-0.00000335,-0.00001716,0.000078
 50,-0.00145876,0.00071523,-0.00180563,0.00346096,0.00137774,0.00184437
 ,-0.00056138,0.00016889,0.00029432,0.02953240,0.00302496,-0.04369400,-
 0.00061856,0.02671066,0.06052975,-0.00080219,-0.00009707,-0.00001290,0
 .00031788,0.00068913,0.00195491,0.00173760,0.00000233,-0.00033445,-0.0
 0107834,-0.00120416,-0.00301291,0.00083474,0.00057374,0.00006226,-0.00
 012473,0.00013035,-0.00067307,-0.00126923,0.00176845,0.00207007,-0.000
 39404,-0.00001050,0.00013110,-0.00012311,0.00003501,-0.00009515,-0.000
 31893,0.00005124,0.00037083,0.00027829,-0.00045307,-0.00004896,-0.0001
 2149,0.00007009,0.00007878,0.00004329,-0.00007034,-0.00018144,-0.00026
 068,0.00055335,0.00008646,0.00007947,-0.00018209,-0.00005758,-0.004570
 78,-0.00308945,0.00442258,-0.00024101,0.00246480,-0.00046963,-0.001498
 94,0.00246910,0.00086467,-0.00018499,-0.00091888,-0.00010035,-0.000855
 42,-0.00033032,-0.00053479,0.00045083,0.00029775,0.00010840,-0.0001305
 3,-0.00013474,0.00001125,-0.00064556,-0.00067154,-0.00009320,0.0004221
 9,0.00032722,0.00006980,0.17880669,-0.00042710,0.00042214,-0.00024209,
 0.00005388,0.00009949,-0.00024394,0.00192762,-0.00183978,0.00103857,-0
 .00135037,-0.00242250,-0.00089718,0.00015247,-0.00011418,-0.00025884,-
 0.00001530,-0.00038050,0.00035446,0.00018511,-0.00031715,0.00005208,0.
 00007398,0.00006550,-0.00005208,-0.00008786,0.00013639,-0.00008456,-0.
 00029376,0.00022580,0.00000461,-0.00008642,-0.00002243,-0.00005436,0.0
 0006481,-0.00000931,-0.00001329,-0.00004306,-0.00001581,0.00011038,0.0
 0005642,0.00006013,-0.00004709,-0.00000219,0.00001736,0.00000473,-0.00
 515887,-0.00012052,0.00204365,0.00056852,0.00013194,-0.00015748,0.0050
 6251,0.00011044,-0.00039077,-0.00100004,0.00085185,-0.00017906,0.00033
 348,0.00039897,0.00029702,0.00002652,-0.00026909,0.00007487,0.00011813
 ,0.00011257,-0.00001428,-0.00025350,0.00037789,0.00002123,0.00008804,-
 0.00007111,0.00001223,-0.03058738,0.44750965,0.00063861,-0.00016499,0.
 00040637,-0.00012878,-0.00010114,0.00043431,-0.00277631,0.00277327,-0.
 00142618,-0.00050943,-0.00137034,-0.00138640,-0.00018736,-0.00052380,-
 0.00029224,-0.00012138,0.00039326,-0.00045764,0.00032944,0.00082045,0.
 00051602,-0.00006836,-0.00006534,0.00009174,0.00004807,-0.00004986,0.0
 0003611,0.00020647,-0.00036720,0.00023909,-0.00007814,-0.00004949,-0.0
 0008013,-0.00002356,0.00002703,0.00004447,0.00005434,0.00002551,-0.000
 02196,0.00000617,-0.00002988,0.00011891,0.00001697,-0.00002027,-0.0000
 2629,0.00838318,0.00128644,-0.00264114,-0.00279458,-0.00190595,-0.0012
 4060,0.00038260,0.00007543,0.00127091,0.00059505,-0.00066177,-0.000235
 35,-0.00038666,0.00004512,0.00038420,0.00026700,0.00016874,-0.00029907
 ,-0.00012328,-0.00007903,0.00008491,0.00019114,0.00011597,0.00056336,-
 0.00005016,-0.00000006,-0.00002236,-0.28152559,-0.01716508,0.48942550,
 -0.00001498,0.00011466,-0.00014104,-0.00009771,0.00002573,-0.00026694,
 0.00097275,-0.00110760,0.00054887,-0.00091654,0.00006462,0.00032042,-0
 .00014481,0.00001565,-0.00000152,-0.00001438,-0.00015471,0.00025161,-0
 .00065384,-0.00044605,-0.00010946,0.00009597,0.00002722,-0.00004104,-0
 .00003841,0.00005542,-0.00001199,-0.00008480,0.00013816,-0.00012337,-0
 .00006924,0.00011349,0.00000018,0.00004856,-0.00002419,-0.00003208,-0.
 00003578,0.00001065,0.00007758,0.00007862,-0.00011818,-0.00005604,-0.0
 0002480,0.00005367,0.00002225,-0.00208699,-0.00028743,0.00090172,0.000
 57169,0.00082717,0.00012089,0.00156724,-0.00025617,-0.00086330,-0.0007
 6030,0.00091690,0.00016850,0.00044988,0.00010582,0.00002077,-0.0001825
 7,-0.00016923,0.00008598,0.00008901,0.00007003,-0.00002789,0.00007194,
 0.00019109,-0.00011545,-0.00008744,-0.00008737,-0.00000624,-0.07100765
 ,-0.07932776,0.13513550,0.07948628,-0.00010399,-0.00006437,-0.00003341
 ,0.00003825,0.00007452,0.00001669,0.00009865,-0.00024354,0.00027854,0.
 00012724,0.00072205,0.00028977,0.00007764,0.00016387,0.00012447,0.0000
 4077,-0.00000666,-0.00000058,-0.00021905,-0.00004415,-0.00008487,-0.00
 001968,0.00000155,-0.00000479,0.00001509,-0.00002607,0.00000314,-0.000
 09299,0.00006284,-0.00005561,0.00004952,0.00000545,0.00001444,-0.00001
 614,-0.00000300,-0.00000002,0.00000181,-0.00000550,-0.00003031,-0.0000
 3034,0.00001244,0.00000054,0.00000283,-0.00000859,-0.00000092,-0.00022
 169,0.00057053,-0.00030679,0.00145481,0.00033199,-0.00006861,-0.001022
 08,-0.00049953,0.00028819,0.00068384,-0.00023845,0.00001784,-0.0000277
 3,-0.00013426,-0.00019165,-0.00004423,0.00003485,0.00007226,-0.0000017
 3,-0.00001573,-0.00001119,-0.00004799,-0.00013123,-0.00012697,0.000028
 86,0.00004156,0.00001532,-0.11114849,-0.21082335,0.22231036,0.09598182
 ,0.19575227,0.00001417,-0.00003858,-0.00002731,0.00003531,0.00002986,0
 .00018829,0.00013175,0.00009624,-0.00001133,0.00035378,0.00079225,0.00
 012715,0.00008889,0.00003098,0.00010253,0.00000285,0.00002606,-0.00002
 697,0.00011236,-0.00016279,0.00018691,-0.00002449,-0.00000571,0.000001
 24,-0.00000742,-0.00000611,0.00000947,0.00000079,0.00004956,-0.0000454
 7,0.00005011,0.00000599,0.00003324,-0.00001094,-0.00000165,-0.00000761
 ,0.00000038,-0.00000290,-0.00002743,-0.00001781,0.00000251,-0.00002626
 ,-0.00000502,-0.00000320,0.00000939,0.00032091,0.00024955,0.00030719,0
 .00085520,0.00022320,-0.00082628,-0.00140801,-0.00024750,0.00011498,0.
 00035840,-0.00013885,0.00021504,0.00002891,-0.00011125,-0.00023665,-0.
 00003946,0.00001009,0.00007800,-0.00001645,-0.00001593,-0.00001444,-0.
 00002512,-0.00008204,-0.00010896,0.00000678,0.00001903,0.00001600,0.14
 013084,0.16655675,-0.27044552,-0.15084432,-0.19479581,0.29262450,0.000
 69512,0.00005600,0.00012655,-0.00030601,-0.00035947,-0.00059085,-0.003
 53158,0.00046143,0.00054459,-0.00392350,-0.00105058,-0.00089968,-0.000
 72946,-0.00050227,-0.00034553,-0.00010796,0.00004649,0.00017745,-0.000
 04108,-0.00009455,-0.00083019,0.00019374,-0.00000527,-0.00002441,0.000
 06177,0.00001298,0.00005116,0.00017510,-0.00013994,-0.00009506,-0.0002
 3069,0.00025506,-0.00003601,0.00009971,-0.00003704,-0.00003227,-0.0000
 2908,0.00005570,0.00017083,0.00019251,-0.00036529,-0.00003472,-0.00004
 668,0.00011712,0.00003211,0.00175292,0.00240410,-0.00147998,-0.0001486
 0,-0.00353728,-0.00004520,0.00104306,-0.00178162,0.00064825,0.00113788
 ,0.00040327,-0.00001513,0.00055101,0.00034388,0.00057169,-0.00017051,-
 0.00016942,-0.00015078,0.00012245,0.00011764,0.00002991,0.00045679,0.0
 0058428,0.00029919,-0.00027304,-0.00023074,-0.00002717,-0.09927894,0.1
 0997379,0.14251231,-0.00721742,0.01439481,0.00990875,0.10952136,0.0008
 1249,-0.00037891,0.00038030,-0.00020995,-0.00067444,-0.00021637,-0.003
 60490,0.00286215,-0.00086915,0.00250722,0.00400233,0.00123739,-0.00028
 173,-0.00044261,0.00007597,0.00005144,0.00047916,-0.00029635,-0.000372
 29,-0.00051665,-0.00075511,-0.00000978,-0.00008571,0.00003278,0.000217
 86,-0.00017681,0.00017103,0.00042780,-0.00018772,-0.00018049,0.0000586
 2,0.00009825,0.00010586,-0.00006650,0.00000508,0.00000298,0.00005610,0
 .00003458,-0.00012058,-0.00002105,-0.00015799,0.00004491,-0.00001265,0
 .00000405,0.00000291,0.00561963,0.00037174,-0.00134712,-0.00267755,-0.
 00376833,-0.00063176,-0.00446663,-0.00119468,-0.00036471,0.00041701,-0
 .00066966,0.00034086,-0.00032755,-0.00030692,-0.00019564,-0.00001981,0
 .00019977,-0.00018438,-0.00013028,-0.00010212,0.00004108,0.00034114,-0
 .00001390,0.00027149,-0.00013431,-0.00002621,-0.00002515,0.13942114,-0
 .23410236,-0.20547637,-0.01672249,0.01446256,0.02751665,-0.12091941,0.
 22028683,-0.00051168,0.00023463,-0.00031540,-0.00006585,-0.00003198,-0
 .00060151,0.00228700,-0.00186357,0.00096513,-0.00155120,-0.00009585,0.
 00118201,0.00011374,0.00032961,0.00005067,0.00008642,-0.00037841,0.000
 45385,-0.00070542,-0.00062705,-0.00098687,0.00009436,0.00005544,-0.000
 08429,-0.00003018,0.00006633,-0.00003453,0.00009753,0.00016615,-0.0001
 5122,0.00002045,0.00004040,0.00004349,0.00004505,-0.00002344,-0.000035
 60,-0.00005164,-0.00001792,0.00008053,0.00002173,0.00000971,-0.0001069
 9,-0.00001578,0.00002939,0.00002090,-0.00260435,-0.00042700,-0.0013848
 5,-0.00022818,-0.00012446,0.00149620,0.00282760,-0.00033055,-0.0020341
 4,-0.00130212,0.00101776,-0.00013411,0.00036420,0.00015269,-0.00005551
 ,-0.00016514,-0.00020319,0.00016039,0.00011892,0.00008946,-0.00003919,
 -0.00016439,0.00000929,-0.00034946,0.00003286,-0.00003067,-0.00000674,
 0.13673669,-0.15077062,-0.21503605,0.01499538,-0.02772387,-0.02221205,
 -0.15043466,0.18044825,0.23911147,0.00145195,-0.00824464,-0.00160258,-
 0.00001779,0.00044716,0.00058200,0.00138229,-0.00051783,-0.00081525,0.
 00034359,0.00096518,-0.00025292,-0.00294927,0.00677281,0.00789749,-0.0
 0091584,0.00219321,-0.00203432,0.00019491,-0.00008298,-0.00008451,0.00
 025943,-0.00041561,0.00051043,-0.00014099,-0.00018058,0.00009679,-0.00
 050396,-0.00040480,-0.00016352,-0.00023572,0.00034320,0.00060966,0.000
 08958,-0.00005050,-0.00015876,0.00002364,0.00010419,0.00004631,0.00032
 769,-0.00090702,-0.00013348,-0.00017179,0.00013202,0.00008220,-0.00082
 278,-0.00027373,-0.00015412,0.00085384,0.00021017,0.00005962,-0.000420
 61,-0.00082230,-0.00004771,0.00006091,0.00007971,0.00004016,0.00017677
 ,-0.00149751,0.00064036,0.00013736,0.00172825,-0.00202645,0.00017377,-
 0.00034889,-0.00084645,-0.02145057,-0.01112709,-0.00311644,0.00599044,
 -0.00103749,0.00163014,-0.00054388,-0.00004091,0.00001648,0.00013148,-
 0.00003917,-0.00000917,0.00035613,0.00012131,0.00000285,0.14106387,-0.
 00823772,-0.00725189,-0.00335592,0.00041600,-0.00040411,-0.00026628,0.
 00029152,0.00056004,0.00037593,0.00045636,0.00023692,-0.00000820,0.003
 75536,-0.00393018,0.00041183,-0.00054810,0.00306873,-0.00241700,-0.000
 06378,0.00001357,0.00000909,0.00021157,0.00022299,0.00018913,-0.000234
 33,-0.00007429,0.00018353,0.00011678,0.00012391,0.00007119,-0.00017347
 ,0.00039775,0.00063373,0.00002672,0.00004557,0.00002081,-0.00002425,-0
 .00003961,-0.00004861,0.00016488,-0.00097844,-0.00004128,-0.00010256,0
 .00022683,0.00001976,-0.00112932,0.00029942,-0.00013282,0.00017281,-0.
 00015612,-0.00005304,-0.00047373,-0.00023441,-0.00004873,0.00016286,0.
 00002474,0.00000531,-0.00073076,0.00008575,0.00050128,0.00084241,-0.00
 014337,-0.00053362,-0.00023107,0.00008748,-0.00023859,-0.00462345,0.00
 415374,0.00118671,-0.00045030,-0.00785875,-0.00199831,-0.00033808,0.00
 006875,0.00003034,0.00008714,-0.00004716,-0.00002089,0.00023775,0.0000
 2563,0.00001197,-0.01046193,0.47854137,-0.00343256,-0.00381241,0.00258
 734,-0.00005069,-0.00113255,-0.00080310,-0.00003906,0.00041434,0.00066
 485,-0.00007870,-0.00007111,-0.00011340,0.00286614,-0.00156438,-0.0031
 1915,-0.00135080,0.00060415,-0.00140397,-0.00008073,0.00002621,0.00003
 507,0.00022691,-0.00039518,0.00005020,-0.00008878,0.00006409,0.0001836
 1,0.00017108,0.00016416,0.00005584,0.00011325,-0.00000420,0.00025765,-
 0.00006345,0.00007835,0.00010004,-0.00001398,0.00004790,0.00001814,-0.
 00000937,-0.00032217,0.00013617,0.00000202,0.00000591,-0.00008369,-0.0
 0030527,-0.00003734,0.00008277,-0.00005485,-0.00003093,-0.00009500,0.0
 0004567,0.00004633,0.00017237,-0.00001187,-0.00004804,-0.00001909,0.00
 072370,0.00084044,0.00072212,-0.00115567,-0.00060717,-0.00017000,0.000
 17668,0.00009277,0.00096867,0.00087524,0.00053957,0.00693273,-0.001204
 76,-0.00028339,-0.01073493,0.00000356,0.00001233,0.00007970,-0.0000194
 1,-0.00002158,-0.00002218,0.00001863,0.00002013,-0.00004175,0.21840192
 ,0.10281016,0.49240272,0.00017023,0.00043040,0.00063251,-0.00010352,-0
 .00037566,-0.00050259,-0.00018582,0.00009811,0.00006151,-0.00014094,-0
 .00011554,0.00001645,0.00042614,-0.00010359,-0.00095728,-0.00004986,-0
 .00045912,0.00005936,-0.00003514,0.00002135,0.00000004,0.00005006,-0.0
 0008049,-0.00005437,0.00005353,0.00007865,0.00003041,0.00005417,0.0000
 3664,0.00001475,0.00008617,-0.00017802,-0.00003182,-0.00002572,0.00002
 916,0.00005636,-0.00000674,0.00001625,0.00000550,-0.00008038,0.0001953
 2,0.00004248,0.00005253,-0.00005124,-0.00003273,0.00016791,-0.00003807
 ,0.00006063,-0.00008543,-0.00001116,-0.00001797,0.00016540,0.00015333,
 0.00008499,-0.00004238,-0.00003740,-0.00001379,0.00053035,0.00060419,0
 .00032727,-0.00084182,-0.00045158,-0.00007376,-0.00000605,0.00005012,0
 .00027388,-0.00098410,-0.00059739,0.00259967,-0.00059031,0.00089335,-0
 .00560821,0.00011777,0.00000653,0.00002754,-0.00003946,0.00000013,-0.0
 0000695,-0.00006923,-0.00001118,-0.00001735,-0.10306507,0.01302990,-0.
 19785392,0.10548546,-0.00028567,-0.00124041,0.00081477,-0.00011308,-0.
 00034319,-0.00008464,-0.00014506,0.00006999,-0.00010469,-0.00011445,-0
 .00006329,-0.00002088,-0.00003741,-0.00013738,-0.00040076,-0.00071968,
 -0.00017408,-0.00047942,0.00000600,-0.00000320,0.00000132,0.00017216,-
 0.00027101,0.00011698,0.00001431,0.00003859,0.00002011,0.00001097,0.00
 000685,0.00000508,0.00013515,-0.00020309,0.00008670,-0.00001499,0.0000
 1204,0.00000135,0.00000478,0.00007012,0.00004249,-0.00001921,0.0001379
 4,0.00001712,0.00001478,-0.00009736,-0.00002983,0.00021979,-0.00008966
 ,0.00006226,-0.00008442,0.00003934,0.00000482,0.00019984,0.00009579,0.
 00005376,-0.00006313,-0.00001609,-0.00000103,0.00065489,0.00029080,-0.
 00002838,-0.00058396,0.00005894,0.00013591,-0.00003625,-0.00005023,0.0
 0002833,0.00074503,0.00015982,0.00013142,-0.00121568,-0.00008872,0.000
 84103,0.00012665,-0.00002833,-0.00000420,-0.00003642,0.00001765,0.0000
 0771,-0.00008491,-0.00000291,-0.00001054,0.03984114,-0.05065263,0.0596
 8683,-0.01682263,0.04817694,0.00040296,0.00018162,0.00031228,-0.000000
 64,0.00015872,0.00029216,-0.00012086,-0.00005742,-0.00000638,-0.000000
 65,-0.00005078,-0.00000562,-0.00019184,-0.00000788,-0.00040357,-0.0000
 9868,-0.00026523,0.00009266,0.00001819,-0.00000837,0.00000540,-0.00000
 908,-0.00003882,0.00007862,0.00001181,-0.00000544,-0.00003379,0.000017
 54,0.00000775,-0.00000050,0.00000617,-0.00005896,0.00002107,0.00001344
 ,-0.00001577,-0.00004022,0.00000429,0.00001161,0.00000231,0.00000855,0
 .00008774,-0.00005482,-0.00000876,-0.00002522,0.00002929,0.00011634,0.
 00001811,-0.00000531,-0.00004890,-0.00000791,0.00001614,0.00001218,0.0
 0002294,-0.00004010,-0.00000283,0.00000943,0.00000591,-0.00017216,-0.0
 0017998,-0.00038829,0.00022576,0.00003348,0.00035126,-0.00002390,-0.00
 002601,0.00000170,0.00211840,0.00101019,-0.00048624,-0.00266532,-0.000
 39850,0.00139610,0.00002772,-0.00000482,-0.00002711,0.00000008,0.00001
 039,0.00001025,-0.00002499,-0.00001031,0.00001189,-0.19229067,0.004664
 33,-0.39929431,0.20162105,-0.01578197,0.41468334,0.00075996,0.00535312
 ,0.00019328,-0.00036211,0.00070367,0.00004205,-0.00066834,-0.00020410,
 -0.00052104,-0.00035590,-0.00038165,0.00024944,-0.00807156,0.00080483,
 -0.00206634,0.00185570,-0.00376215,0.00357789,0.00000934,0.00002213,-0
 .00003769,-0.00030444,0.00049156,-0.00069128,0.00031053,0.00009623,-0.
 00027308,0.00002343,-0.00005605,-0.00003678,0.00024255,-0.00027590,-0.
 00107919,-0.00006281,-0.00000526,0.00013463,-0.00001490,-0.00007813,0.
 00000642,-0.00030979,0.00117469,0.00014624,0.00018143,-0.00014041,-0.0
 0006496,0.00109615,-0.00013586,0.00009232,-0.00027880,0.00002612,0.000
 06667,0.00040697,0.00043621,-0.00003920,-0.00009824,-0.00002222,-0.000
 02140,0.00012940,0.00018619,-0.00059722,-0.00028248,-0.00028280,0.0008
 7676,0.00004433,0.00006306,-0.00019450,0.00114539,-0.00218786,-0.00092
 719,-0.00260336,0.00725948,0.00347730,0.00036170,-0.00001731,-0.000037
 31,-0.00008631,0.00003926,0.00001498,-0.00025576,-0.00006371,0.0000031
 6,-0.02177937,0.00785079,-0.01781092,-0.00100774,-0.02176853,-0.008945
 22,0.02997502,0.00611481,-0.00201138,0.00046102,-0.00037975,0.00118922
 ,0.00072280,0.00016269,-0.00126262,-0.00026219,-0.00051785,-0.00014251
 ,-0.00006426,-0.00444745,0.00969998,0.00128347,0.00055199,-0.00424668,
 0.00249792,0.00013495,-0.00004345,-0.00002287,-0.00023037,0.00004599,-
 0.00006108,0.00031484,0.00003401,-0.00029341,-0.00023001,-0.00023837,-
 0.00011137,0.00015265,-0.00047276,-0.00062370,0.00000705,-0.00009063,-
 0.00006853,0.00003575,0.00006460,0.00004241,-0.00013505,0.00102638,0.0
 0000148,0.00010912,-0.00022747,0.00000211,0.00134583,-0.00029372,0.000
 11463,0.00002942,0.00017805,0.00009093,0.00037607,0.00009484,0.0000175
 6,-0.00015378,-0.00001273,-0.00000479,0.00026614,-0.00074950,-0.000613
 69,-0.00014366,0.00064505,0.00004765,0.00041494,-0.00042590,0.00040964
 ,-0.00241468,-0.00425743,-0.00207474,0.00654991,0.00075160,-0.00060962
 ,0.00025574,-0.00005246,-0.00003717,-0.00006167,0.00003749,0.00001678,
 -0.00018648,-0.00002417,-0.00000196,-0.01648538,-0.41641220,-0.1571232
 4,0.00368964,0.00428680,0.01072709,0.00487460,0.41290998,0.00038352,0.
 00064134,-0.00506637,0.00004038,0.00151699,0.00054730,-0.00001628,-0.0
 0031867,-0.00031074,-0.00001446,0.00003475,0.00011797,-0.00199139,0.00
 266682,0.00359786,0.00261302,-0.00043764,0.00146848,0.00007354,-0.0000
 0806,-0.00004816,-0.00028651,0.00065593,-0.00011215,0.00016997,-0.0000
 4572,-0.00023091,-0.00011803,-0.00011175,-0.00005299,-0.00019812,-0.00
 005632,-0.00024823,0.00008005,-0.00009938,-0.00011738,0.00002802,-0.00
 006912,-0.00003704,0.00000494,0.00035935,-0.00015682,0.00000953,0.0000
 0317,0.00009238,0.00036045,-0.00002195,-0.00007607,0.00006601,0.000042
 34,0.00007597,-0.00002966,-0.00004097,-0.00014178,0.00000118,0.0000356
 5,0.00000213,-0.00076781,-0.00093126,-0.00043553,0.00080584,0.00030347
 ,-0.00010457,-0.00033926,0.00005963,-0.00065869,-0.00260070,-0.0016879
 1,-0.00237929,0.00489159,-0.00094293,0.00104435,0.00001012,-0.00000734
 ,-0.00005753,0.00001035,0.00001502,0.00001428,-0.00002478,-0.00001911,
 0.00003374,-0.02688006,-0.10196182,-0.08954941,-0.00074367,-0.04511164
 ,-0.01652410,0.02446218,0.14553713,0.10931329\\-0.00000072,-0.00000510
 ,-0.00000584,0.00000090,0.00000451,0.00000415,-0.00000053,-0.00000330,
 -0.00000091,-0.00000007,0.00000199,0.00000472,-0.00000136,-0.00000540,
 -0.00000608,-0.00000009,0.00000109,0.00000238,0.00000079,0.00000252,0.
 00000023,0.00000024,0.00000096,0.00000016,0.00000082,0.00000281,0.0000
 0332,-0.00000027,-0.00000344,0.00000103,-0.00000230,-0.00000533,0.0000
 0712,-0.00000134,-0.00000379,0.00000218,-0.00000183,-0.00000272,0.0000
 0346,-0.00000264,-0.00000205,0.00001520,-0.00000023,-0.00000009,0.0000
 0496,-0.00000203,-0.00000634,-0.00000303,-0.00000043,-0.00000025,-0.00
 000147,-0.00000111,0.00000035,0.00001251,0.,0.00000152,0.00000573,0.00
 000394,0.00001199,-0.00000077,0.00000122,0.00000301,-0.00000232,-0.000
 00074,-0.00000357,-0.00000401,0.00000201,0.00000282,-0.00001233,0.0000
 0087,0.00000024,-0.00000614,0.00000088,0.00000670,0.00000434,0.0000003
 5,0.00000196,0.00000423,0.00000049,-0.00000049,0.00000166,0.00000183,-
 0.00000086,-0.00002112,0.00000117,0.00000133,-0.00000763,0.00000017,-0
 .00000109,-0.00000573\\\@


 The theorems and results in mathematical physics are
 not theorems and results about Nature, but about our
 description of it.
                   --Gerard 't Hooft
 Job cpu time:       0 days  0 hours 37 minutes 44.5 seconds.
 File lengths (MBytes):  RWF=    220 Int=      0 D2E=      0 Chk=      6 Scr=      1
 Normal termination of Gaussian 09 at Tue Jan 31 07:37:45 2017.
