 Entering Gaussian System, Link 0=g09
 Initial command:
 /home/chongee/g09/l1.exe "/home/chongee/BasisSet/Gau-1349.inp" -scrdir="/home/chongee/BasisSet/"
 Entering Link 1 = /home/chongee/g09/l1.exe PID=      1351.
  
 Copyright (c) 1988,1990,1992,1993,1995,1998,2003,2009,2013,
            Gaussian, Inc.  All Rights Reserved.
  
 This is part of the Gaussian(R) 09 program.  It is based on
 the Gaussian(R) 03 system (copyright 2003, Gaussian, Inc.),
 the Gaussian(R) 98 system (copyright 1998, Gaussian, Inc.),
 the Gaussian(R) 94 system (copyright 1995, Gaussian, Inc.),
 the Gaussian 92(TM) system (copyright 1992, Gaussian, Inc.),
 the Gaussian 90(TM) system (copyright 1990, Gaussian, Inc.),
 the Gaussian 88(TM) system (copyright 1988, Gaussian, Inc.),
 the Gaussian 86(TM) system (copyright 1986, Carnegie Mellon
 University), and the Gaussian 82(TM) system (copyright 1983,
 Carnegie Mellon University). Gaussian is a federally registered
 trademark of Gaussian, Inc.
  
 This software contains proprietary and confidential information,
 including trade secrets, belonging to Gaussian, Inc.
  
 This software is provided under written license and may be
 used, copied, transmitted, or stored only in accord with that
 written license.
  
 The following legend is applicable only to US Government
 contracts under FAR:
  
                    RESTRICTED RIGHTS LEGEND
  
 Use, reproduction and disclosure by the US Government is
 subject to restrictions as set forth in subparagraphs (a)
 and (c) of the Commercial Computer Software - Restricted
 Rights clause in FAR 52.227-19.
  
 Gaussian, Inc.
 340 Quinnipiac St., Bldg. 40, Wallingford CT 06492
  
  
 ---------------------------------------------------------------
 Warning -- This program may not be used in any manner that
 competes with the business of Gaussian, Inc. or will provide
 assistance to any competitor of Gaussian, Inc.  The licensee
 of this program is prohibited from giving any competitor of
 Gaussian, Inc. access to this program.  By using this program,
 the user acknowledges that Gaussian, Inc. is engaged in the
 business of creating and licensing software in the field of
 computational chemistry and represents and warrants to the
 licensee that it is not a competitor of Gaussian, Inc. and that
 it will not use this program in any manner prohibited above.
 ---------------------------------------------------------------
  

 Cite this work as:
 Gaussian 09, Revision D.01,
 M. J. Frisch, G. W. Trucks, H. B. Schlegel, G. E. Scuseria, 
 M. A. Robb, J. R. Cheeseman, G. Scalmani, V. Barone, B. Mennucci, 
 G. A. Petersson, H. Nakatsuji, M. Caricato, X. Li, H. P. Hratchian, 
 A. F. Izmaylov, J. Bloino, G. Zheng, J. L. Sonnenberg, M. Hada, 
 M. Ehara, K. Toyota, R. Fukuda, J. Hasegawa, M. Ishida, T. Nakajima, 
 Y. Honda, O. Kitao, H. Nakai, T. Vreven, J. A. Montgomery, Jr., 
 J. E. Peralta, F. Ogliaro, M. Bearpark, J. J. Heyd, E. Brothers, 
 K. N. Kudin, V. N. Staroverov, T. Keith, R. Kobayashi, J. Normand, 
 K. Raghavachari, A. Rendell, J. C. Burant, S. S. Iyengar, J. Tomasi, 
 M. Cossi, N. Rega, J. M. Millam, M. Klene, J. E. Knox, J. B. Cross, 
 V. Bakken, C. Adamo, J. Jaramillo, R. Gomperts, R. E. Stratmann, 
 O. Yazyev, A. J. Austin, R. Cammi, C. Pomelli, J. W. Ochterski, 
 R. L. Martin, K. Morokuma, V. G. Zakrzewski, G. A. Voth, 
 P. Salvador, J. J. Dannenberg, S. Dapprich, A. D. Daniels, 
 O. Farkas, J. B. Foresman, J. V. Ortiz, J. Cioslowski, 
 and D. J. Fox, Gaussian, Inc., Wallingford CT, 2013.
 
 ******************************************
 Gaussian 09:  EM64L-G09RevD.01 24-Apr-2013
                17-Nov-2016 
 ******************************************
 ---------------------------
 # opt=cartesian freq hf/gen
 ---------------------------
 1/10=7,18=10,38=1/1,3;
 2/12=2,17=6,18=5,29=2,40=1/2;
 3/5=7,11=9,16=1,25=1,30=1,71=1/1,2,3;
 4//1;
 5/5=2,38=5/2;
 6/7=2,8=2,9=2,10=2,28=1/1;
 7/7=1,29=1/1,2,3,16;
 1/10=7,18=10/3(2);
 2/29=1/2;
 99/12=1/99;
 2/29=1/2;
 3/5=7,6=1,11=9,16=1,25=1,30=1,71=1,82=7/1,2,3;
 4/5=5,16=3,69=1/1;
 5/5=2,38=5/2;
 7/7=1/1,2,3,16;
 1/18=10/3(-5);
 2/29=1/2;
 6/7=2,8=2,9=2,10=2,19=2,28=1/1;
 99/9=1,12=1/99;
 ----
 chch
 ----
 Symbolic Z-matrix:
 Charge =  0 Multiplicity = 1
 C                    -6.59034   1.19069   0. 
 C                    -5.38634   1.24766   0. 
 H                    -7.64754   1.14067   0. 
 H                    -4.32914   1.29768   0. 
 

 GradGradGradGradGradGradGradGradGradGradGradGradGradGradGradGradGradGrad
 Berny optimization.
 Initialization pass.
 No Z-matrix variables, so optimization will use Cartesian coordinates.
 Trust Radius=3.00D-01 FncErr=1.00D-07 GrdErr=1.00D-07
 Number of steps in this run=     22 maximum allowed number of steps=    100.
 GradGradGradGradGradGradGradGradGradGradGradGradGradGradGradGradGradGrad

 ---------------------------------------------------------------------------------------------------
                            Z-MATRIX (ANGSTROMS AND DEGREES)
   CD    Cent   Atom    N1       Length/X        N2       Alpha/Y        N3        Beta/Z          J
 ---------------------------------------------------------------------------------------------------
      1      1  C        0  -6.590340          1.190690          0.000000
      2      2  C        0  -5.386340          1.247660          0.000000
      3      3  H        0  -7.647540          1.140670          0.000000
      4      4  H        0  -4.329140          1.297680          0.000000
 ---------------------------------------------------------------------------------------------------
                         Z-Matrix orientation:                         
 ---------------------------------------------------------------------
 Center     Atomic      Atomic             Coordinates (Angstroms)
 Number     Number       Type             X           Y           Z
 ---------------------------------------------------------------------
      1          6           0       -6.590340    1.190690    0.000000
      2          6           0       -5.386340    1.247660    0.000000
      3          1           0       -7.647540    1.140670    0.000000
      4          1           0       -4.329140    1.297680    0.000000
 ---------------------------------------------------------------------
                    Distance matrix (angstroms):
                    1          2          3          4
     1  C    0.000000
     2  C    1.205347   0.000000
     3  H    1.058383   2.263730   0.000000
     4  H    2.263730   1.058383   3.322112   0.000000
 Stoichiometry    C2H2
 Framework group  C*V[C*(HCCH)]
 Deg. of freedom     3
 Full point group                 C*V     NOp   4
 Largest Abelian subgroup         C2V     NOp   4
 Largest concise Abelian subgroup C1      NOp   1
                         Standard orientation:                         
 ---------------------------------------------------------------------
 Center     Atomic      Atomic             Coordinates (Angstroms)
 Number     Number       Type             X           Y           Z
 ---------------------------------------------------------------------
      1          6           0        0.000000    0.000000    0.602674
      2          6           0        0.000000    0.000000   -0.602674
      3          1           0        0.000000    0.000000    1.661056
      4          1           0        0.000000    0.000000   -1.661056
 ---------------------------------------------------------------------
 Rotational constants (GHZ):      0.0000000     35.3942432     35.3942432
 General basis read from cards:  (5D, 7F)
 There are    14 symmetry adapted cartesian basis functions of A1  symmetry.
 There are     0 symmetry adapted cartesian basis functions of A2  symmetry.
 There are     4 symmetry adapted cartesian basis functions of B1  symmetry.
 There are     4 symmetry adapted cartesian basis functions of B2  symmetry.
 There are    14 symmetry adapted basis functions of A1  symmetry.
 There are     0 symmetry adapted basis functions of A2  symmetry.
 There are     4 symmetry adapted basis functions of B1  symmetry.
 There are     4 symmetry adapted basis functions of B2  symmetry.
    22 basis functions,    52 primitive gaussians,    22 cartesian basis functions
     7 alpha electrons        7 beta electrons
       nuclear repulsion energy        24.7691816250 Hartrees.
 NAtoms=    4 NActive=    4 NUniq=    4 SFac= 1.00D+00 NAtFMM=   60 NAOKFM=F Big=F
 Integral buffers will be    131072 words long.
 Raffenetti 1 integral format.
 Two-electron integral symmetry is turned on.
 One-electron integrals computed using PRISM.
 NBasis=    22 RedAO= T EigKep=  1.45D-02  NBF=    14     0     4     4
 NBsUse=    22 1.00D-06 EigRej= -1.00D+00 NBFU=    14     0     4     4
 ExpMin= 9.07D-02 ExpMax= 7.47D+02 ExpMxC= 1.37D+02 IAcc=2 IRadAn=         4 AccDes= 0.00D+00
 Harris functional with IExCor=  205 and IRadAn=       4 diagonalized for initial guess.
 HarFok:  IExCor=  205 AccDes= 0.00D+00 IRadAn=         4 IDoV= 1 UseB2=F ITyADJ=14
 ICtDFT=  3500011 ScaDFX=  1.000000  1.000000  1.000000  1.000000
 FoFCou: FMM=F IPFlag=           0 FMFlag=      100000 FMFlg1=           0
         NFxFlg=           0 DoJE=T BraDBF=F KetDBF=T FulRan=T
         wScrn=  0.000000 ICntrl=     500 IOpCl=  0 I1Cent=   200000004 NGrid=           0
         NMat0=    1 NMatS0=      1 NMatT0=    0 NMatD0=    1 NMtDS0=    0 NMtDT0=    0
 Petite list used in FoFCou.
 Initial guess orbital symmetries:
       Occupied  (SG) (SG) (SG) (SG) (SG) (PI) (PI)
       Virtual   (PI) (PI) (SG) (SG) (SG) (SG) (PI) (PI) (SG) (PI)
                 (PI) (SG) (SG) (SG) (SG)
 The electronic state of the initial guess is 1-SG.
 Keep R1 ints in memory in symmetry-blocked form, NReq=866565.
 Requested convergence on RMS density matrix=1.00D-08 within 128 cycles.
 Requested convergence on MAX density matrix=1.00D-06.
 Requested convergence on             energy=1.00D-06.
 No special actions if energy rises.
 SCF Done:  E(RHF) =  -76.6911529052     A.U. after    8 cycles
            NFock=  8  Conv=0.48D-08     -V/T= 2.0027

 **********************************************************************

            Population analysis using the SCF density.

 **********************************************************************

 Orbital symmetries:
       Occupied  (SG) (SG) (SG) (SG) (SG) (PI) (PI)
       Virtual   (PI) (PI) (SG) (SG) (SG) (SG) (PI) (PI) (SG) (SG)
                 (PI) (PI) (SG) (SG) (SG)
 The electronic state is 1-SG.
 Alpha  occ. eigenvalues --  -11.24327 -11.24021  -1.03698  -0.76084  -0.67961
 Alpha  occ. eigenvalues --   -0.40867  -0.40867
 Alpha virt. eigenvalues --    0.20594   0.20594   0.21531   0.24602   0.33205
 Alpha virt. eigenvalues --    0.33384   0.78332   0.78332   0.84346   0.92735
 Alpha virt. eigenvalues --    0.94598   0.94598   1.21260   1.23449   1.65869
          Condensed to atoms (all electrons):
               1          2          3          4
     1  C    5.052822   0.847582   0.377400  -0.043532
     2  C    0.847582   5.052822  -0.043532   0.377400
     3  H    0.377400  -0.043532   0.431610   0.000249
     4  H   -0.043532   0.377400   0.000249   0.431610
 Mulliken charges:
               1
     1  C   -0.234272
     2  C   -0.234272
     3  H    0.234272
     4  H    0.234272
 Sum of Mulliken charges =   0.00000
 Mulliken charges with hydrogens summed into heavy atoms:
               1
     1  C    0.000000
     2  C    0.000000
 Electronic spatial extent (au):  <R**2>=             60.8394
 Charge=              0.0000 electrons
 Dipole moment (field-independent basis, Debye):
    X=              0.0000    Y=              0.0000    Z=              0.0000  Tot=              0.0000
 Quadrupole moment (field-independent basis, Debye-Ang):
   XX=            -13.6993   YY=            -13.6993   ZZ=             -6.9921
   XY=              0.0000   XZ=              0.0000   YZ=              0.0000
 Traceless Quadrupole moment (field-independent basis, Debye-Ang):
   XX=             -2.2357   YY=             -2.2357   ZZ=              4.4715
   XY=              0.0000   XZ=              0.0000   YZ=              0.0000
 Octapole moment (field-independent basis, Debye-Ang**2):
  XXX=              0.0000  YYY=              0.0000  ZZZ=              0.0000  XYY=              0.0000
  XXY=              0.0000  XXZ=              0.0000  XZZ=              0.0000  YZZ=              0.0000
  YYZ=              0.0000  XYZ=              0.0000
 Hexadecapole moment (field-independent basis, Debye-Ang**3):
 XXXX=            -14.5289 YYYY=            -14.5289 ZZZZ=            -36.3174 XXXY=              0.0000
 XXXZ=              0.0000 YYYX=              0.0000 YYYZ=              0.0000 ZZZX=              0.0000
 ZZZY=              0.0000 XXYY=             -4.8430 XXZZ=            -11.8454 YYZZ=            -11.8454
 XXYZ=              0.0000 YYXZ=              0.0000 ZZXY=              0.0000
 N-N= 2.476918162499D+01 E-N=-2.278455757252D+02  KE= 7.648143131571D+01
 Symmetry A1   KE= 7.229444166932D+01
 Symmetry A2   KE= 0.000000000000D+00
 Symmetry B1   KE= 2.093494823197D+00
 Symmetry B2   KE= 2.093494823197D+00
 Calling FoFJK, ICntrl=      2127 FMM=F ISym2X=1 I1Cent= 0 IOpClX= 0 NMat=1 NMatS=1 NMatT=0.
 ***** Axes restored to original set *****
 -------------------------------------------------------------------
 Center     Atomic                   Forces (Hartrees/Bohr)
 Number     Number              X              Y              Z
 -------------------------------------------------------------------
      1        6           0.026189873    0.001239200    0.000000000
      2        6          -0.026189873   -0.001239200    0.000000000
      3        1          -0.000657645   -0.000031117    0.000000000
      4        1           0.000657645    0.000031117    0.000000000
 -------------------------------------------------------------------
 Cartesian Forces:  Max     0.026189873 RMS     0.010707307

 GradGradGradGradGradGradGradGradGradGradGradGradGradGradGradGradGradGrad
 Berny optimization.
 Search for a local minimum.
 Step number   1 out of a maximum of   22
 All quantities printed in internal units (Hartrees-Bohrs-Radians)
 Second derivative matrix not updated -- first step.
 The second derivative matrix:
                          X1        Y1        Z1        X2        Y2
           X1           1.40643
           Y1           0.05841   0.17468
           Z1           0.00000   0.00000   0.17192
           X2          -1.01983  -0.04201   0.00000   1.40643
           Y2          -0.04201  -0.13391   0.00000   0.05841   0.17468
           Z2           0.00000   0.00000  -0.13192   0.00000   0.00000
           X3          -0.38668  -0.01474   0.00000   0.00008  -0.00166
           Y3          -0.01474  -0.07582   0.00000  -0.00166   0.03504
           Z3           0.00000   0.00000  -0.07512   0.00000   0.00000
           X4           0.00008  -0.00166   0.00000  -0.38668  -0.01474
           Y4          -0.00166   0.03504   0.00000  -0.01474  -0.07582
           Z4           0.00000   0.00000   0.03512   0.00000   0.00000
                          Z2        X3        Y3        Z3        X4
           Z2           0.17192
           X3           0.00000   0.38660
           Y3           0.00000   0.01640   0.04077
           Z3           0.03512   0.00000   0.00000   0.04000
           X4           0.00000   0.00000   0.00000   0.00000   0.38660
           Y4           0.00000   0.00000   0.00000   0.00000   0.01640
           Z4          -0.07512   0.00000   0.00000   0.00000   0.00000
                          Y4        Z4
           Y4           0.04077
           Z4           0.00000   0.04000
 ITU=  0
     Eigenvalues ---    0.06799   0.06799   0.29688   0.29688   0.31641
     Eigenvalues ---    0.65849   2.50197
 RFO step:  Lambda=-6.41292833D-04 EMin= 6.79905406D-02
 ClnCor:  largest displacement from symmetrization is 1.12D-16 for atom     4.
 Linear search not attempted -- first point.
 ClnCor:  largest displacement from symmetrization is 2.22D-22 for atom     3.
 TrRot=  0.000000  0.000000  0.000000  0.000000  0.000000  0.000000
 Variable       Old X    -DE/DX   Delta X   Delta X   Delta X     New X
                                 (Linear)    (Quad)   (Total)
    X1      -12.45394   0.02619   0.00000   0.01249   0.01249 -12.44145
    Y1        2.25008   0.00124   0.00000   0.00059   0.00059   2.25067
    Z1        0.00000   0.00000   0.00000   0.00000   0.00000   0.00000
    X2      -10.17871  -0.02619   0.00000  -0.01249  -0.01249 -10.19119
    Y2        2.35773  -0.00124   0.00000  -0.00059  -0.00059   2.35714
    Z2        0.00000   0.00000   0.00000   0.00000   0.00000   0.00000
    X3      -14.45176  -0.00066   0.00000   0.01077   0.01077 -14.44099
    Y3        2.15555  -0.00003   0.00000   0.00051   0.00051   2.15606
    Z3        0.00000   0.00000   0.00000   0.00000   0.00000   0.00000
    X4       -8.18089   0.00066   0.00000  -0.01077  -0.01077  -8.19166
    Y4        2.45226   0.00003   0.00000  -0.00051  -0.00051   2.45175
    Z4        0.00000   0.00000   0.00000   0.00000   0.00000   0.00000
         Item               Value     Threshold  Converged?
 Maximum Force            0.026190     0.000450     NO 
 RMS     Force            0.010707     0.000300     NO 
 Maximum Displacement     0.012486     0.001800     NO 
 RMS     Displacement     0.006739     0.001200     NO 
 Predicted change in Energy=-3.208213D-04
 GradGradGradGradGradGradGradGradGradGradGradGradGradGradGradGradGradGrad

                          Input orientation:                          
 ---------------------------------------------------------------------
 Center     Atomic      Atomic             Coordinates (Angstroms)
 Number     Number       Type             X           Y           Z
 ---------------------------------------------------------------------
      1          6           0       -6.583733    1.191003    0.000000
      2          6           0       -5.392947    1.247347    0.000000
      3          1           0       -7.641840    1.140938    0.000000
      4          1           0       -4.334840    1.297412    0.000000
 ---------------------------------------------------------------------
                    Distance matrix (angstroms):
                    1          2          3          4
     1  C    0.000000
     2  C    1.192117   0.000000
     3  H    1.059291   2.251409   0.000000
     4  H    2.251409   1.059291   3.310700   0.000000
 Stoichiometry    C2H2
 Framework group  D*H[C*(HC.CH)]
 Deg. of freedom     2
 Full point group                 D*H     NOp   8
 Omega: Change in point group or standard orientation.

 Old FWG=C*V  [C*(H1C1C1H1)]
 New FWG=D*H  [C*(H1C1.C1H1)]
 Largest Abelian subgroup         D2H     NOp   8
 Largest concise Abelian subgroup C2      NOp   2
                         Standard orientation:                         
 ---------------------------------------------------------------------
 Center     Atomic      Atomic             Coordinates (Angstroms)
 Number     Number       Type             X           Y           Z
 ---------------------------------------------------------------------
      1          6           0        0.000000    0.000000    0.596059
      2          6           0        0.000000    0.000000   -0.596059
      3          1           0        0.000000    0.000000    1.655350
      4          1           0        0.000000    0.000000   -1.655350
 ---------------------------------------------------------------------
 Rotational constants (GHZ):      0.0000000     35.9697390     35.9697390
 Basis read from rwf:  (5D, 7F)
 There are     7 symmetry adapted cartesian basis functions of AG  symmetry.
 There are     0 symmetry adapted cartesian basis functions of B1G symmetry.
 There are     2 symmetry adapted cartesian basis functions of B2G symmetry.
 There are     2 symmetry adapted cartesian basis functions of B3G symmetry.
 There are     0 symmetry adapted cartesian basis functions of AU  symmetry.
 There are     7 symmetry adapted cartesian basis functions of B1U symmetry.
 There are     2 symmetry adapted cartesian basis functions of B2U symmetry.
 There are     2 symmetry adapted cartesian basis functions of B3U symmetry.
 There are     7 symmetry adapted basis functions of AG  symmetry.
 There are     0 symmetry adapted basis functions of B1G symmetry.
 There are     2 symmetry adapted basis functions of B2G symmetry.
 There are     2 symmetry adapted basis functions of B3G symmetry.
 There are     0 symmetry adapted basis functions of AU  symmetry.
 There are     7 symmetry adapted basis functions of B1U symmetry.
 There are     2 symmetry adapted basis functions of B2U symmetry.
 There are     2 symmetry adapted basis functions of B3U symmetry.
    22 basis functions,    52 primitive gaussians,    22 cartesian basis functions
     7 alpha electrons        7 beta electrons
       nuclear repulsion energy        24.9553311322 Hartrees.
 NAtoms=    4 NActive=    4 NUniq=    2 SFac= 4.00D+00 NAtFMM=   60 NAOKFM=F Big=F
 Integral buffers will be    131072 words long.
 Raffenetti 1 integral format.
 Two-electron integral symmetry is turned on.
 One-electron integrals computed using PRISM.
 NBasis=    22 RedAO= T EigKep=  9.99D-03  NBF=     7     0     2     2     0     7     2     2
 NBsUse=    22 1.00D-06 EigRej= -1.00D+00 NBFU=     7     0     2     2     0     7     2     2
 Initial guess from the checkpoint file:  "/home/chongee/BasisSet/Gau-1351.chk"
 B after Tr=     0.000000    0.000000    0.000000
         Rot=    1.000000    0.000000    0.000000    0.000000 Ang=   0.00 deg.
 Initial guess orbital symmetries:
       Occupied  (SGG) (SGU) (SGG) (SGU) (SGG) (PIU) (PIU)
       Virtual   (SGG) (SGG) (SGG) (SGG) (PIG) (PIG) (PIG) (PIG)
                 (SGU) (SGU) (SGU) (SGU) (SGU) (PIU) (PIU)
 Keep R1 ints in memory in symmetry-blocked form, NReq=867127.
 Requested convergence on RMS density matrix=1.00D-08 within 128 cycles.
 Requested convergence on MAX density matrix=1.00D-06.
 Requested convergence on             energy=1.00D-06.
 No special actions if energy rises.
 SCF Done:  E(RHF) =  -76.6914193936     A.U. after    7 cycles
            NFock=  7  Conv=0.10D-07     -V/T= 2.0019
 Calling FoFJK, ICntrl=      2127 FMM=F ISym2X=1 I1Cent= 0 IOpClX= 0 NMat=1 NMatS=1 NMatT=0.
 ***** Axes restored to original set *****
 -------------------------------------------------------------------
 Center     Atomic                   Forces (Hartrees/Bohr)
 Number     Number              X              Y              Z
 -------------------------------------------------------------------
      1        6          -0.005148422   -0.000243603    0.000000000
      2        6           0.005148422    0.000243603    0.000000000
      3        1           0.000532348    0.000025189    0.000000000
      4        1          -0.000532348   -0.000025189    0.000000000
 -------------------------------------------------------------------
 Cartesian Forces:  Max     0.005148422 RMS     0.002115405

 GradGradGradGradGradGradGradGradGradGradGradGradGradGradGradGradGradGrad
 Berny optimization.
 Search for a local minimum.
 Step number   2 out of a maximum of   22
 All quantities printed in internal units (Hartrees-Bohrs-Radians)
 Update second derivatives using D2CorN and points    1    2
 DE= -2.66D-04 DEPred=-3.21D-04 R= 8.31D-01
 TightC=F SS=  1.41D+00  RLast= 2.33D-02 DXNew= 5.0454D-01 7.0039D-02
 Trust test= 8.31D-01 RLast= 2.33D-02 DXMaxT set to 3.00D-01
 The second derivative matrix:
                          X1        Y1        Z1        X2        Y2
           X1           1.52456
           Y1           0.06400   0.17495
           Z1           0.00000   0.00000   0.17192
           X2          -1.13795  -0.04760   0.00000   1.52456
           Y2          -0.04760  -0.13417   0.00000   0.06400   0.17495
           Z2           0.00000   0.00000  -0.13192   0.00000   0.00000
           X3          -0.34175  -0.01262   0.00000  -0.04485  -0.00378
           Y3          -0.01262  -0.07572   0.00000  -0.00378   0.03494
           Z3           0.00000   0.00000  -0.07512   0.00000   0.00000
           X4          -0.04485  -0.00378   0.00000  -0.34175  -0.01262
           Y4          -0.00378   0.03494   0.00000  -0.01262  -0.07572
           Z4           0.00000   0.00000   0.03512   0.00000   0.00000
                          Z2        X3        Y3        Z3        X4
           Z2           0.17192
           X3           0.00000   0.37622
           Y3           0.00000   0.01591   0.04075
           Z3           0.03512   0.00000   0.00000   0.04000
           X4           0.00000   0.01038   0.00049   0.00000   0.37622
           Y4           0.00000   0.00049   0.00002   0.00000   0.01591
           Z4          -0.07512   0.00000   0.00000   0.00000   0.00000
                          Y4        Z4
           Y4           0.04075
           Z4           0.00000   0.04000
 ITU=  1  0
     Eigenvalues ---    0.06799   0.06799   0.29777   0.29777   0.32877
     Eigenvalues ---    0.65849   2.70558
 RFO step:  Lambda=-9.76170112D-07 EMin= 6.79905406D-02
 ClnCor:  largest displacement from symmetrization is 4.47D-15 for atom     3.
 Quartic linear search produced a step of -0.15012.
 ClnCor:  largest displacement from symmetrization is 1.83D-15 for atom     2.
 TrRot=  0.000000  0.000000  0.000000  0.000000  0.000000  0.000000
 Variable       Old X    -DE/DX   Delta X   Delta X   Delta X     New X
                                 (Linear)    (Quad)   (Total)
    X1      -12.44145  -0.00515  -0.00187  -0.00001  -0.00188 -12.44333
    Y1        2.25067  -0.00024  -0.00009   0.00000  -0.00009   2.25058
    Z1        0.00000   0.00000   0.00000   0.00000   0.00000   0.00000
    X2      -10.19119   0.00515   0.00187   0.00001   0.00188 -10.18931
    Y2        2.35714   0.00024   0.00009   0.00000   0.00009   2.35723
    Z2        0.00000   0.00000   0.00000   0.00000   0.00000   0.00000
    X3      -14.44099   0.00053  -0.00162   0.00115  -0.00047 -14.44146
    Y3        2.15606   0.00003  -0.00008   0.00005  -0.00002   2.15604
    Z3        0.00000   0.00000   0.00000   0.00000   0.00000   0.00000
    X4       -8.19166  -0.00053   0.00162  -0.00115   0.00047  -8.19119
    Y4        2.45175  -0.00003   0.00008  -0.00005   0.00002   2.45178
    Z4        0.00000   0.00000   0.00000   0.00000   0.00000   0.00000
         Item               Value     Threshold  Converged?
 Maximum Force            0.005148     0.000450     NO 
 RMS     Force            0.002115     0.000300     NO 
 Maximum Displacement     0.001883     0.001800     NO 
 RMS     Displacement     0.000794     0.001200     YES
 Predicted change in Energy=-9.896467D-06
 GradGradGradGradGradGradGradGradGradGradGradGradGradGradGradGradGradGrad

                          Input orientation:                          
 ---------------------------------------------------------------------
 Center     Atomic      Atomic             Coordinates (Angstroms)
 Number     Number       Type             X           Y           Z
 ---------------------------------------------------------------------
      1          6           0       -6.584729    1.190956    0.000000
      2          6           0       -5.391951    1.247394    0.000000
      3          1           0       -7.642090    1.140926    0.000000
      4          1           0       -4.334590    1.297424    0.000000
 ---------------------------------------------------------------------
                    Distance matrix (angstroms):
                    1          2          3          4
     1  C    0.000000
     2  C    1.194113   0.000000
     3  H    1.058544   2.252657   0.000000
     4  H    2.252657   1.058544   3.311200   0.000000
 Stoichiometry    C2H2
 Framework group  D*H[C*(HC.CH)]
 Deg. of freedom     2
 Full point group                 D*H     NOp   8
 Largest Abelian subgroup         D2H     NOp   8
 Largest concise Abelian subgroup C2      NOp   2
                         Standard orientation:                         
 ---------------------------------------------------------------------
 Center     Atomic      Atomic             Coordinates (Angstroms)
 Number     Number       Type             X           Y           Z
 ---------------------------------------------------------------------
      1          6           0        0.000000    0.000000    0.597056
      2          6           0        0.000000    0.000000   -0.597056
      3          1           0        0.000000    0.000000    1.655600
      4          1           0        0.000000    0.000000   -1.655600
 ---------------------------------------------------------------------
 Rotational constants (GHZ):      0.0000000     35.8924928     35.8924928
 Basis read from rwf:  (5D, 7F)
 There are     7 symmetry adapted cartesian basis functions of AG  symmetry.
 There are     0 symmetry adapted cartesian basis functions of B1G symmetry.
 There are     2 symmetry adapted cartesian basis functions of B2G symmetry.
 There are     2 symmetry adapted cartesian basis functions of B3G symmetry.
 There are     0 symmetry adapted cartesian basis functions of AU  symmetry.
 There are     7 symmetry adapted cartesian basis functions of B1U symmetry.
 There are     2 symmetry adapted cartesian basis functions of B2U symmetry.
 There are     2 symmetry adapted cartesian basis functions of B3U symmetry.
 There are     7 symmetry adapted basis functions of AG  symmetry.
 There are     0 symmetry adapted basis functions of B1G symmetry.
 There are     2 symmetry adapted basis functions of B2G symmetry.
 There are     2 symmetry adapted basis functions of B3G symmetry.
 There are     0 symmetry adapted basis functions of AU  symmetry.
 There are     7 symmetry adapted basis functions of B1U symmetry.
 There are     2 symmetry adapted basis functions of B2U symmetry.
 There are     2 symmetry adapted basis functions of B3U symmetry.
    22 basis functions,    52 primitive gaussians,    22 cartesian basis functions
     7 alpha electrons        7 beta electrons
       nuclear repulsion energy        24.9312751689 Hartrees.
 NAtoms=    4 NActive=    4 NUniq=    2 SFac= 4.00D+00 NAtFMM=   60 NAOKFM=F Big=F
 Integral buffers will be    131072 words long.
 Raffenetti 1 integral format.
 Two-electron integral symmetry is turned on.
 One-electron integrals computed using PRISM.
 NBasis=    22 RedAO= T EigKep=  1.00D-02  NBF=     7     0     2     2     0     7     2     2
 NBsUse=    22 1.00D-06 EigRej= -1.00D+00 NBFU=     7     0     2     2     0     7     2     2
 Initial guess from the checkpoint file:  "/home/chongee/BasisSet/Gau-1351.chk"
 B after Tr=     0.000000    0.000000    0.000000
         Rot=    1.000000    0.000000    0.000000    0.000000 Ang=   0.00 deg.
 Initial guess orbital symmetries:
       Occupied  (SGG) (SGU) (SGG) (SGU) (SGG) (PIU) (PIU)
       Virtual   (SGG) (SGG) (SGG) (SGG) (PIG) (PIG) (PIG) (PIG)
                 (SGU) (SGU) (SGU) (SGU) (SGU) (PIU) (PIU)
 Keep R1 ints in memory in symmetry-blocked form, NReq=867127.
 Requested convergence on RMS density matrix=1.00D-08 within 128 cycles.
 Requested convergence on MAX density matrix=1.00D-06.
 Requested convergence on             energy=1.00D-06.
 No special actions if energy rises.
 SCF Done:  E(RHF) =  -76.6914284067     A.U. after    7 cycles
            NFock=  7  Conv=0.19D-08     -V/T= 2.0020
 Calling FoFJK, ICntrl=      2127 FMM=F ISym2X=1 I1Cent= 0 IOpClX= 0 NMat=1 NMatS=1 NMatT=0.
 ***** Axes restored to original set *****
 -------------------------------------------------------------------
 Center     Atomic                   Forces (Hartrees/Bohr)
 Number     Number              X              Y              Z
 -------------------------------------------------------------------
      1        6           0.000272744    0.000012905    0.000000000
      2        6          -0.000272744   -0.000012905    0.000000000
      3        1          -0.000162578   -0.000007693    0.000000000
      4        1           0.000162578    0.000007693    0.000000000
 -------------------------------------------------------------------
 Cartesian Forces:  Max     0.000272744 RMS     0.000129773

 GradGradGradGradGradGradGradGradGradGradGradGradGradGradGradGradGradGrad
 Berny optimization.
 Search for a local minimum.
 Step number   3 out of a maximum of   22
 All quantities printed in internal units (Hartrees-Bohrs-Radians)
 Update second derivatives using D2CorN and points    1    2    3
 DE= -9.01D-06 DEPred=-9.90D-06 R= 9.11D-01
 TightC=F SS=  1.41D+00  RLast= 2.75D-03 DXNew= 5.0454D-01 8.2465D-03
 Trust test= 9.11D-01 RLast= 2.75D-03 DXMaxT set to 3.00D-01
 The second derivative matrix:
                          X1        Y1        Z1        X2        Y2
           X1           1.66067
           Y1           0.07044   0.17525
           Z1           0.00000   0.00000   0.17192
           X2          -1.27407  -0.05404   0.00000   1.66067
           Y2          -0.05404  -0.13448   0.00000   0.07044   0.17525
           Z2           0.00000   0.00000  -0.13192   0.00000   0.00000
           X3          -0.36493  -0.01371   0.00000  -0.02167  -0.00269
           Y3          -0.01371  -0.07577   0.00000  -0.00269   0.03499
           Z3           0.00000   0.00000  -0.07512   0.00000   0.00000
           X4          -0.02167  -0.00269   0.00000  -0.36493  -0.01371
           Y4          -0.00269   0.03499   0.00000  -0.01371  -0.07577
           Z4           0.00000   0.00000   0.03512   0.00000   0.00000
                          Z2        X3        Y3        Z3        X4
           Z2           0.17192
           X3           0.00000   0.33353
           Y3           0.00000   0.01389   0.04066
           Z3           0.03512   0.00000   0.00000   0.04000
           X4           0.00000   0.05307   0.00251   0.00000   0.33353
           Y4           0.00000   0.00251   0.00012   0.00000   0.01389
           Z4          -0.07512   0.00000   0.00000   0.00000   0.00000
                          Y4        Z4
           Y4           0.04066
           Z4           0.00000   0.04000
 ITU=  1  1  0
     Eigenvalues ---    0.06799   0.06799   0.23728   0.29759   0.29759
     Eigenvalues ---    0.65849   2.98435
 RFO step:  Lambda=-1.36315454D-07 EMin= 6.79905406D-02
 ClnCor:  largest displacement from symmetrization is 5.03D-15 for atom     3.
 Quartic linear search produced a step of -0.04441.
 ClnCor:  largest displacement from symmetrization is 1.22D-17 for atom     4.
 TrRot=  0.000000  0.000000  0.000000  0.000000  0.000000  0.000000
 Variable       Old X    -DE/DX   Delta X   Delta X   Delta X     New X
                                 (Linear)    (Quad)   (Total)
    X1      -12.44333   0.00027   0.00008  -0.00005   0.00003 -12.44330
    Y1        2.25058   0.00001   0.00000   0.00000   0.00000   2.25058
    Z1        0.00000   0.00000   0.00000   0.00000   0.00000   0.00000
    X2      -10.18931  -0.00027  -0.00008   0.00005  -0.00003 -10.18934
    Y2        2.35723  -0.00001   0.00000   0.00000   0.00000   2.35723
    Z2        0.00000   0.00000   0.00000   0.00000   0.00000   0.00000
    X3      -14.44146  -0.00016   0.00002  -0.00053  -0.00051 -14.44197
    Y3        2.15604  -0.00001   0.00000  -0.00003  -0.00002   2.15601
    Z3        0.00000   0.00000   0.00000   0.00000   0.00000   0.00000
    X4       -8.19119   0.00016  -0.00002   0.00053   0.00051  -8.19068
    Y4        2.45178   0.00001   0.00000   0.00003   0.00002   2.45180
    Z4        0.00000   0.00000   0.00000   0.00000   0.00000   0.00000
         Item               Value     Threshold  Converged?
 Maximum Force            0.000273     0.000450     YES
 RMS     Force            0.000130     0.000300     YES
 Maximum Displacement     0.000509     0.001800     YES
 RMS     Displacement     0.000208     0.001200     YES
 Predicted change in Energy=-9.616871D-08
 Optimization completed.
    -- Stationary point found.
 GradGradGradGradGradGradGradGradGradGradGradGradGradGradGradGradGradGrad

                          Input orientation:                          
 ---------------------------------------------------------------------
 Center     Atomic      Atomic             Coordinates (Angstroms)
 Number     Number       Type             X           Y           Z
 ---------------------------------------------------------------------
      1          6           0       -6.584729    1.190956    0.000000
      2          6           0       -5.391951    1.247394    0.000000
      3          1           0       -7.642090    1.140926    0.000000
      4          1           0       -4.334590    1.297424    0.000000
 ---------------------------------------------------------------------
                    Distance matrix (angstroms):
                    1          2          3          4
     1  C    0.000000
     2  C    1.194113   0.000000
     3  H    1.058544   2.252657   0.000000
     4  H    2.252657   1.058544   3.311200   0.000000
 Stoichiometry    C2H2
 Framework group  D*H[C*(HC.CH)]
 Deg. of freedom     2
 Full point group                 D*H     NOp   8
 Largest Abelian subgroup         D2H     NOp   8
 Largest concise Abelian subgroup C2      NOp   2
                         Standard orientation:                         
 ---------------------------------------------------------------------
 Center     Atomic      Atomic             Coordinates (Angstroms)
 Number     Number       Type             X           Y           Z
 ---------------------------------------------------------------------
      1          6           0        0.000000    0.000000    0.597056
      2          6           0        0.000000    0.000000   -0.597056
      3          1           0        0.000000    0.000000    1.655600
      4          1           0        0.000000    0.000000   -1.655600
 ---------------------------------------------------------------------
 Rotational constants (GHZ):      0.0000000     35.8924928     35.8924928

 **********************************************************************

            Population analysis using the SCF density.

 **********************************************************************

 Orbital symmetries:
       Occupied  (SGG) (SGU) (SGG) (SGU) (SGG) (PIU) (PIU)
       Virtual   (PIG) (PIG) (SGU) (SGG) (SGU) (SGG) (PIU) (PIU)
                 (SGU) (SGG) (PIG) (PIG) (SGU) (SGG) (SGU)
 The electronic state is 1-SGG.
 Alpha  occ. eigenvalues --  -11.24024 -11.23693  -1.04049  -0.75902  -0.67970
 Alpha  occ. eigenvalues --   -0.41135  -0.41135
 Alpha virt. eigenvalues --    0.20943   0.20943   0.21605   0.24595   0.33378
 Alpha virt. eigenvalues --    0.33471   0.78083   0.78083   0.85177   0.92233
 Alpha virt. eigenvalues --    0.94988   0.94988   1.21546   1.23894   1.67795
          Condensed to atoms (all electrons):
               1          2          3          4
     1  C    5.052619   0.849486   0.376954  -0.044726
     2  C    0.849486   5.052619  -0.044726   0.376954
     3  H    0.376954  -0.044726   0.433137   0.000304
     4  H   -0.044726   0.376954   0.000304   0.433137
 Mulliken charges:
               1
     1  C   -0.234332
     2  C   -0.234332
     3  H    0.234332
     4  H    0.234332
 Sum of Mulliken charges =   0.00000
 Mulliken charges with hydrogens summed into heavy atoms:
               1
     1  C    0.000000
     2  C    0.000000
 Electronic spatial extent (au):  <R**2>=             60.3813
 Charge=              0.0000 electrons
 Dipole moment (field-independent basis, Debye):
    X=              0.0000    Y=              0.0000    Z=              0.0000  Tot=              0.0000
 Quadrupole moment (field-independent basis, Debye-Ang):
   XX=            -13.6484   YY=            -13.6484   ZZ=             -7.0400
   XY=              0.0000   XZ=              0.0000   YZ=              0.0000
 Traceless Quadrupole moment (field-independent basis, Debye-Ang):
   XX=             -2.2028   YY=             -2.2028   ZZ=              4.4057
   XY=              0.0000   XZ=              0.0000   YZ=              0.0000
 Octapole moment (field-independent basis, Debye-Ang**2):
  XXX=              0.0000  YYY=              0.0000  ZZZ=              0.0000  XYY=              0.0000
  XXY=              0.0000  XXZ=              0.0000  XZZ=              0.0000  YZZ=              0.0000
  YYZ=              0.0000  XYZ=              0.0000
 Hexadecapole moment (field-independent basis, Debye-Ang**3):
 XXXX=            -14.4278 YYYY=            -14.4278 ZZZZ=            -36.1083 XXXY=              0.0000
 XXXZ=              0.0000 YYYX=              0.0000 YYYZ=              0.0000 ZZZX=              0.0000
 ZZZY=              0.0000 XXYY=             -4.8093 XXZZ=            -11.7306 YYZZ=            -11.7306
 XXYZ=              0.0000 YYXZ=              0.0000 ZZXY=              0.0000
 N-N= 2.493127516889D+01 E-N=-2.282227819193D+02  KE= 7.653553647312D+01
 Symmetry AG   KE= 3.795142480851D+01
 Symmetry B1G  KE= 0.000000000000D+00
 Symmetry B2G  KE= 2.764846784771D-32
 Symmetry B3G  KE= 1.701322405125D-32
 Symmetry AU   KE= 0.000000000000D+00
 Symmetry B1U  KE= 3.437729757514D+01
 Symmetry B2U  KE= 2.103407044735D+00
 Symmetry B3U  KE= 2.103407044735D+00
 1\1\GINC-CHONGEE-INSPIRON-3521\FOpt\RHF\Gen\C2H2\CHONGEE\17-Nov-2016\0
 \\# opt=cartesian freq hf/gen\\chch\\0,1\C,-6.58472922,1.1909562548,0.
 \C,-5.39195078,1.2473937452,0.\H,-7.6420899242,1.1409261882,0.\H,-4.33
 45900758,1.2974238118,0.\\Version=EM64L-G09RevD.01\State=1-SGG\HF=-76.
 6914284\RMSD=1.949e-09\RMSF=1.298e-04\Dipole=0.,0.,0.\Quadrupole=3.264
 5185,-1.6267716,-1.6377468,0.2319555,0.,0.\PG=D*H [C*(H1C1.C1H1)]\\@


 ART, GLORY, FREEDOM FAIL, BUT NATURE STILL IS FAIR.

                                           -- BYRON
 Job cpu time:       0 days  0 hours  0 minutes  1.8 seconds.
 File lengths (MBytes):  RWF=      5 Int=      0 D2E=      0 Chk=      1 Scr=      1
 Normal termination of Gaussian 09 at Thu Nov 17 22:01:28 2016.
 Link1:  Proceeding to internal job step number  2.
 ---------------------------------------------------------------
 #N Geom=AllCheck Guess=TCheck SCRF=Check GenChk RHF/ChkBas Freq
 ---------------------------------------------------------------
 1/10=4,29=7,30=1,38=1,40=1/1,3;
 2/12=2,40=1/2;
 3/5=7,6=2,11=1,14=-4,16=1,25=1,30=1,67=1,70=2,71=2,82=7,116=1,140=1/1,2,3;
 4/5=101/1;
 5/5=2,98=1/2;
 8/6=4,10=90,11=11/1;
 10/13=10,15=4/2;
 11/6=3,8=1,9=11,15=111,16=1/1,2,10;
 10/6=1/2;
 6/7=2,8=2,9=2,10=2,18=1,28=1/1;
 7/8=1,10=1,25=1/1,2,3,16;
 1/10=4,30=1/3;
 99//99;
 Structure from the checkpoint file:  "/home/chongee/BasisSet/Gau-1351.chk"
 ----
 chch
 ----
 Charge =  0 Multiplicity = 1
 No Z-Matrix found in file; cartesian coordinates used.
  C                                                -6.584729220046      1.190956254753      0.000000000000
  C                                                -5.391950779954      1.247393745247      0.000000000000
  H                                                -7.642089924194      1.140926188244      0.000000000000
  H                                                -4.334590075806      1.297423811756      0.000000000000
 Recover connectivity data from disk.

 GradGradGradGradGradGradGradGradGradGradGradGradGradGradGradGradGradGrad
 Berny optimization.
 Initialization pass.
 Trust Radius=3.00D-01 FncErr=1.00D-07 GrdErr=1.00D-07
 Number of steps in this run=      2 maximum allowed number of steps=      2.
 GradGradGradGradGradGradGradGradGradGradGradGradGradGradGradGradGradGrad

                          Input orientation:                          
 ---------------------------------------------------------------------
 Center     Atomic      Atomic             Coordinates (Angstroms)
 Number     Number       Type             X           Y           Z
 ---------------------------------------------------------------------
      1          6           0       -6.584729    1.190956    0.000000
      2          6           0       -5.391951    1.247394    0.000000
      3          1           0       -7.642090    1.140926    0.000000
      4          1           0       -4.334590    1.297424    0.000000
 ---------------------------------------------------------------------
                    Distance matrix (angstroms):
                    1          2          3          4
     1  C    0.000000
     2  C    1.194113   0.000000
     3  H    1.058544   2.252657   0.000000
     4  H    2.252657   1.058544   3.311200   0.000000
 Stoichiometry    C2H2
 Framework group  D*H[C*(HC.CH)]
 Deg. of freedom     2
 Full point group                 D*H     NOp   8
 Largest Abelian subgroup         D2H     NOp   8
 Largest concise Abelian subgroup C2      NOp   2
                         Standard orientation:                         
 ---------------------------------------------------------------------
 Center     Atomic      Atomic             Coordinates (Angstroms)
 Number     Number       Type             X           Y           Z
 ---------------------------------------------------------------------
      1          6           0        0.000000    0.000000    0.597056
      2          6           0        0.000000    0.000000   -0.597056
      3          1           0        0.000000    0.000000    1.655600
      4          1           0        0.000000    0.000000   -1.655600
 ---------------------------------------------------------------------
 Rotational constants (GHZ):      0.0000000     35.8924928     35.8924928
 Basis read from chk: "/home/chongee/BasisSet/Gau-1351.chk" (5D, 7F)
 There are     7 symmetry adapted cartesian basis functions of AG  symmetry.
 There are     0 symmetry adapted cartesian basis functions of B1G symmetry.
 There are     2 symmetry adapted cartesian basis functions of B2G symmetry.
 There are     2 symmetry adapted cartesian basis functions of B3G symmetry.
 There are     0 symmetry adapted cartesian basis functions of AU  symmetry.
 There are     7 symmetry adapted cartesian basis functions of B1U symmetry.
 There are     2 symmetry adapted cartesian basis functions of B2U symmetry.
 There are     2 symmetry adapted cartesian basis functions of B3U symmetry.
 There are     7 symmetry adapted basis functions of AG  symmetry.
 There are     0 symmetry adapted basis functions of B1G symmetry.
 There are     2 symmetry adapted basis functions of B2G symmetry.
 There are     2 symmetry adapted basis functions of B3G symmetry.
 There are     0 symmetry adapted basis functions of AU  symmetry.
 There are     7 symmetry adapted basis functions of B1U symmetry.
 There are     2 symmetry adapted basis functions of B2U symmetry.
 There are     2 symmetry adapted basis functions of B3U symmetry.
    22 basis functions,    52 primitive gaussians,    22 cartesian basis functions
     7 alpha electrons        7 beta electrons
       nuclear repulsion energy        24.9312751689 Hartrees.
 NAtoms=    4 NActive=    4 NUniq=    2 SFac= 4.00D+00 NAtFMM=   60 NAOKFM=F Big=F
 Integral buffers will be    131072 words long.
 Raffenetti 1 integral format.
 Two-electron integral symmetry is turned on.
 One-electron integrals computed using PRISM.
 NBasis=    22 RedAO= T EigKep=  1.00D-02  NBF=     7     0     2     2     0     7     2     2
 NBsUse=    22 1.00D-06 EigRej= -1.00D+00 NBFU=     7     0     2     2     0     7     2     2
 Initial guess from the checkpoint file:  "/home/chongee/BasisSet/Gau-1351.chk"
 B after Tr=     0.000000    0.000000    0.000000
         Rot=    1.000000    0.000000    0.000000    0.000000 Ang=   0.00 deg.
 Initial guess orbital symmetries:
       Occupied  (SGG) (SGU) (SGG) (SGU) (SGG) (PIU) (PIU)
       Virtual   (PIG) (PIG) (SGU) (SGG) (SGU) (SGG) (PIU) (PIU)
                 (SGU) (SGG) (PIG) (PIG) (SGU) (SGG) (SGU)
 Keep R1 ints in memory in symmetry-blocked form, NReq=867127.
 Requested convergence on RMS density matrix=1.00D-08 within 128 cycles.
 Requested convergence on MAX density matrix=1.00D-06.
 Requested convergence on             energy=1.00D-06.
 No special actions if energy rises.
 Skip diagonalization as Alpha Fock matrix is already diagonal.
 SCF Done:  E(RHF) =  -76.6914284067     A.U. after    1 cycles
            NFock=  1  Conv=0.00D+00     -V/T= 2.0020
 Range of M.O.s used for correlation:     1    22
 NBasis=    22 NAE=     7 NBE=     7 NFC=     0 NFV=     0
 NROrb=     22 NOA=     7 NOB=     7 NVA=    15 NVB=    15
          Differentiating once with respect to electric field.
                with respect to dipole field.
          Electric field/nuclear overlap derivatives assumed to be zero.
 Keep R1 ints in memory in symmetry-blocked form, NReq=852142.
          There are     3 degrees of freedom in the 1st order CPHF.  IDoFFX=0 NUNeed=     3.
      3 vectors produced by pass  0 Test12= 3.50D-15 3.33D-08 XBig12= 1.04D+01 2.08D+00.
 AX will form     3 AO Fock derivatives at one time.
      3 vectors produced by pass  1 Test12= 3.50D-15 3.33D-08 XBig12= 1.61D+00 7.03D-01.
      3 vectors produced by pass  2 Test12= 3.50D-15 3.33D-08 XBig12= 5.06D-02 1.05D-01.
      3 vectors produced by pass  3 Test12= 3.50D-15 3.33D-08 XBig12= 1.55D-04 5.54D-03.
      3 vectors produced by pass  4 Test12= 3.50D-15 3.33D-08 XBig12= 9.70D-07 4.62D-04.
      3 vectors produced by pass  5 Test12= 3.50D-15 3.33D-08 XBig12= 8.85D-09 3.75D-05.
      3 vectors produced by pass  6 Test12= 3.50D-15 3.33D-08 XBig12= 3.93D-11 2.59D-06.
      1 vectors produced by pass  7 Test12= 3.50D-15 3.33D-08 XBig12= 2.57D-13 3.22D-07.
 InvSVY:  IOpt=1 It=  1 EMax= 1.68D-16
 Solved reduced A of dimension    22 with     3 vectors.
 End of Minotr F.D. properties file   721 does not exist.
 End of Minotr F.D. properties file   722 does not exist.
 End of Minotr F.D. properties file   788 does not exist.
 Symmetrizing basis deriv contribution to polar:
 IMax=3 JMax=2 DiffMx= 0.00D+00
 G2DrvN: will do     5 centers at a time, making    1 passes.
 PxScal for G2LodP:  IOpCl= 0 ISclPx=1 IMOff=     1 NMtTot=     4 NTT=     253 ScalPx= 1.45D+00
 Calling FoFCou, ICntrl=  3107 FMM=F I1Cent=   0 AccDes= 0.00D+00.
 End of G2Drv F.D. properties file   721 does not exist.
 End of G2Drv F.D. properties file   722 does not exist.
 End of G2Drv F.D. properties file   788 does not exist.
          IDoAtm=1111
          Differentiating once with respect to electric field.
                with respect to dipole field.
          Differentiating once with respect to nuclear coordinates.
 Keep R1 ints in memory in symmetry-blocked form, NReq=852234.
          There are     9 degrees of freedom in the 1st order CPHF.  IDoFFX=4 NUNeed=     9.
 Will reuse    3 saved solutions.
      6 vectors produced by pass  0 Test12= 1.17D-15 1.11D-08 XBig12= 7.28D-02 1.33D-01.
 AX will form     6 AO Fock derivatives at one time.
      6 vectors produced by pass  1 Test12= 1.17D-15 1.11D-08 XBig12= 8.33D-03 4.15D-02.
      6 vectors produced by pass  2 Test12= 1.17D-15 1.11D-08 XBig12= 1.50D-04 5.01D-03.
      6 vectors produced by pass  3 Test12= 1.17D-15 1.11D-08 XBig12= 9.02D-07 3.83D-04.
      6 vectors produced by pass  4 Test12= 1.17D-15 1.11D-08 XBig12= 7.75D-09 4.19D-05.
      6 vectors produced by pass  5 Test12= 1.17D-15 1.11D-08 XBig12= 6.43D-11 3.42D-06.
      6 vectors produced by pass  6 Test12= 1.17D-15 1.11D-08 XBig12= 7.31D-13 4.45D-07.
      1 vectors produced by pass  7 Test12= 1.17D-15 1.11D-08 XBig12= 2.63D-15 3.03D-08.
 InvSVY:  IOpt=1 It=  1 EMax= 2.22D-16
 Solved reduced A of dimension    43 with     6 vectors.
 Isotropic polarizability for W=    0.000000       15.56 Bohr**3.
 End of Minotr F.D. properties file   721 does not exist.
 End of Minotr F.D. properties file   722 does not exist.
 End of Minotr F.D. properties file   788 does not exist.

 **********************************************************************

            Population analysis using the SCF density.

 **********************************************************************

 Orbital symmetries:
       Occupied  (SGG) (SGU) (SGG) (SGU) (SGG) (PIU) (PIU)
       Virtual   (PIG) (PIG) (SGU) (SGG) (SGU) (SGG) (PIU) (PIU)
                 (SGU) (SGG) (PIG) (PIG) (SGU) (SGG) (SGU)
 The electronic state is 1-SGG.
 Alpha  occ. eigenvalues --  -11.24024 -11.23693  -1.04049  -0.75902  -0.67970
 Alpha  occ. eigenvalues --   -0.41135  -0.41135
 Alpha virt. eigenvalues --    0.20943   0.20943   0.21605   0.24595   0.33378
 Alpha virt. eigenvalues --    0.33471   0.78083   0.78083   0.85177   0.92233
 Alpha virt. eigenvalues --    0.94988   0.94988   1.21546   1.23894   1.67795
          Condensed to atoms (all electrons):
               1          2          3          4
     1  C    5.052619   0.849486   0.376954  -0.044726
     2  C    0.849486   5.052619  -0.044726   0.376954
     3  H    0.376954  -0.044726   0.433137   0.000304
     4  H   -0.044726   0.376954   0.000304   0.433137
 Mulliken charges:
               1
     1  C   -0.234332
     2  C   -0.234332
     3  H    0.234332
     4  H    0.234332
 Sum of Mulliken charges =   0.00000
 Mulliken charges with hydrogens summed into heavy atoms:
               1
     1  C    0.000000
     2  C    0.000000
 APT charges:
               1
     1  C   -0.249083
     2  C   -0.249083
     3  H    0.249083
     4  H    0.249083
 Sum of APT charges =   0.00000
 APT charges with hydrogens summed into heavy atoms:
               1
     1  C    0.000000
     2  C    0.000000
 Electronic spatial extent (au):  <R**2>=             60.3813
 Charge=              0.0000 electrons
 Dipole moment (field-independent basis, Debye):
    X=              0.0000    Y=              0.0000    Z=              0.0000  Tot=              0.0000
 Quadrupole moment (field-independent basis, Debye-Ang):
   XX=            -13.6484   YY=            -13.6484   ZZ=             -7.0400
   XY=              0.0000   XZ=              0.0000   YZ=              0.0000
 Traceless Quadrupole moment (field-independent basis, Debye-Ang):
   XX=             -2.2028   YY=             -2.2028   ZZ=              4.4057
   XY=              0.0000   XZ=              0.0000   YZ=              0.0000
 Octapole moment (field-independent basis, Debye-Ang**2):
  XXX=              0.0000  YYY=              0.0000  ZZZ=              0.0000  XYY=              0.0000
  XXY=              0.0000  XXZ=              0.0000  XZZ=              0.0000  YZZ=              0.0000
  YYZ=              0.0000  XYZ=              0.0000
 Hexadecapole moment (field-independent basis, Debye-Ang**3):
 XXXX=            -14.4278 YYYY=            -14.4278 ZZZZ=            -36.1083 XXXY=              0.0000
 XXXZ=              0.0000 YYYX=              0.0000 YYYZ=              0.0000 ZZZX=              0.0000
 ZZZY=              0.0000 XXYY=             -4.8093 XXZZ=            -11.7306 YYZZ=            -11.7306
 XXYZ=              0.0000 YYXZ=              0.0000 ZZXY=              0.0000
 N-N= 2.493127516889D+01 E-N=-2.282227819193D+02  KE= 7.653553647312D+01
 Symmetry AG   KE= 3.795142480851D+01
 Symmetry B1G  KE= 0.000000000000D+00
 Symmetry B2G  KE= 3.416548593106D-32
 Symmetry B3G  KE= 2.711638825784D-32
 Symmetry AU   KE= 0.000000000000D+00
 Symmetry B1U  KE= 3.437729757514D+01
 Symmetry B2U  KE= 2.103407044735D+00
 Symmetry B3U  KE= 2.103407044735D+00
  Exact polarizability:   9.223   0.000   9.223   0.000   0.000  28.242
 Approx polarizability:   6.779   0.000   6.779   0.000   0.000  28.990
 Calling FoFJK, ICntrl=    100127 FMM=F ISym2X=1 I1Cent= 0 IOpClX= 0 NMat=1 NMatS=1 NMatT=0.
 Full mass-weighted force constant matrix:
 Low frequencies ---  -14.5821  -14.5821    0.0005    0.0005    0.0005  830.7444
 Low frequencies ---  830.7444  879.9175  879.9175
 Diagonal vibrational polarizability:
        4.9097632       4.9097632       0.2309506
 Diagonal vibrational hyperpolarizability:
        0.0000000       0.0000000       0.0000000
 Harmonic frequencies (cm**-1), IR intensities (KM/Mole), Raman scattering
 activities (A**4/AMU), depolarization ratios for plane and unpolarized
 incident light, reduced masses (AMU), force constants (mDyne/A),
 and normal coordinates:
                      1                      2                      3
                     PIG                    PIG                    PIU
 Frequencies --    830.7436               830.7436               879.9175
 Red. masses --      1.5733                 1.5733                 1.0848
 Frc consts  --      0.6397                 0.6397                 0.4949
 IR Inten    --      0.0000                 0.0000               141.2574
 Raman Activ --      8.0832                 8.0832                 0.0000
 Depolar (P) --      0.7500                 0.7500                 0.0000
 Depolar (U) --      0.8571                 0.8571                 0.0000
  Atom  AN      X      Y      Z        X      Y      Z        X      Y      Z
     1   6     0.16   0.00   0.00     0.00   0.16   0.00     0.06   0.00   0.00
     2   6    -0.16   0.00   0.00     0.00  -0.16   0.00     0.06   0.00   0.00
     3   1    -0.69   0.00   0.00     0.00  -0.69   0.00    -0.70   0.01   0.00
     4   1     0.69   0.00   0.00     0.00   0.69   0.00    -0.70   0.01   0.00
                      4                      5                      6
                     PIU                    SGG                    SGU
 Frequencies --    879.9175              2163.4057              3566.9139
 Red. masses --      1.0848                 3.6306                 1.0848
 Frc consts  --      0.4949                10.0115                 8.1319
 IR Inten    --    141.2574                 0.0000               109.1871
 Raman Activ --      0.0000                68.9059                 0.0000
 Depolar (P) --      0.0000                 0.1626                 0.0000
 Depolar (U) --      0.0000                 0.2797                 0.0000
  Atom  AN      X      Y      Z        X      Y      Z        X      Y      Z
     1   6     0.00   0.06   0.00     0.00   0.00   0.35     0.00   0.00   0.06
     2   6     0.00   0.06   0.00     0.00   0.00  -0.35     0.00   0.00   0.06
     3   1    -0.01  -0.70   0.00     0.00   0.00   0.62     0.00   0.00  -0.70
     4   1    -0.01  -0.70   0.00     0.00   0.00  -0.62     0.00   0.00  -0.70
                      7
                     SGG
 Frequencies --   3694.8900
 Red. masses --      1.2498
 Frc consts  --     10.0529
 IR Inten    --      0.0000
 Raman Activ --     57.6502
 Depolar (P) --      0.2949
 Depolar (U) --      0.4555
  Atom  AN      X      Y      Z
     1   6     0.00   0.00  -0.10
     2   6     0.00   0.00   0.10
     3   1     0.00   0.00   0.70
     4   1     0.00   0.00  -0.70

 -------------------
 - Thermochemistry -
 -------------------
 Temperature   298.150 Kelvin.  Pressure   1.00000 Atm.
 Atom     1 has atomic number  6 and mass  12.00000
 Atom     2 has atomic number  6 and mass  12.00000
 Atom     3 has atomic number  1 and mass   1.00783
 Atom     4 has atomic number  1 and mass   1.00783
 Molecular mass:    26.01565 amu.
 Principal axes and moments of inertia in atomic units:
                           1         2         3
     Eigenvalues --     0.00000  50.28186  50.28186
           X            0.00000   0.65996   0.75130
           Y            0.00000   0.75130  -0.65996
           Z            1.00000   0.00000   0.00000
 This molecule is a prolate symmetric top.
 Rotational symmetry number  2.
 Rotational temperature (Kelvin)      1.72257
 Rotational constant (GHZ):          35.892493
 Zero-point vibrational energy      76839.3 (Joules/Mol)
                                   18.36504 (Kcal/Mol)
 Vibrational temperatures:   1195.25  1195.25  1266.00  1266.00  3112.65
          (Kelvin)           5131.99  5316.12
 
 Zero-point correction=                           0.029267 (Hartree/Particle)
 Thermal correction to Energy=                    0.031884
 Thermal correction to Enthalpy=                  0.032828
 Thermal correction to Gibbs Free Energy=         0.010389
 Sum of electronic and zero-point Energies=            -76.662162
 Sum of electronic and thermal Energies=               -76.659545
 Sum of electronic and thermal Enthalpies=             -76.658600
 Sum of electronic and thermal Free Energies=          -76.681039
 
                     E (Thermal)             CV                S
                      KCal/Mol        Cal/Mol-Kelvin    Cal/Mol-Kelvin
 Total                   20.007              7.233             47.226
 Electronic               0.000              0.000              0.000
 Translational            0.889              2.981             35.704
 Rotational               0.592              1.987             10.851
 Vibrational             18.526              2.265              0.671
                       Q            Log10(Q)             Ln(Q)
 Total Bot       0.166471D-04         -4.778663        -11.003277
 Total V=0       0.481935D+09          8.682988         19.993320
 Vib (Bot)       0.368809D-13        -13.433199        -30.931083
 Vib (V=0)       0.106771D+01          0.028452          0.065514
 Electronic      0.100000D+01          0.000000          0.000000
 Translational   0.521564D+07          6.717307         15.467172
 Rotational      0.865424D+02          1.937229          4.460635
 ***** Axes restored to original set *****
 -------------------------------------------------------------------
 Center     Atomic                   Forces (Hartrees/Bohr)
 Number     Number              X              Y              Z
 -------------------------------------------------------------------
      1        6           0.000272744    0.000012905    0.000000000
      2        6          -0.000272744   -0.000012905    0.000000000
      3        1          -0.000162578   -0.000007693    0.000000000
      4        1           0.000162578    0.000007693    0.000000000
 -------------------------------------------------------------------
 Cartesian Forces:  Max     0.000272744 RMS     0.000129773

 GradGradGradGradGradGradGradGradGradGradGradGradGradGradGradGradGradGrad
 Berny optimization.
 Search for a local minimum.
 Step number   1 out of a maximum of    2
 All quantities printed in internal units (Hartrees-Bohrs-Radians)
 Second derivative matrix not updated -- analytic derivatives used.
 The second derivative matrix:
                          X1        Y1        Z1        X2        Y2
           X1           1.71345
           Y1           0.07751   0.07895
           Z1           0.00000   0.00000   0.07528
           X2          -1.26674  -0.05766   0.00000   1.71345
           Y2          -0.05766  -0.05077   0.00000   0.07751   0.07895
           Z2           0.00000   0.00000  -0.04804   0.00000   0.00000
           X3          -0.46390  -0.02026   0.00000   0.01719   0.00041
           Y3          -0.02026  -0.03677   0.00000   0.00041   0.00859
           Z3           0.00000   0.00000  -0.03582   0.00000   0.00000
           X4           0.01719   0.00041   0.00000  -0.46390  -0.02026
           Y4           0.00041   0.00859   0.00000  -0.02026  -0.03677
           Z4           0.00000   0.00000   0.00857   0.00000   0.00000
                          Z2        X3        Y3        Z3        X4
           Z2           0.07528
           X3           0.00000   0.44706
           Y3           0.00000   0.02013   0.02255
           Z3           0.00857   0.00000   0.00000   0.02160
           X4           0.00000  -0.00034  -0.00028   0.00000   0.44706
           Y4           0.00000  -0.00028   0.00563   0.00000   0.02013
           Z4          -0.03582   0.00000   0.00000   0.00564   0.00000
                          Y4        Z4
           Y4           0.02255
           Z4           0.00000   0.02160
 ITU=  0
     Eigenvalues ---    0.04631   0.04631   0.12032   0.12032   0.35989
     Eigenvalues ---    0.76094   3.07507
 Angle between quadratic step and forces=  52.13 degrees.
 ClnCor:  largest displacement from symmetrization is 7.70D-15 for atom     3.
 Linear search not attempted -- first point.
 ClnCor:  largest displacement from symmetrization is 2.96D-31 for atom     2.
 TrRot=  0.000000  0.000000  0.000000  0.000000  0.000000  0.000000
 Variable       Old X    -DE/DX   Delta X   Delta X   Delta X     New X
                                 (Linear)    (Quad)   (Total)
    X1      -12.44333   0.00027   0.00000   0.00004   0.00004 -12.44330
    Y1        2.25058   0.00001   0.00000   0.00000   0.00000   2.25058
    Z1        0.00000   0.00000   0.00000   0.00000   0.00000   0.00000
    X2      -10.18931  -0.00027   0.00000  -0.00004  -0.00004 -10.18935
    Y2        2.35723  -0.00001   0.00000   0.00000   0.00000   2.35723
    Z2        0.00000   0.00000   0.00000   0.00000   0.00000   0.00000
    X3      -14.44146  -0.00016   0.00000  -0.00032  -0.00032 -14.44178
    Y3        2.15604  -0.00001   0.00000  -0.00002  -0.00002   2.15602
    Z3        0.00000   0.00000   0.00000   0.00000   0.00000   0.00000
    X4       -8.19119   0.00016   0.00000   0.00032   0.00032  -8.19087
    Y4        2.45178   0.00001   0.00000   0.00002   0.00002   2.45179
    Z4        0.00000   0.00000   0.00000   0.00000   0.00000   0.00000
         Item               Value     Threshold  Converged?
 Maximum Force            0.000273     0.000450     YES
 RMS     Force            0.000130     0.000300     YES
 Maximum Displacement     0.000320     0.001800     YES
 RMS     Displacement     0.000132     0.001200     YES
 Predicted change in Energy=-6.297805D-08
 Optimization completed.
    -- Stationary point found.
 GradGradGradGradGradGradGradGradGradGradGradGradGradGradGradGradGradGrad

 1\1\GINC-CHONGEE-INSPIRON-3521\Freq\RHF\Gen\C2H2\CHONGEE\17-Nov-2016\0
 \\#N Geom=AllCheck Guess=TCheck SCRF=Check GenChk RHF/ChkBas Freq\\chc
 h\\0,1\C,-6.58472922,1.1909562548,0.\C,-5.39195078,1.2473937452,0.\H,-
 7.6420899242,1.1409261882,0.\H,-4.3345900758,1.2974238118,0.\\Version=
 EM64L-G09RevD.01\State=1-SGG\HF=-76.6914284\RMSD=0.000e+00\RMSF=1.298e
 -04\ZeroPoint=0.0292666\Thermal=0.0318838\Dipole=0.,0.,0.\DipoleDeriv=
 -0.2282491,0.0014803,0.,0.0014803,-0.2594649,0.,0.,0.,-0.259535,-0.228
 2491,0.0014803,0.,0.0014803,-0.2594649,0.,0.,0.,-0.259535,0.2282491,-0
 .0014803,0.,-0.0014803,0.2594649,0.,0.,0.,0.259535,0.2282491,-0.001480
 3,0.,-0.0014803,0.2594649,0.,0.,0.,0.259535\Polar=28.199613,0.8979135,
 9.2651419,0.,0.,9.2226562\PolarDeriv=-8.4634938,0.1410593,-2.907715,0.
 ,0.,-2.9334444,0.4049796,-8.4855393,-0.9430196,0.,0.,-0.1387988,0.,0.,
 0.,-8.5112687,-0.4027191,0.,8.4634938,-0.1410593,2.907715,0.,0.,2.9334
 444,-0.4049796,8.4855393,0.9430196,0.,0.,0.1387988,0.,0.,0.,8.5112687,
 0.4027191,0.,-7.4365295,-0.3221618,-0.6763405,0.,0.,-0.6610228,-0.3550
 107,0.0179053,-0.0288578,0.,0.,-0.0312769,0.,0.,0.,0.0332231,0.001572,
 0.,7.4365295,0.3221618,0.6763405,0.,0.,0.6610228,0.3550107,-0.0179053,
 0.0288578,0.,0.,0.0312769,0.,0.,0.,-0.0332231,-0.001572,0.\HyperPolar=
 0.,0.,0.,0.,0.,0.,0.,0.,0.,0.\PG=D*H [C*(H1C1.C1H1)]\NImag=0\\1.713453
 78,0.07751157,0.07895253,0.,0.,0.07528499,-1.26674308,-0.05766399,0.,1
 .71345378,-0.05766399,-0.05077155,0.,0.07751157,0.07895253,0.,0.,-0.04
 804312,0.,0.,0.07528499,-0.46390133,-0.02025532,0.,0.01719064,0.000407
 74,0.,0.44705542,-0.02025532,-0.03677351,0.,0.00040774,0.00859253,0.,0
 .02013090,0.02255129,0.,0.,-0.03581511,0.,0.,0.00857323,0.,0.,0.021598
 78,0.01719064,0.00040774,0.,-0.46390133,-0.02025532,0.,-0.00034473,-0.
 00028332,0.,0.44705542,0.00040774,0.00859253,0.,-0.02025532,-0.0367735
 1,0.,-0.00028332,0.00562970,0.,0.02013090,0.02255129,0.,0.,0.00857323,
 0.,0.,-0.03581511,0.,0.,0.00564310,0.,0.,0.02159878\\-0.00027274,-0.00
 001291,0.,0.00027274,0.00001291,0.,0.00016258,0.00000769,0.,-0.0001625
 8,-0.00000769,0.\\\@


 NOTHING WILL BE ATTEMPTED IF ALL POSSIBLE OBJECTIONS
 MUST FIRST BE OVERCOME.

                               -- THE GOLDEN PRINCIPLE,
                    PAUL DICKSON'S "THE OFFICIAL RULES"
 Job cpu time:       0 days  0 hours  0 minutes  1.2 seconds.
 File lengths (MBytes):  RWF=      5 Int=      0 D2E=      0 Chk=      1 Scr=      1
 Normal termination of Gaussian 09 at Thu Nov 17 22:01:29 2016.
