 Entering Gaussian System, Link 0=g09
 Initial command:
 /global/software/gaussian/g09.e01/l1.exe "//home/aalrawas/scratch/Gau-7880.inp" -scrdir="//home/aalrawas/scratch/"
 Entering Link 1 = /global/software/gaussian/g09.e01/l1.exe PID=      7881.
  
 Copyright (c) 1988,1990,1992,1993,1995,1998,2003,2009,2015,
            Gaussian, Inc.  All Rights Reserved.
  
 This is part of the Gaussian(R) 09 program.  It is based on
 the Gaussian(R) 03 system (copyright 2003, Gaussian, Inc.),
 the Gaussian(R) 98 system (copyright 1998, Gaussian, Inc.),
 the Gaussian(R) 94 system (copyright 1995, Gaussian, Inc.),
 the Gaussian 92(TM) system (copyright 1992, Gaussian, Inc.),
 the Gaussian 90(TM) system (copyright 1990, Gaussian, Inc.),
 the Gaussian 88(TM) system (copyright 1988, Gaussian, Inc.),
 the Gaussian 86(TM) system (copyright 1986, Carnegie Mellon
 University), and the Gaussian 82(TM) system (copyright 1983,
 Carnegie Mellon University). Gaussian is a federally registered
 trademark of Gaussian, Inc.
  
 This software contains proprietary and confidential information,
 including trade secrets, belonging to Gaussian, Inc.
  
 This software is provided under written license and may be
 used, copied, transmitted, or stored only in accord with that
 written license.
  
 The following legend is applicable only to US Government
 contracts under FAR:
  
                    RESTRICTED RIGHTS LEGEND
  
 Use, reproduction and disclosure by the US Government is
 subject to restrictions as set forth in subparagraphs (a)
 and (c) of the Commercial Computer Software - Restricted
 Rights clause in FAR 52.227-19.
  
 Gaussian, Inc.
 340 Quinnipiac St., Bldg. 40, Wallingford CT 06492
  
  
 ---------------------------------------------------------------
 Warning -- This program may not be used in any manner that
 competes with the business of Gaussian, Inc. or will provide
 assistance to any competitor of Gaussian, Inc.  The licensee
 of this program is prohibited from giving any competitor of
 Gaussian, Inc. access to this program.  By using this program,
 the user acknowledges that Gaussian, Inc. is engaged in the
 business of creating and licensing software in the field of
 computational chemistry and represents and warrants to the
 licensee that it is not a competitor of Gaussian, Inc. and that
 it will not use this program in any manner prohibited above.
 ---------------------------------------------------------------
  

 Cite this work as:
 Gaussian 09, Revision E.01,
 M. J. Frisch, G. W. Trucks, H. B. Schlegel, G. E. Scuseria, 
 M. A. Robb, J. R. Cheeseman, G. Scalmani, V. Barone, B. Mennucci, 
 G. A. Petersson, H. Nakatsuji, M. Caricato, X. Li, H. P. Hratchian, 
 A. F. Izmaylov, J. Bloino, G. Zheng, J. L. Sonnenberg, M. Hada, 
 M. Ehara, K. Toyota, R. Fukuda, J. Hasegawa, M. Ishida, T. Nakajima, 
 Y. Honda, O. Kitao, H. Nakai, T. Vreven, J. A. Montgomery, Jr., 
 J. E. Peralta, F. Ogliaro, M. Bearpark, J. J. Heyd, E. Brothers, 
 K. N. Kudin, V. N. Staroverov, T. Keith, R. Kobayashi, J. Normand, 
 K. Raghavachari, A. Rendell, J. C. Burant, S. S. Iyengar, J. Tomasi, 
 M. Cossi, N. Rega, J. M. Millam, M. Klene, J. E. Knox, J. B. Cross, 
 V. Bakken, C. Adamo, J. Jaramillo, R. Gomperts, R. E. Stratmann, 
 O. Yazyev, A. J. Austin, R. Cammi, C. Pomelli, J. W. Ochterski, 
 R. L. Martin, K. Morokuma, V. G. Zakrzewski, G. A. Voth, 
 P. Salvador, J. J. Dannenberg, S. Dapprich, A. D. Daniels, 
 O. Farkas, J. B. Foresman, J. V. Ortiz, J. Cioslowski, 
 and D. J. Fox, Gaussian, Inc., Wallingford CT, 2013.
 
 ******************************************
 Gaussian 09:  ES64L-G09RevE.01 30-Nov-2015
                23-Nov-2016 
 ******************************************
 -----------------
 # hf/gen opt freq
 -----------------
 1/18=20,19=15,38=1/1,3;
 2/9=110,12=2,17=6,18=5,40=1/2;
 3/5=7,11=9,16=1,25=1,30=1,71=1/1,2,3;
 4//1;
 5/5=2,38=5/2;
 6/7=2,8=2,9=2,10=2,28=1/1;
 7//1,2,3,16;
 1/18=20,19=15/3(2);
 2/9=110/2;
 99//99;
 2/9=110/2;
 3/5=7,6=1,11=9,16=1,25=1,30=1,71=1,82=7/1,2,3;
 4/5=5,16=3,69=1/1;
 5/5=2,38=5/2;
 7//1,2,3,16;
 1/18=20,19=15/3(-5);
 2/9=110/2;
 6/7=2,8=2,9=2,10=2,19=2,28=1/1;
 99/9=1/99;
 -------------------
 Title Card Required
 -------------------
 Symbolic Z-matrix:
 Charge =  0 Multiplicity = 1
 C                    -1.04571   1.69143   0. 
 O                     0.21269   1.69143   0. 
 O                    -2.30411   1.69143   0. 
 

 GradGradGradGradGradGradGradGradGradGradGradGradGradGradGradGradGradGrad
 Berny optimization.
 Initialization pass.
                           ----------------------------
                           !    Initial Parameters    !
                           ! (Angstroms and Degrees)  !
 --------------------------                            --------------------------
 ! Name  Definition              Value          Derivative Info.                !
 --------------------------------------------------------------------------------
 ! R1    R(1,2)                  1.2584         estimate D2E/DX2                !
 ! R2    R(1,3)                  1.2584         estimate D2E/DX2                !
 ! A1    L(2,1,3,-2,-1)        180.0            estimate D2E/DX2                !
 ! A2    L(2,1,3,-3,-2)        180.0            estimate D2E/DX2                !
 --------------------------------------------------------------------------------
 Trust Radius=3.00D-01 FncErr=1.00D-07 GrdErr=1.00D-07
 Number of steps in this run=     20 maximum allowed number of steps=    100.
 GradGradGradGradGradGradGradGradGradGradGradGradGradGradGradGradGradGrad

                          Input orientation:                          
 ---------------------------------------------------------------------
 Center     Atomic      Atomic             Coordinates (Angstroms)
 Number     Number       Type             X           Y           Z
 ---------------------------------------------------------------------
      1          6           0       -1.045714    1.691429    0.000000
      2          8           0        0.212686    1.691429    0.000000
      3          8           0       -2.304114    1.691429    0.000000
 ---------------------------------------------------------------------
                    Distance matrix (angstroms):
                    1          2          3
     1  C    0.000000
     2  O    1.258400   0.000000
     3  O    1.258400   2.516800   0.000000
 Stoichiometry    CO2
 Framework group  D*H[O(C),C*(O.O)]
 Deg. of freedom     1
 Full point group                 D*H     NOp   8
 Largest Abelian subgroup         D2H     NOp   8
 Largest concise Abelian subgroup C2      NOp   2
                         Standard orientation:                         
 ---------------------------------------------------------------------
 Center     Atomic      Atomic             Coordinates (Angstroms)
 Number     Number       Type             X           Y           Z
 ---------------------------------------------------------------------
      1          6           0        0.000000    0.000000    0.000000
      2          8           0        0.000000    0.000000    1.258400
      3          8           0        0.000000    0.000000   -1.258400
 ---------------------------------------------------------------------
 Rotational constants (GHZ):      0.0000000      9.9762622      9.9762622
 General basis read from cards:  (5D, 7F)
 There are     8 symmetry adapted cartesian basis functions of AG  symmetry.
 There are     0 symmetry adapted cartesian basis functions of B1G symmetry.
 There are     2 symmetry adapted cartesian basis functions of B2G symmetry.
 There are     2 symmetry adapted cartesian basis functions of B3G symmetry.
 There are     0 symmetry adapted cartesian basis functions of AU  symmetry.
 There are     7 symmetry adapted cartesian basis functions of B1U symmetry.
 There are     4 symmetry adapted cartesian basis functions of B2U symmetry.
 There are     4 symmetry adapted cartesian basis functions of B3U symmetry.
 There are     8 symmetry adapted basis functions of AG  symmetry.
 There are     0 symmetry adapted basis functions of B1G symmetry.
 There are     2 symmetry adapted basis functions of B2G symmetry.
 There are     2 symmetry adapted basis functions of B3G symmetry.
 There are     0 symmetry adapted basis functions of AU  symmetry.
 There are     7 symmetry adapted basis functions of B1U symmetry.
 There are     4 symmetry adapted basis functions of B2U symmetry.
 There are     4 symmetry adapted basis functions of B3U symmetry.
    27 basis functions,    66 primitive gaussians,    27 cartesian basis functions
    11 alpha electrons       11 beta electrons
       nuclear repulsion energy        53.8260352031 Hartrees.
 NAtoms=    3 NActive=    3 NUniq=    2 SFac= 2.25D+00 NAtFMM=   60 NAOKFM=F Big=F
 Integral buffers will be    131072 words long.
 Raffenetti 1 integral format.
 Two-electron integral symmetry is turned on.
 One-electron integrals computed using PRISM.
 NBasis=    27 RedAO= T EigKep=  2.00D-02  NBF=     8     0     2     2     0     7     4     4
 NBsUse=    27 1.00D-06 EigRej= -1.00D+00 NBFU=     8     0     2     2     0     7     4     4
 ExpMin= 9.07D-02 ExpMax= 1.36D+03 ExpMxC= 2.49D+02 IAcc=2 IRadAn=         4 AccDes= 0.00D+00
 Harris functional with IExCor=  205 and IRadAn=       4 diagonalized for initial guess.
 HarFok:  IExCor=  205 AccDes= 0.00D+00 IRadAn=         4 IDoV= 1 UseB2=F ITyADJ=14
 ICtDFT=  3500011 ScaDFX=  1.000000  1.000000  1.000000  1.000000
 FoFCou: FMM=F IPFlag=           0 FMFlag=      100000 FMFlg1=           0
         NFxFlg=           0 DoJE=T BraDBF=F KetDBF=T FulRan=T
         wScrn=  0.000000 ICntrl=     500 IOpCl=  0 I1Cent=   200000004 NGrid=           0
         NMat0=    1 NMatS0=      1 NMatT0=    0 NMatD0=    1 NMtDS0=    0 NMtDT0=    0
 Petite list used in FoFCou.
 Initial guess orbital symmetries:
       Occupied  (SGU) (SGG) (SGG) (SGG) (SGU) (SGG) (SGU) (PIU)
                 (PIU) (PIG) (PIG)
       Virtual   (PIU) (PIU) (SGG) (SGU) (SGG) (SGG) (PIU) (PIU)
                 (SGU) (SGU) (PIG) (PIG) (PIU) (PIU) (SGG) (SGU)
 The electronic state of the initial guess is 1-SGG.
 Keep R1 ints in memory in symmetry-blocked form, NReq=910728.
 Requested convergence on RMS density matrix=1.00D-08 within 128 cycles.
 Requested convergence on MAX density matrix=1.00D-06.
 Requested convergence on             energy=1.00D-06.
 No special actions if energy rises.
 SCF Done:  E(RHF) =  -187.254961612     A.U. after   10 cycles
            NFock= 10  Conv=0.38D-08     -V/T= 2.0045

 **********************************************************************

            Population analysis using the SCF density.

 **********************************************************************

 Orbital symmetries:
       Occupied  (SGU) (SGG) (SGG) (SGG) (SGU) (SGG) (SGU) (PIU)
                 (PIU) (PIG) (PIG)
       Virtual   (PIU) (PIU) (SGG) (SGU) (SGG) (SGG) (PIU) (PIU)
                 (SGU) (SGU) (PIG) (PIG) (PIU) (PIU) (SGG) (SGU)
 The electronic state is 1-SGG.
 Alpha  occ. eigenvalues --  -20.68623 -20.68598 -11.53241  -1.50898  -1.46648
 Alpha  occ. eigenvalues --   -0.80410  -0.71152  -0.69016  -0.69016  -0.53391
 Alpha  occ. eigenvalues --   -0.53391
 Alpha virt. eigenvalues --    0.11888   0.11888   0.13216   0.38791   0.42646
 Alpha virt. eigenvalues --    0.66299   0.69201   0.69201   0.85890   0.97001
 Alpha virt. eigenvalues --    1.35505   1.35505   1.54721   1.54721   1.80069
 Alpha virt. eigenvalues --    1.93119
          Condensed to atoms (all electrons):
               1          2          3
     1  C    4.524420   0.319601   0.319601
     2  O    0.319601   8.129620  -0.031033
     3  O    0.319601  -0.031033   8.129620
 Mulliken charges:
               1
     1  C    0.836377
     2  O   -0.418189
     3  O   -0.418189
 Sum of Mulliken charges =   0.00000
 Mulliken charges with hydrogens summed into heavy atoms:
               1
     1  C    0.836377
     2  O   -0.418189
     3  O   -0.418189
 Electronic spatial extent (au):  <R**2>=            129.9759
 Charge=              0.0000 electrons
 Dipole moment (field-independent basis, Debye):
    X=             -0.0000    Y=              0.0000    Z=              0.0000  Tot=              0.0000
 Quadrupole moment (field-independent basis, Debye-Ang):
   XX=            -15.2389   YY=            -15.2389   ZZ=            -22.6448
   XY=              0.0000   XZ=              0.0000   YZ=              0.0000
 Traceless Quadrupole moment (field-independent basis, Debye-Ang):
   XX=              2.4686   YY=              2.4686   ZZ=             -4.9373
   XY=              0.0000   XZ=              0.0000   YZ=              0.0000
 Octapole moment (field-independent basis, Debye-Ang**2):
  XXX=             -0.0000  YYY=              0.0000  ZZZ=              0.0000  XYY=             -0.0000
  XXY=              0.0000  XXZ=              0.0000  XZZ=             -0.0000  YZZ=              0.0000
  YYZ=              0.0000  XYZ=             -0.0000
 Hexadecapole moment (field-independent basis, Debye-Ang**3):
 XXXX=            -11.0668 YYYY=            -11.0668 ZZZZ=           -125.9511 XXXY=              0.0000
 XXXZ=              0.0000 YYYX=              0.0000 YYYZ=              0.0000 ZZZX=              0.0000
 ZZZY=              0.0000 XXYY=             -3.6889 XXZZ=            -21.8004 YYZZ=            -21.8004
 XXYZ=              0.0000 YYXZ=              0.0000 ZZXY=             -0.0000
 N-N= 5.382603520305D+01 E-N=-5.488816043642D+02  KE= 1.864072887262D+02
 Symmetry AG   KE= 1.009278080368D+02
 Symmetry B1G  KE= 0.000000000000D+00
 Symmetry B2G  KE= 4.667670669214D+00
 Symmetry B3G  KE= 4.667670669214D+00
 Symmetry AU   KE= 0.000000000000D+00
 Symmetry B1U  KE= 6.892025365669D+01
 Symmetry B2U  KE= 3.611942847131D+00
 Symmetry B3U  KE= 3.611942847132D+00
 Calling FoFJK, ICntrl=      2127 FMM=F ISym2X=1 I1Cent= 0 IOpClX= 0 NMat=1 NMatS=1 NMatT=0.
 ***** Axes restored to original set *****
 -------------------------------------------------------------------
 Center     Atomic                   Forces (Hartrees/Bohr)
 Number     Number              X              Y              Z
 -------------------------------------------------------------------
      1        6          -0.000000000    0.000000000   -0.000000000
      2        8          -0.132706545   -0.000000000    0.000000000
      3        8           0.132706545   -0.000000000    0.000000000
 -------------------------------------------------------------------
 Cartesian Forces:  Max     0.132706545 RMS     0.062558465

 GradGradGradGradGradGradGradGradGradGradGradGradGradGradGradGradGradGrad
 Berny optimization.
 FormGI is forming the generalized inverse of G from B-inverse, IUseBI=4.
 Internal  Forces:  Max     0.132706545 RMS     0.093837698
 Search for a local minimum.
 Step number   1 out of a maximum of   20
 All quantities printed in internal units (Hartrees-Bohrs-Radians)
 Mixed Optimization -- RFO/linear search
 Second derivative matrix not updated -- first step.
 The second derivative matrix:
                          R1        R2        A1        A2
           R1           0.80209
           R2           0.00000   0.80209
           A1           0.00000   0.00000   0.03565
           A2           0.00000   0.00000   0.00000   0.03565
 ITU=  0
     Eigenvalues ---    0.03565   0.03565   0.80209   0.80209
 RFO step:  Lambda=-4.17407692D-02 EMin= 3.56487685D-02
 Linear search not attempted -- first point.
 Iteration  1 RMS(Cart)=  0.11120469 RMS(Int)=  0.00000000
 Iteration  2 RMS(Cart)=  0.00000000 RMS(Int)=  0.00000000
 ClnCor:  largest displacement from symmetrization is 1.06D-13 for atom     1.
 Variable       Old X    -DE/DX   Delta X   Delta X   Delta X     New X
                                 (Linear)    (Quad)   (Total)
    R1        2.37803  -0.13271   0.00000  -0.15727  -0.15727   2.22076
    R2        2.37803  -0.13271   0.00000  -0.15727  -0.15727   2.22076
    A1        3.14159  -0.00000   0.00000  -0.00000   0.00000   3.14159
    A2        3.14159  -0.00000   0.00000  -0.00000   0.00000   3.14159
         Item               Value     Threshold  Converged?
 Maximum Force            0.132707     0.000450     NO 
 RMS     Force            0.093838     0.000300     NO 
 Maximum Displacement     0.157267     0.001800     NO 
 RMS     Displacement     0.111205     0.001200     NO 
 Predicted change in Energy=-2.190276D-02
 GradGradGradGradGradGradGradGradGradGradGradGradGradGradGradGradGradGrad

                          Input orientation:                          
 ---------------------------------------------------------------------
 Center     Atomic      Atomic             Coordinates (Angstroms)
 Number     Number       Type             X           Y           Z
 ---------------------------------------------------------------------
      1          6           0       -1.045714    1.691429    0.000000
      2          8           0        0.129464    1.691429    0.000000
      3          8           0       -2.220892    1.691429   -0.000000
 ---------------------------------------------------------------------
                    Distance matrix (angstroms):
                    1          2          3
     1  C    0.000000
     2  O    1.175178   0.000000
     3  O    1.175178   2.350356   0.000000
 Stoichiometry    CO2
 Framework group  D*H[O(C),C*(O.O)]
 Deg. of freedom     1
 Full point group                 D*H     NOp   8
 Largest Abelian subgroup         D2H     NOp   8
 Largest concise Abelian subgroup C2      NOp   2
                         Standard orientation:                         
 ---------------------------------------------------------------------
 Center     Atomic      Atomic             Coordinates (Angstroms)
 Number     Number       Type             X           Y           Z
 ---------------------------------------------------------------------
      1          6           0        0.000000    0.000000    0.000000
      2          8           0        0.000000    0.000000    1.175178
      3          8           0        0.000000    0.000000   -1.175178
 ---------------------------------------------------------------------
 Rotational constants (GHZ):      0.0000000     11.4392651     11.4392651
 Basis read from rwf:  (5D, 7F)
 There are     8 symmetry adapted cartesian basis functions of AG  symmetry.
 There are     0 symmetry adapted cartesian basis functions of B1G symmetry.
 There are     2 symmetry adapted cartesian basis functions of B2G symmetry.
 There are     2 symmetry adapted cartesian basis functions of B3G symmetry.
 There are     0 symmetry adapted cartesian basis functions of AU  symmetry.
 There are     7 symmetry adapted cartesian basis functions of B1U symmetry.
 There are     4 symmetry adapted cartesian basis functions of B2U symmetry.
 There are     4 symmetry adapted cartesian basis functions of B3U symmetry.
 There are     8 symmetry adapted basis functions of AG  symmetry.
 There are     0 symmetry adapted basis functions of B1G symmetry.
 There are     2 symmetry adapted basis functions of B2G symmetry.
 There are     2 symmetry adapted basis functions of B3G symmetry.
 There are     0 symmetry adapted basis functions of AU  symmetry.
 There are     7 symmetry adapted basis functions of B1U symmetry.
 There are     4 symmetry adapted basis functions of B2U symmetry.
 There are     4 symmetry adapted basis functions of B3U symmetry.
    27 basis functions,    66 primitive gaussians,    27 cartesian basis functions
    11 alpha electrons       11 beta electrons
       nuclear repulsion energy        57.6378172767 Hartrees.
 NAtoms=    3 NActive=    3 NUniq=    2 SFac= 2.25D+00 NAtFMM=   60 NAOKFM=F Big=F
 Integral buffers will be    131072 words long.
 Raffenetti 1 integral format.
 Two-electron integral symmetry is turned on.
 One-electron integrals computed using PRISM.
 NBasis=    27 RedAO= T EigKep=  1.85D-02  NBF=     8     0     2     2     0     7     4     4
 NBsUse=    27 1.00D-06 EigRej= -1.00D+00 NBFU=     8     0     2     2     0     7     4     4
 Initial guess from the checkpoint file:  "//home/aalrawas/scratch/Gau-7881.chk"
 B after Tr=    -0.000000    0.000000    0.000000
         Rot=    1.000000    0.000000    0.000000    0.000000 Ang=   0.00 deg.
 Initial guess orbital symmetries:
       Occupied  (SGU) (SGG) (SGG) (SGG) (SGU) (SGG) (SGU) (PIU)
                 (PIU) (PIG) (PIG)
       Virtual   (SGG) (SGG) (SGG) (SGG) (PIG) (PIG) (SGU) (SGU)
                 (SGU) (SGU) (PIU) (PIU) (PIU) (PIU) (PIU) (PIU)
 ExpMin= 9.07D-02 ExpMax= 1.36D+03 ExpMxC= 2.49D+02 IAcc=2 IRadAn=         4 AccDes= 0.00D+00
 Harris functional with IExCor=  205 and IRadAn=       4 diagonalized for initial guess.
 HarFok:  IExCor=  205 AccDes= 0.00D+00 IRadAn=         4 IDoV= 1 UseB2=F ITyADJ=14
 ICtDFT=  3500011 ScaDFX=  1.000000  1.000000  1.000000  1.000000
 FoFCou: FMM=F IPFlag=           0 FMFlag=      100000 FMFlg1=           0
         NFxFlg=           0 DoJE=T BraDBF=F KetDBF=T FulRan=T
         wScrn=  0.000000 ICntrl=     500 IOpCl=  0 I1Cent=   200000004 NGrid=           0
         NMat0=    1 NMatS0=      1 NMatT0=    0 NMatD0=    1 NMtDS0=    0 NMtDT0=    0
 Petite list used in FoFCou.
 Keep R1 ints in memory in symmetry-blocked form, NReq=910840.
 Requested convergence on RMS density matrix=1.00D-08 within 128 cycles.
 Requested convergence on MAX density matrix=1.00D-06.
 Requested convergence on             energy=1.00D-06.
 No special actions if energy rises.
 SCF Done:  E(RHF) =  -187.278821255     A.U. after   10 cycles
            NFock= 10  Conv=0.21D-08     -V/T= 2.0015
 Calling FoFJK, ICntrl=      2127 FMM=F ISym2X=1 I1Cent= 0 IOpClX= 0 NMat=1 NMatS=1 NMatT=0.
 ***** Axes restored to original set *****
 -------------------------------------------------------------------
 Center     Atomic                   Forces (Hartrees/Bohr)
 Number     Number              X              Y              Z
 -------------------------------------------------------------------
      1        6           0.000000000    0.000000000   -0.000000000
      2        8          -0.005927778   -0.000000000    0.000000000
      3        8           0.005927778   -0.000000000    0.000000000
 -------------------------------------------------------------------
 Cartesian Forces:  Max     0.005927778 RMS     0.002794381

 GradGradGradGradGradGradGradGradGradGradGradGradGradGradGradGradGradGrad
 Berny optimization.
 Using GEDIIS/GDIIS optimizer.
 Internal  Forces:  Max     0.005927778 RMS     0.004191572
 Search for a local minimum.
 Step number   2 out of a maximum of   20
 All quantities printed in internal units (Hartrees-Bohrs-Radians)
 Mixed Optimization -- RFO/linear search
 Update second derivatives using D2CorX and points    1    2
 DE= -2.39D-02 DEPred=-2.19D-02 R= 1.09D+00
 TightC=F SS=  1.41D+00  RLast= 2.22D-01 DXNew= 5.0454D-01 6.6723D-01
 Trust test= 1.09D+00 RLast= 2.22D-01 DXMaxT set to 5.05D-01
 The second derivative matrix:
                          R1        R2        A1        A2
           R1           0.80411
           R2           0.00202   0.80411
           A1          -0.00000  -0.00000   0.03565
           A2          -0.00000  -0.00000   0.00000   0.03565
 ITU=  1  0
 Use linear search instead of GDIIS.
     Eigenvalues ---    0.03565   0.03565   0.80209   0.80614
 RFO step:  Lambda= 0.00000000D+00 EMin= 3.56487685D-02
 Quartic linear search produced a step of  0.03494.
 Iteration  1 RMS(Cart)=  0.00388566 RMS(Int)=  0.00000000
 Iteration  2 RMS(Cart)=  0.00000000 RMS(Int)=  0.00000000
 ClnCor:  largest displacement from symmetrization is 2.49D-13 for atom     1.
 Variable       Old X    -DE/DX   Delta X   Delta X   Delta X     New X
                                 (Linear)    (Quad)   (Total)
    R1        2.22076  -0.00593  -0.00550  -0.00000  -0.00550   2.21527
    R2        2.22076  -0.00593  -0.00550   0.00000  -0.00550   2.21527
    A1        3.14159  -0.00000   0.00000  -0.00000   0.00000   3.14159
    A2        3.14159  -0.00000   0.00000  -0.00000   0.00000   3.14159
         Item               Value     Threshold  Converged?
 Maximum Force            0.005928     0.000450     NO 
 RMS     Force            0.004192     0.000300     NO 
 Maximum Displacement     0.005495     0.001800     NO 
 RMS     Displacement     0.003886     0.001200     NO 
 Predicted change in Energy=-4.080545D-05
 GradGradGradGradGradGradGradGradGradGradGradGradGradGradGradGradGradGrad

                          Input orientation:                          
 ---------------------------------------------------------------------
 Center     Atomic      Atomic             Coordinates (Angstroms)
 Number     Number       Type             X           Y           Z
 ---------------------------------------------------------------------
      1          6           0       -1.045714    1.691429   -0.000000
      2          8           0        0.126556    1.691429    0.000000
      3          8           0       -2.217984    1.691429   -0.000000
 ---------------------------------------------------------------------
                    Distance matrix (angstroms):
                    1          2          3
     1  C    0.000000
     2  O    1.172270   0.000000
     3  O    1.172270   2.344540   0.000000
 Stoichiometry    CO2
 Framework group  D*H[O(C),C*(O.O)]
 Deg. of freedom     1
 Full point group                 D*H     NOp   8
 Largest Abelian subgroup         D2H     NOp   8
 Largest concise Abelian subgroup C2      NOp   2
                         Standard orientation:                         
 ---------------------------------------------------------------------
 Center     Atomic      Atomic             Coordinates (Angstroms)
 Number     Number       Type             X           Y           Z
 ---------------------------------------------------------------------
      1          6           0        0.000000    0.000000    0.000000
      2          8           0        0.000000    0.000000    1.172270
      3          8           0        0.000000    0.000000   -1.172270
 ---------------------------------------------------------------------
 Rotational constants (GHZ):      0.0000000     11.4960875     11.4960875
 Basis read from rwf:  (5D, 7F)
 There are     8 symmetry adapted cartesian basis functions of AG  symmetry.
 There are     0 symmetry adapted cartesian basis functions of B1G symmetry.
 There are     2 symmetry adapted cartesian basis functions of B2G symmetry.
 There are     2 symmetry adapted cartesian basis functions of B3G symmetry.
 There are     0 symmetry adapted cartesian basis functions of AU  symmetry.
 There are     7 symmetry adapted cartesian basis functions of B1U symmetry.
 There are     4 symmetry adapted cartesian basis functions of B2U symmetry.
 There are     4 symmetry adapted cartesian basis functions of B3U symmetry.
 There are     8 symmetry adapted basis functions of AG  symmetry.
 There are     0 symmetry adapted basis functions of B1G symmetry.
 There are     2 symmetry adapted basis functions of B2G symmetry.
 There are     2 symmetry adapted basis functions of B3G symmetry.
 There are     0 symmetry adapted basis functions of AU  symmetry.
 There are     7 symmetry adapted basis functions of B1U symmetry.
 There are     4 symmetry adapted basis functions of B2U symmetry.
 There are     4 symmetry adapted basis functions of B3U symmetry.
    27 basis functions,    66 primitive gaussians,    27 cartesian basis functions
    11 alpha electrons       11 beta electrons
       nuclear repulsion energy        57.7807925899 Hartrees.
 NAtoms=    3 NActive=    3 NUniq=    2 SFac= 2.25D+00 NAtFMM=   60 NAOKFM=F Big=F
 Integral buffers will be    131072 words long.
 Raffenetti 1 integral format.
 Two-electron integral symmetry is turned on.
 One-electron integrals computed using PRISM.
 NBasis=    27 RedAO= T EigKep=  1.85D-02  NBF=     8     0     2     2     0     7     4     4
 NBsUse=    27 1.00D-06 EigRej= -1.00D+00 NBFU=     8     0     2     2     0     7     4     4
 Initial guess from the checkpoint file:  "//home/aalrawas/scratch/Gau-7881.chk"
 B after Tr=    -0.000000    0.000000   -0.000000
         Rot=    1.000000    0.000000    0.000000    0.000000 Ang=   0.00 deg.
 Initial guess orbital symmetries:
       Occupied  (SGU) (SGG) (SGG) (SGG) (SGU) (SGG) (SGU) (PIU)
                 (PIU) (PIG) (PIG)
       Virtual   (SGG) (SGG) (SGG) (SGG) (PIG) (PIG) (SGU) (SGU)
                 (SGU) (SGU) (PIU) (PIU) (PIU) (PIU) (PIU) (PIU)
 Keep R1 ints in memory in symmetry-blocked form, NReq=910840.
 Requested convergence on RMS density matrix=1.00D-08 within 128 cycles.
 Requested convergence on MAX density matrix=1.00D-06.
 Requested convergence on             energy=1.00D-06.
 No special actions if energy rises.
 SCF Done:  E(RHF) =  -187.278853712     A.U. after    8 cycles
            NFock=  8  Conv=0.60D-08     -V/T= 2.0014
 Calling FoFJK, ICntrl=      2127 FMM=F ISym2X=1 I1Cent= 0 IOpClX= 0 NMat=1 NMatS=1 NMatT=0.
 ***** Axes restored to original set *****
 -------------------------------------------------------------------
 Center     Atomic                   Forces (Hartrees/Bohr)
 Number     Number              X              Y              Z
 -------------------------------------------------------------------
      1        6          -0.000000000    0.000000000   -0.000000000
      2        8           0.000041368   -0.000000000    0.000000000
      3        8          -0.000041368   -0.000000000    0.000000000
 -------------------------------------------------------------------
 Cartesian Forces:  Max     0.000041368 RMS     0.000019501

 GradGradGradGradGradGradGradGradGradGradGradGradGradGradGradGradGradGrad
 Berny optimization.
 Using GEDIIS/GDIIS optimizer.
 Internal  Forces:  Max     0.000041368 RMS     0.000029252
 Search for a local minimum.
 Step number   3 out of a maximum of   20
 All quantities printed in internal units (Hartrees-Bohrs-Radians)
 Mixed Optimization -- En-DIIS/RFO-DIIS
 Update second derivatives using D2CorX and points    1    2    3
 DE= -3.25D-05 DEPred=-4.08D-05 R= 7.95D-01
 TightC=F SS=  1.41D+00  RLast= 7.77D-03 DXNew= 8.4853D-01 2.3314D-02
 Trust test= 7.95D-01 RLast= 7.77D-03 DXMaxT set to 5.05D-01
 The second derivative matrix:
                          R1        R2        A1        A2
           R1           0.94417
           R2           0.14208   0.94417
           A1          -0.00000  -0.00000   0.03565
           A2          -0.00000  -0.00000   0.00000   0.03565
 ITU=  1  1  0
 Use linear search instead of GDIIS.
     Eigenvalues ---    0.03565   0.03565   0.80209   1.08626
 RFO step:  Lambda= 0.00000000D+00 EMin= 3.56487685D-02
 Quartic linear search produced a step of -0.00686.
 Iteration  1 RMS(Cart)=  0.00002666 RMS(Int)=  0.00000000
 Iteration  2 RMS(Cart)=  0.00000000 RMS(Int)=  0.00000000
 ClnCor:  largest displacement from symmetrization is 2.49D-13 for atom     1.
 Variable       Old X    -DE/DX   Delta X   Delta X   Delta X     New X
                                 (Linear)    (Quad)   (Total)
    R1        2.21527   0.00004   0.00004   0.00000   0.00004   2.21531
    R2        2.21527   0.00004   0.00004  -0.00000   0.00004   2.21531
    A1        3.14159  -0.00000   0.00000  -0.00000   0.00000   3.14159
    A2        3.14159  -0.00000   0.00000  -0.00000   0.00000   3.14159
         Item               Value     Threshold  Converged?
 Maximum Force            0.000041     0.000450     YES
 RMS     Force            0.000029     0.000300     YES
 Maximum Displacement     0.000038     0.001800     YES
 RMS     Displacement     0.000027     0.001200     YES
 Predicted change in Energy=-1.575278D-09
 Optimization completed.
    -- Stationary point found.
                           ----------------------------
                           !   Optimized Parameters   !
                           ! (Angstroms and Degrees)  !
 --------------------------                            --------------------------
 ! Name  Definition              Value          Derivative Info.                !
 --------------------------------------------------------------------------------
 ! R1    R(1,2)                  1.1723         -DE/DX =    0.0                 !
 ! R2    R(1,3)                  1.1723         -DE/DX =    0.0                 !
 ! A1    L(2,1,3,-2,-1)        180.0            -DE/DX =    0.0                 !
 ! A2    L(2,1,3,-3,-2)        180.0            -DE/DX =    0.0                 !
 --------------------------------------------------------------------------------
 GradGradGradGradGradGradGradGradGradGradGradGradGradGradGradGradGradGrad

                          Input orientation:                          
 ---------------------------------------------------------------------
 Center     Atomic      Atomic             Coordinates (Angstroms)
 Number     Number       Type             X           Y           Z
 ---------------------------------------------------------------------
      1          6           0       -1.045714    1.691429   -0.000000
      2          8           0        0.126556    1.691429    0.000000
      3          8           0       -2.217984    1.691429   -0.000000
 ---------------------------------------------------------------------
                    Distance matrix (angstroms):
                    1          2          3
     1  C    0.000000
     2  O    1.172270   0.000000
     3  O    1.172270   2.344540   0.000000
 Stoichiometry    CO2
 Framework group  D*H[O(C),C*(O.O)]
 Deg. of freedom     1
 Full point group                 D*H     NOp   8
 Largest Abelian subgroup         D2H     NOp   8
 Largest concise Abelian subgroup C2      NOp   2
                         Standard orientation:                         
 ---------------------------------------------------------------------
 Center     Atomic      Atomic             Coordinates (Angstroms)
 Number     Number       Type             X           Y           Z
 ---------------------------------------------------------------------
      1          6           0        0.000000    0.000000    0.000000
      2          8           0        0.000000    0.000000    1.172270
      3          8           0        0.000000    0.000000   -1.172270
 ---------------------------------------------------------------------
 Rotational constants (GHZ):      0.0000000     11.4960875     11.4960875

 **********************************************************************

            Population analysis using the SCF density.

 **********************************************************************

 Orbital symmetries:
       Occupied  (SGU) (SGG) (SGG) (SGG) (SGU) (SGG) (SGU) (PIU)
                 (PIU) (PIG) (PIG)
       Virtual   (SGG) (PIU) (PIU) (SGU) (SGG) (PIU) (PIU) (SGG)
                 (SGU) (SGU) (PIG) (PIG) (PIU) (PIU) (SGG) (SGU)
 The electronic state is 1-SGG.
 Alpha  occ. eigenvalues --  -20.67400 -20.67365 -11.50811  -1.56095  -1.51921
 Alpha  occ. eigenvalues --   -0.79500  -0.73475  -0.72963  -0.72963  -0.53937
 Alpha  occ. eigenvalues --   -0.53937
 Alpha virt. eigenvalues --    0.14308   0.17762   0.17762   0.37554   0.53519
 Alpha virt. eigenvalues --    0.67876   0.67876   0.68220   0.84714   1.21059
 Alpha virt. eigenvalues --    1.37016   1.37016   1.57211   1.57211   1.75484
 Alpha virt. eigenvalues --    1.91590
          Condensed to atoms (all electrons):
               1          2          3
     1  C    4.563399   0.328021   0.328021
     2  O    0.328021   8.114907  -0.052648
     3  O    0.328021  -0.052648   8.114907
 Mulliken charges:
               1
     1  C    0.780560
     2  O   -0.390280
     3  O   -0.390280
 Sum of Mulliken charges =  -0.00000
 Mulliken charges with hydrogens summed into heavy atoms:
               1
     1  C    0.780560
     2  O   -0.390280
     3  O   -0.390280
 Electronic spatial extent (au):  <R**2>=            117.1268
 Charge=             -0.0000 electrons
 Dipole moment (field-independent basis, Debye):
    X=             -0.0000    Y=              0.0000    Z=              0.0000  Tot=              0.0000
 Quadrupole moment (field-independent basis, Debye-Ang):
   XX=            -14.8939   YY=            -14.8939   ZZ=            -22.1414
   XY=              0.0000   XZ=              0.0000   YZ=              0.0000
 Traceless Quadrupole moment (field-independent basis, Debye-Ang):
   XX=              2.4158   YY=              2.4158   ZZ=             -4.8316
   XY=              0.0000   XZ=              0.0000   YZ=              0.0000
 Octapole moment (field-independent basis, Debye-Ang**2):
  XXX=             -0.0000  YYY=             -0.0000  ZZZ=             -0.0000  XYY=             -0.0000
  XXY=              0.0000  XXZ=             -0.0000  XZZ=             -0.0000  YZZ=              0.0000
  YYZ=              0.0000  XYZ=             -0.0000
 Hexadecapole moment (field-independent basis, Debye-Ang**3):
 XXXX=            -10.6206 YYYY=            -10.6206 ZZZZ=           -111.4360 XXXY=              0.0000
 XXXZ=              0.0000 YYYX=              0.0000 YYYZ=              0.0000 ZZZX=              0.0000
 ZZZY=              0.0000 XXYY=             -3.5402 XXZZ=            -19.2860 YYZZ=            -19.2860
 XXYZ=              0.0000 YYXZ=              0.0000 ZZXY=             -0.0000
 N-N= 5.778079258986D+01 E-N=-5.571323601969D+02  KE= 1.870204152219D+02
 Symmetry AG   KE= 1.011966126264D+02
 Symmetry B1G  KE= 0.000000000000D+00
 Symmetry B2G  KE= 4.704799205887D+00
 Symmetry B3G  KE= 4.704799205887D+00
 Symmetry AU   KE= 0.000000000000D+00
 Symmetry B1U  KE= 6.917340782498D+01
 Symmetry B2U  KE= 3.620398179399D+00
 Symmetry B3U  KE= 3.620398179399D+00
 1\1\GINC-TATANKA\FOpt\RHF\Gen\C1O2\AALRAWAS\23-Nov-2016\0\\# hf/gen op
 t freq\\Title Card Required\\0,1\C,-1.04571427,1.69142854,0.\O,0.12655
 56083,1.69142854,0.\O,-2.2179841483,1.69142854,0.\\Version=ES64L-G09Re
 vE.01\State=1-SGG\HF=-187.2788537\RMSD=5.952e-09\RMSF=1.950e-05\Dipole
 =0.,0.,0.\Quadrupole=-3.5921823,1.7960911,1.7960911,0.,0.,0.\PG=D*H [O
 (C1),C*(O1.O1)]\\@


 AND HERE I AM, FOR ALL MY LORE,
 THE WRETCHED FOOL I WAS BEFORE.
 CALLED MASTER OF ARTS, AND DOCTOR TO BOOT,
 FOR TEN YEARS ALMOST I CONFUTE
 AND UP AND DOWN, WHEREVER IT GOES
 I DRAG MY STUDENTS BY THE NOSE --
 AND SEE THAT FOR ALL OUR SCIENCE AND ART
 WE CAN KNOW NOTHING.  IT BURNS MY HEART.

                                       -- FAUST
 Job cpu time:       0 days  0 hours  0 minutes  2.6 seconds.
 File lengths (MBytes):  RWF=     72 Int=      0 D2E=      0 Chk=      2 Scr=      2
 Normal termination of Gaussian 09 at Wed Nov 23 17:43:31 2016.
 Link1:  Proceeding to internal job step number  2.
 ---------------------------------------------------------------
 #N Geom=AllCheck Guess=TCheck SCRF=Check GenChk RHF/ChkBas Freq
 ---------------------------------------------------------------
 1/10=4,29=7,30=1,38=1,40=1/1,3;
 2/12=2,40=1/2;
 3/5=7,6=2,11=1,14=-4,16=1,25=1,30=1,67=1,70=2,71=2,82=7,116=1,140=1/1,2,3;
 4/5=101/1;
 5/5=2,38=6,98=1/2;
 8/6=4,10=90,11=11/1;
 10/13=10,15=4/2;
 11/6=3,8=1,9=11,15=111,16=1/1,2,10;
 10/6=1/2;
 6/7=2,8=2,9=2,10=2,18=1,28=1/1;
 7/8=1,10=1,25=1/1,2,3,16;
 1/10=4,30=1/3;
 99//99;
 Structure from the checkpoint file:  "//home/aalrawas/scratch/Gau-7881.chk"
 -------------------
 Title Card Required
 -------------------
 Charge =  0 Multiplicity = 1
 Redundant internal coordinates found in file.
 C,0,-1.04571427,1.69142854,0.
 O,0,0.1265556083,1.69142854,0.
 O,0,-2.2179841483,1.69142854,0.
 Recover connectivity data from disk.

 GradGradGradGradGradGradGradGradGradGradGradGradGradGradGradGradGradGrad
 Berny optimization.
 Initialization pass.
                           ----------------------------
                           !    Initial Parameters    !
                           ! (Angstroms and Degrees)  !
 --------------------------                            --------------------------
 ! Name  Definition              Value          Derivative Info.                !
 --------------------------------------------------------------------------------
 ! R1    R(1,2)                  1.1723         calculate D2E/DX2 analytically  !
 ! R2    R(1,3)                  1.1723         calculate D2E/DX2 analytically  !
 ! A1    L(2,1,3,-2,-1)        180.0            calculate D2E/DX2 analytically  !
 ! A2    L(2,1,3,-3,-2)        180.0            calculate D2E/DX2 analytically  !
 --------------------------------------------------------------------------------
 Trust Radius=3.00D-01 FncErr=1.00D-07 GrdErr=1.00D-07
 Number of steps in this run=      2 maximum allowed number of steps=      2.
 GradGradGradGradGradGradGradGradGradGradGradGradGradGradGradGradGradGrad

                          Input orientation:                          
 ---------------------------------------------------------------------
 Center     Atomic      Atomic             Coordinates (Angstroms)
 Number     Number       Type             X           Y           Z
 ---------------------------------------------------------------------
      1          6           0       -1.045714    1.691429   -0.000000
      2          8           0        0.126556    1.691429    0.000000
      3          8           0       -2.217984    1.691429   -0.000000
 ---------------------------------------------------------------------
                    Distance matrix (angstroms):
                    1          2          3
     1  C    0.000000
     2  O    1.172270   0.000000
     3  O    1.172270   2.344540   0.000000
 Stoichiometry    CO2
 Framework group  D*H[O(C),C*(O.O)]
 Deg. of freedom     1
 Full point group                 D*H     NOp   8
 Largest Abelian subgroup         D2H     NOp   8
 Largest concise Abelian subgroup C2      NOp   2
                         Standard orientation:                         
 ---------------------------------------------------------------------
 Center     Atomic      Atomic             Coordinates (Angstroms)
 Number     Number       Type             X           Y           Z
 ---------------------------------------------------------------------
      1          6           0        0.000000    0.000000    0.000000
      2          8           0        0.000000    0.000000    1.172270
      3          8           0        0.000000    0.000000   -1.172270
 ---------------------------------------------------------------------
 Rotational constants (GHZ):      0.0000000     11.4960875     11.4960875
 Basis read from chk: "//home/aalrawas/scratch/Gau-7881.chk" (5D, 7F)
 There are     8 symmetry adapted cartesian basis functions of AG  symmetry.
 There are     0 symmetry adapted cartesian basis functions of B1G symmetry.
 There are     2 symmetry adapted cartesian basis functions of B2G symmetry.
 There are     2 symmetry adapted cartesian basis functions of B3G symmetry.
 There are     0 symmetry adapted cartesian basis functions of AU  symmetry.
 There are     7 symmetry adapted cartesian basis functions of B1U symmetry.
 There are     4 symmetry adapted cartesian basis functions of B2U symmetry.
 There are     4 symmetry adapted cartesian basis functions of B3U symmetry.
 There are     8 symmetry adapted basis functions of AG  symmetry.
 There are     0 symmetry adapted basis functions of B1G symmetry.
 There are     2 symmetry adapted basis functions of B2G symmetry.
 There are     2 symmetry adapted basis functions of B3G symmetry.
 There are     0 symmetry adapted basis functions of AU  symmetry.
 There are     7 symmetry adapted basis functions of B1U symmetry.
 There are     4 symmetry adapted basis functions of B2U symmetry.
 There are     4 symmetry adapted basis functions of B3U symmetry.
    27 basis functions,    66 primitive gaussians,    27 cartesian basis functions
    11 alpha electrons       11 beta electrons
       nuclear repulsion energy        57.7807925899 Hartrees.
 NAtoms=    3 NActive=    3 NUniq=    2 SFac= 2.25D+00 NAtFMM=   60 NAOKFM=F Big=F
 Integral buffers will be    131072 words long.
 Raffenetti 1 integral format.
 Two-electron integral symmetry is turned on.
 One-electron integrals computed using PRISM.
 NBasis=    27 RedAO= T EigKep=  1.85D-02  NBF=     8     0     2     2     0     7     4     4
 NBsUse=    27 1.00D-06 EigRej= -1.00D+00 NBFU=     8     0     2     2     0     7     4     4
 Initial guess from the checkpoint file:  "//home/aalrawas/scratch/Gau-7881.chk"
 B after Tr=     0.000000    0.000000    0.000000
         Rot=    1.000000    0.000000    0.000000    0.000000 Ang=   0.00 deg.
 Initial guess orbital symmetries:
       Occupied  (SGU) (SGG) (SGG) (SGG) (SGU) (SGG) (SGU) (PIU)
                 (PIU) (PIG) (PIG)
       Virtual   (SGG) (PIU) (PIU) (SGU) (SGG) (PIU) (PIU) (SGG)
                 (SGU) (SGU) (PIG) (PIG) (PIU) (PIU) (SGG) (SGU)
 Keep R1 ints in memory in symmetry-blocked form, NReq=910840.
 Requested convergence on RMS density matrix=1.00D-08 within 128 cycles.
 Requested convergence on MAX density matrix=1.00D-06.
 Requested convergence on             energy=1.00D-06.
 No special actions if energy rises.
 SCF Done:  E(RHF) =  -187.278853712     A.U. after    1 cycles
            NFock=  1  Conv=0.25D-09     -V/T= 2.0014
 Range of M.O.s used for correlation:     1    27
 NBasis=    27 NAE=    11 NBE=    11 NFC=     0 NFV=     0
 NROrb=     27 NOA=    11 NOB=    11 NVA=    16 NVB=    16
          Differentiating once with respect to electric field.
                with respect to dipole field.
          Electric field/nuclear overlap derivatives assumed to be zero.
 Keep R1 ints in memory in symmetry-blocked form, NReq=895887.
          There are     3 degrees of freedom in the 1st order CPHF.  IDoFFX=0 NUNeed=     3.
      3 vectors produced by pass  0 Test12= 5.87D-15 3.33D-08 XBig12= 8.14D+00 1.87D+00.
 AX will form     3 AO Fock derivatives at one time.
      3 vectors produced by pass  1 Test12= 5.87D-15 3.33D-08 XBig12= 1.29D+00 5.54D-01.
      3 vectors produced by pass  2 Test12= 5.87D-15 3.33D-08 XBig12= 4.22D-02 8.59D-02.
      3 vectors produced by pass  3 Test12= 5.87D-15 3.33D-08 XBig12= 4.27D-04 1.21D-02.
      3 vectors produced by pass  4 Test12= 5.87D-15 3.33D-08 XBig12= 8.78D-06 2.02D-03.
      3 vectors produced by pass  5 Test12= 5.87D-15 3.33D-08 XBig12= 4.07D-08 1.08D-04.
      3 vectors produced by pass  6 Test12= 5.87D-15 3.33D-08 XBig12= 1.64D-10 4.75D-06.
      1 vectors produced by pass  7 Test12= 5.87D-15 3.33D-08 XBig12= 6.90D-13 3.00D-07.
 InvSVY:  IOpt=1 It=  1 EMax= 4.44D-16
 Solved reduced A of dimension    22 with     3 vectors.
 End of Minotr F.D. properties file   721 does not exist.
 End of Minotr F.D. properties file   722 does not exist.
 End of Minotr F.D. properties file   788 does not exist.
 Symmetrizing basis deriv contribution to polar:
 IMax=3 JMax=2 DiffMx= 0.00D+00
 G2DrvN: will do     4 centers at a time, making    1 passes.
 PxScal for G2LodP:  IOpCl= 0 ISclPx=1 IMOff=     1 NMtTot=     4 NTT=     378 ScalPx= 1.13D+00
 Calling FoFCou, ICntrl=  3107 FMM=F I1Cent=   0 AccDes= 0.00D+00.
 End of G2Drv F.D. properties file   721 does not exist.
 End of G2Drv F.D. properties file   722 does not exist.
 End of G2Drv F.D. properties file   788 does not exist.
          IDoAtm=111
          Differentiating once with respect to electric field.
                with respect to dipole field.
          Differentiating once with respect to nuclear coordinates.
 Keep R1 ints in memory in symmetry-blocked form, NReq=895956.
          There are     9 degrees of freedom in the 1st order CPHF.  IDoFFX=4 NUNeed=     9.
 Will reuse    3 saved solutions.
      6 vectors produced by pass  0 Test12= 1.96D-15 1.11D-08 XBig12= 1.91D-01 1.83D-01.
 AX will form     6 AO Fock derivatives at one time.
      6 vectors produced by pass  1 Test12= 1.96D-15 1.11D-08 XBig12= 9.15D-02 1.93D-01.
      6 vectors produced by pass  2 Test12= 1.96D-15 1.11D-08 XBig12= 6.64D-03 4.22D-02.
      6 vectors produced by pass  3 Test12= 1.96D-15 1.11D-08 XBig12= 1.12D-04 3.91D-03.
      6 vectors produced by pass  4 Test12= 1.96D-15 1.11D-08 XBig12= 4.48D-07 2.91D-04.
      6 vectors produced by pass  5 Test12= 1.96D-15 1.11D-08 XBig12= 3.35D-09 2.88D-05.
      6 vectors produced by pass  6 Test12= 1.96D-15 1.11D-08 XBig12= 2.08D-11 2.41D-06.
      2 vectors produced by pass  7 Test12= 1.96D-15 1.11D-08 XBig12= 1.07D-13 1.82D-07.
      1 vectors produced by pass  8 Test12= 1.96D-15 1.11D-08 XBig12= 7.84D-16 1.35D-08.
 InvSVY:  IOpt=1 It=  1 EMax= 2.22D-16
 Solved reduced A of dimension    45 with     6 vectors.
 Isotropic polarizability for W=    0.000000       11.20 Bohr**3.
 End of Minotr F.D. properties file   721 does not exist.
 End of Minotr F.D. properties file   722 does not exist.
 End of Minotr F.D. properties file   788 does not exist.

 **********************************************************************

            Population analysis using the SCF density.

 **********************************************************************

 Orbital symmetries:
       Occupied  (SGU) (SGG) (SGG) (SGG) (SGU) (SGG) (SGU) (PIU)
                 (PIU) (PIG) (PIG)
       Virtual   (SGG) (PIU) (PIU) (SGU) (SGG) (PIU) (PIU) (SGG)
                 (SGU) (SGU) (PIG) (PIG) (PIU) (PIU) (SGG) (SGU)
 The electronic state is 1-SGG.
 Alpha  occ. eigenvalues --  -20.67400 -20.67365 -11.50811  -1.56095  -1.51921
 Alpha  occ. eigenvalues --   -0.79500  -0.73475  -0.72963  -0.72963  -0.53937
 Alpha  occ. eigenvalues --   -0.53937
 Alpha virt. eigenvalues --    0.14308   0.17762   0.17762   0.37554   0.53519
 Alpha virt. eigenvalues --    0.67876   0.67876   0.68220   0.84714   1.21059
 Alpha virt. eigenvalues --    1.37016   1.37016   1.57211   1.57211   1.75484
 Alpha virt. eigenvalues --    1.91590
          Condensed to atoms (all electrons):
               1          2          3
     1  C    4.563399   0.328021   0.328021
     2  O    0.328021   8.114907  -0.052648
     3  O    0.328021  -0.052648   8.114907
 Mulliken charges:
               1
     1  C    0.780560
     2  O   -0.390280
     3  O   -0.390280
 Sum of Mulliken charges =   0.00000
 Mulliken charges with hydrogens summed into heavy atoms:
               1
     1  C    0.780560
     2  O   -0.390280
     3  O   -0.390280
 APT charges:
               1
     1  C    1.433927
     2  O   -0.716963
     3  O   -0.716963
 Sum of APT charges =   0.00000
 APT charges with hydrogens summed into heavy atoms:
               1
     1  C    1.433927
     2  O   -0.716963
     3  O   -0.716963
 Electronic spatial extent (au):  <R**2>=            117.1268
 Charge=              0.0000 electrons
 Dipole moment (field-independent basis, Debye):
    X=             -0.0000    Y=             -0.0000    Z=              0.0000  Tot=              0.0000
 Quadrupole moment (field-independent basis, Debye-Ang):
   XX=            -14.8939   YY=            -14.8939   ZZ=            -22.1414
   XY=              0.0000   XZ=              0.0000   YZ=              0.0000
 Traceless Quadrupole moment (field-independent basis, Debye-Ang):
   XX=              2.4158   YY=              2.4158   ZZ=             -4.8316
   XY=              0.0000   XZ=              0.0000   YZ=              0.0000
 Octapole moment (field-independent basis, Debye-Ang**2):
  XXX=             -0.0000  YYY=             -0.0000  ZZZ=              0.0000  XYY=             -0.0000
  XXY=              0.0000  XXZ=             -0.0000  XZZ=             -0.0000  YZZ=             -0.0000
  YYZ=             -0.0000  XYZ=             -0.0000
 Hexadecapole moment (field-independent basis, Debye-Ang**3):
 XXXX=            -10.6206 YYYY=            -10.6206 ZZZZ=           -111.4360 XXXY=              0.0000
 XXXZ=              0.0000 YYYX=              0.0000 YYYZ=              0.0000 ZZZX=              0.0000
 ZZZY=              0.0000 XXYY=             -3.5402 XXZZ=            -19.2860 YYZZ=            -19.2860
 XXYZ=              0.0000 YYXZ=              0.0000 ZZXY=             -0.0000
 N-N= 5.778079258986D+01 E-N=-5.571323602004D+02  KE= 1.870204152240D+02
 Symmetry AG   KE= 1.011966126273D+02
 Symmetry B1G  KE= 0.000000000000D+00
 Symmetry B2G  KE= 4.704799207325D+00
 Symmetry B3G  KE= 4.704799207325D+00
 Symmetry AU   KE= 0.000000000000D+00
 Symmetry B1U  KE= 6.917340782467D+01
 Symmetry B2U  KE= 3.620398178688D+00
 Symmetry B3U  KE= 3.620398178688D+00
  Exact polarizability:   5.793   0.000   5.793  -0.000   0.000  22.016
 Approx polarizability:   4.372  -0.000   4.372  -0.000  -0.000  26.047
 Calling FoFJK, ICntrl=    100127 FMM=F ISym2X=1 I1Cent= 0 IOpClX= 0 NMat=1 NMatS=1 NMatT=0.
 Full mass-weighted force constant matrix:
 Low frequencies ---   -5.5536   -5.5536    0.0008    0.0009    0.0009  671.1028
 Low frequencies ---  671.1028 1346.3838 2307.8230
 Diagonal vibrational polarizability:
        4.8704962       4.8704962       3.7964577
 Diagonal vibrational hyperpolarizability:
       -0.0000000       0.0000000      -0.0000000
 Harmonic frequencies (cm**-1), IR intensities (KM/Mole), Raman scattering
 activities (A**4/AMU), depolarization ratios for plane and unpolarized
 incident light, reduced masses (AMU), force constants (mDyne/A),
 and normal coordinates:
                      1                      2                      3
                     PIU                    PIU                    SGG
 Frequencies --    671.1028               671.1028              1346.3838
 Red. masses --     12.8774                12.8774                15.9949
 Frc consts  --      3.4171                 3.4171                17.0832
 IR Inten    --     81.5114                81.5114                 0.0000
 Raman Activ --      0.0000                 0.0000                12.7557
 Depolar (P) --      0.0000                 0.0000                 0.1502
 Depolar (U) --      0.0000                 0.0000                 0.2612
  Atom  AN      X      Y      Z        X      Y      Z        X      Y      Z
     1   6    -0.02   0.88  -0.00     0.88   0.02  -0.00     0.00  -0.00  -0.00
     2   8     0.01  -0.33   0.00    -0.33  -0.01  -0.00    -0.00   0.00   0.71
     3   8     0.01  -0.33  -0.00    -0.33  -0.01   0.00    -0.00   0.00  -0.71
                      4
                     SGU
 Frequencies --   2307.8230
 Red. masses --     12.8774
 Frc consts  --     40.4094
 IR Inten    --    751.3641
 Raman Activ --      0.0000
 Depolar (P) --      0.0000
 Depolar (U) --      0.0000
  Atom  AN      X      Y      Z
     1   6     0.00   0.00   0.88
     2   8    -0.00  -0.00  -0.33
     3   8    -0.00  -0.00  -0.33

 -------------------
 - Thermochemistry -
 -------------------
 Temperature   298.150 Kelvin.  Pressure   1.00000 Atm.
 Atom     1 has atomic number  6 and mass  12.00000
 Atom     2 has atomic number  8 and mass  15.99491
 Atom     3 has atomic number  8 and mass  15.99491
 Molecular mass:    43.98983 amu.
 Principal axes and moments of inertia in atomic units:
                           1         2         3
     Eigenvalues --     0.00000 156.98743 156.98743
           X           -0.00000   1.00000  -0.00000
           Y            0.00000   0.00000   1.00000
           Z            1.00000   0.00000  -0.00000
 This molecule is a prolate symmetric top.
 Rotational symmetry number  2.
 Rotational temperature (Kelvin)      0.55172
 Rotational constant (GHZ):          11.496088
 Zero-point vibrational energy      29885.2 (Joules/Mol)
                                    7.14273 (Kcal/Mol)
 Vibrational temperatures:    965.57   965.57  1937.14  3320.44
          (Kelvin)
 
 Zero-point correction=                           0.011383 (Hartree/Particle)
 Thermal correction to Energy=                    0.014002
 Thermal correction to Enthalpy=                  0.014946
 Thermal correction to Gibbs Free Energy=        -0.009329
 Sum of electronic and zero-point Energies=           -187.267471
 Sum of electronic and thermal Energies=              -187.264852
 Sum of electronic and thermal Enthalpies=            -187.263907
 Sum of electronic and thermal Free Energies=         -187.288182
 
                     E (Thermal)             CV                S
                      KCal/Mol        Cal/Mol-Kelvin    Cal/Mol-Kelvin
 Total                    8.787              6.870             51.091
 Electronic               0.000              0.000              0.000
 Translational            0.889              2.981             37.270
 Rotational               0.592              1.987             13.114
 Vibrational              7.305              1.902              0.707
                       Q            Log10(Q)             Ln(Q)
 Total Bot       0.195403D+05          4.290930          9.880232
 Total V=0       0.336187D+10          9.526581         21.935764
 Vib (Bot)       0.630615D-05         -5.200236        -11.973986
 Vib (V=0)       0.108496D+01          0.035415          0.081547
 Electronic      0.100000D+01          0.000000          0.000000
 Translational   0.114679D+08          7.059484         16.255062
 Rotational      0.270198D+03          2.431683          5.599156
 ***** Axes restored to original set *****
 -------------------------------------------------------------------
 Center     Atomic                   Forces (Hartrees/Bohr)
 Number     Number              X              Y              Z
 -------------------------------------------------------------------
      1        6          -0.000000000    0.000000000   -0.000000000
      2        8           0.000041368   -0.000000000   -0.000000000
      3        8          -0.000041368   -0.000000000    0.000000000
 -------------------------------------------------------------------
 Cartesian Forces:  Max     0.000041368 RMS     0.000019501
 FormGI is forming the generalized inverse of G from B-inverse, IUseBI=4.

 GradGradGradGradGradGradGradGradGradGradGradGradGradGradGradGradGradGrad
 Berny optimization.
 Internal  Forces:  Max     0.000041368 RMS     0.000029251
 Search for a local minimum.
 Step number   1 out of a maximum of    2
 All quantities printed in internal units (Hartrees-Bohrs-Radians)
 Second derivative matrix not updated -- analytic derivatives used.
 The second derivative matrix:
                          R1        R2        A1        A2
           R1           0.98835
           R2           0.10891   0.98835
           A1           0.00000  -0.00000   0.18252
           A2           0.00000  -0.00000   0.00000   0.18252
 ITU=  0
     Eigenvalues ---    0.18252   0.18252   0.87944   1.09726
 Angle between quadratic step and forces=   0.00 degrees.
 Linear search not attempted -- first point.
 Iteration  1 RMS(Cart)=  0.00002666 RMS(Int)=  0.00000000
 Iteration  2 RMS(Cart)=  0.00000000 RMS(Int)=  0.00000000
 ClnCor:  largest displacement from symmetrization is 3.81D-14 for atom     1.
 Variable       Old X    -DE/DX   Delta X   Delta X   Delta X     New X
                                 (Linear)    (Quad)   (Total)
    R1        2.21527   0.00004   0.00000   0.00004   0.00004   2.21531
    R2        2.21527   0.00004   0.00000   0.00004   0.00004   2.21531
    A1        3.14159  -0.00000   0.00000  -0.00000   0.00000   3.14159
    A2        3.14159  -0.00000   0.00000  -0.00000   0.00000   3.14159
         Item               Value     Threshold  Converged?
 Maximum Force            0.000041     0.000450     YES
 RMS     Force            0.000029     0.000300     YES
 Maximum Displacement     0.000038     0.001800     YES
 RMS     Displacement     0.000027     0.001200     YES
 Predicted change in Energy=-1.559606D-09
 Optimization completed.
    -- Stationary point found.
                           ----------------------------
                           !   Optimized Parameters   !
                           ! (Angstroms and Degrees)  !
 --------------------------                            --------------------------
 ! Name  Definition              Value          Derivative Info.                !
 --------------------------------------------------------------------------------
 ! R1    R(1,2)                  1.1723         -DE/DX =    0.0                 !
 ! R2    R(1,3)                  1.1723         -DE/DX =    0.0                 !
 ! A1    L(2,1,3,-2,-1)        180.0            -DE/DX =    0.0                 !
 ! A2    L(2,1,3,-3,-2)        180.0            -DE/DX =    0.0                 !
 --------------------------------------------------------------------------------
 GradGradGradGradGradGradGradGradGradGradGradGradGradGradGradGradGradGrad

 1\1\GINC-TATANKA\Freq\RHF\Gen\C1O2\AALRAWAS\23-Nov-2016\0\\#N Geom=All
 Check Guess=TCheck SCRF=Check GenChk RHF/ChkBas Freq\\Title Card Requi
 red\\0,1\C,-1.04571427,1.69142854,0.\O,0.1265556083,1.69142854,0.\O,-2
 .2179841483,1.69142854,0.\\Version=ES64L-G09RevE.01\State=1-SGG\HF=-18
 7.2788537\RMSD=2.494e-10\RMSF=1.950e-05\ZeroPoint=0.0113827\Thermal=0.
 0140022\Dipole=0.,0.,0.\DipoleDeriv=2.5934032,0.,0.,0.,0.8541888,0.,0.
 ,0.,0.8541888,-1.2967016,0.,0.,0.,-0.4270944,0.,0.,0.,-0.4270944,-1.29
 67016,0.,0.,0.,-0.4270944,0.,0.,0.,-0.4270944\Polar=22.0162488,0.,5.79
 32633,0.,0.,5.7932633\PolarDeriv=0.,0.,0.,0.,0.,0.,0.,0.,0.,0.,0.,0.,0
 .,0.,0.,0.,0.,0.,9.5000943,0.,1.9750393,0.,0.,1.9750393,0.,3.6616277,0
 .,0.,0.,0.,0.,0.,0.,3.6616277,0.,0.,-9.5000943,0.,-1.9750393,0.,0.,-1.
 9750393,0.,-3.6616277,0.,0.,0.,0.,0.,0.,0.,-3.6616277,0.,0.\HyperPolar
 =0.,0.,0.,0.,0.,0.,0.,0.,0.,0.\PG=D*H [O(C1),C*(O1.O1)]\NImag=0\\1.758
 88453,0.,0.14873404,0.,0.,0.14873404,-0.87944226,0.,0.,0.98835309,0.,-
 0.07436702,0.,0.,0.03717418,0.,0.,-0.07436702,0.,0.,0.03717418,-0.8794
 4226,0.,0.,-0.10891082,0.,0.,0.98835309,0.,-0.07436702,0.,0.,0.0371928
 5,0.,0.,0.03717418,0.,0.,-0.07436702,0.,0.,0.03719285,0.,0.,0.03717418
 \\0.,0.,0.,-0.00004137,0.,0.,0.00004137,0.,0.\\\@


 The arm of the moral universe is long, but it bends toward justice.
 -- Martin Luther King, Jr.
 Job cpu time:       0 days  0 hours  0 minutes  1.7 seconds.
 File lengths (MBytes):  RWF=     82 Int=      0 D2E=      0 Chk=      2 Scr=      2
 Normal termination of Gaussian 09 at Wed Nov 23 17:43:33 2016.
