 Entering Gaussian System, Link 0=g09
 Initial command:
 /home/chongee/g09/l1.exe "/home/chongee/BasisSet/Gau-915.inp" -scrdir="/home/chongee/BasisSet/"
 Entering Link 1 = /home/chongee/g09/l1.exe PID=       917.
  
 Copyright (c) 1988,1990,1992,1993,1995,1998,2003,2009,2013,
            Gaussian, Inc.  All Rights Reserved.
  
 This is part of the Gaussian(R) 09 program.  It is based on
 the Gaussian(R) 03 system (copyright 2003, Gaussian, Inc.),
 the Gaussian(R) 98 system (copyright 1998, Gaussian, Inc.),
 the Gaussian(R) 94 system (copyright 1995, Gaussian, Inc.),
 the Gaussian 92(TM) system (copyright 1992, Gaussian, Inc.),
 the Gaussian 90(TM) system (copyright 1990, Gaussian, Inc.),
 the Gaussian 88(TM) system (copyright 1988, Gaussian, Inc.),
 the Gaussian 86(TM) system (copyright 1986, Carnegie Mellon
 University), and the Gaussian 82(TM) system (copyright 1983,
 Carnegie Mellon University). Gaussian is a federally registered
 trademark of Gaussian, Inc.
  
 This software contains proprietary and confidential information,
 including trade secrets, belonging to Gaussian, Inc.
  
 This software is provided under written license and may be
 used, copied, transmitted, or stored only in accord with that
 written license.
  
 The following legend is applicable only to US Government
 contracts under FAR:
  
                    RESTRICTED RIGHTS LEGEND
  
 Use, reproduction and disclosure by the US Government is
 subject to restrictions as set forth in subparagraphs (a)
 and (c) of the Commercial Computer Software - Restricted
 Rights clause in FAR 52.227-19.
  
 Gaussian, Inc.
 340 Quinnipiac St., Bldg. 40, Wallingford CT 06492
  
  
 ---------------------------------------------------------------
 Warning -- This program may not be used in any manner that
 competes with the business of Gaussian, Inc. or will provide
 assistance to any competitor of Gaussian, Inc.  The licensee
 of this program is prohibited from giving any competitor of
 Gaussian, Inc. access to this program.  By using this program,
 the user acknowledges that Gaussian, Inc. is engaged in the
 business of creating and licensing software in the field of
 computational chemistry and represents and warrants to the
 licensee that it is not a competitor of Gaussian, Inc. and that
 it will not use this program in any manner prohibited above.
 ---------------------------------------------------------------
  

 Cite this work as:
 Gaussian 09, Revision D.01,
 M. J. Frisch, G. W. Trucks, H. B. Schlegel, G. E. Scuseria, 
 M. A. Robb, J. R. Cheeseman, G. Scalmani, V. Barone, B. Mennucci, 
 G. A. Petersson, H. Nakatsuji, M. Caricato, X. Li, H. P. Hratchian, 
 A. F. Izmaylov, J. Bloino, G. Zheng, J. L. Sonnenberg, M. Hada, 
 M. Ehara, K. Toyota, R. Fukuda, J. Hasegawa, M. Ishida, T. Nakajima, 
 Y. Honda, O. Kitao, H. Nakai, T. Vreven, J. A. Montgomery, Jr., 
 J. E. Peralta, F. Ogliaro, M. Bearpark, J. J. Heyd, E. Brothers, 
 K. N. Kudin, V. N. Staroverov, T. Keith, R. Kobayashi, J. Normand, 
 K. Raghavachari, A. Rendell, J. C. Burant, S. S. Iyengar, J. Tomasi, 
 M. Cossi, N. Rega, J. M. Millam, M. Klene, J. E. Knox, J. B. Cross, 
 V. Bakken, C. Adamo, J. Jaramillo, R. Gomperts, R. E. Stratmann, 
 O. Yazyev, A. J. Austin, R. Cammi, C. Pomelli, J. W. Ochterski, 
 R. L. Martin, K. Morokuma, V. G. Zakrzewski, G. A. Voth, 
 P. Salvador, J. J. Dannenberg, S. Dapprich, A. D. Daniels, 
 O. Farkas, J. B. Foresman, J. V. Ortiz, J. Cioslowski, 
 and D. J. Fox, Gaussian, Inc., Wallingford CT, 2013.
 
 ******************************************
 Gaussian 09:  EM64L-G09RevD.01 24-Apr-2013
                17-Nov-2016 
 ******************************************
 ------------
 # opt hf/gen
 ------------
 1/18=20,19=15,38=1/1,3;
 2/9=110,12=2,17=6,18=5,40=1/2;
 3/5=7,11=9,16=1,25=1,30=1,71=1/1,2,3;
 4//1;
 5/5=2,38=5/2;
 6/7=2,8=2,9=2,10=2,28=1/1;
 7//1,2,3,16;
 1/18=20,19=15/3(2);
 2/9=110/2;
 99//99;
 2/9=110/2;
 3/5=7,6=1,11=9,16=1,25=1,30=1,71=1,82=7/1,2,3;
 4/5=5,16=3,69=1/1;
 5/5=2,38=5/2;
 7//1,2,3,16;
 1/18=20,19=15/3(-5);
 2/9=110/2;
 6/7=2,8=2,9=2,10=2,19=2,28=1/1;
 99/9=1/99;
 --
 F2
 --
 Symbolic Z-matrix:
 Charge =  0 Multiplicity = 1
 F
 F                    1     1.41 
 

 GradGradGradGradGradGradGradGradGradGradGradGradGradGradGradGradGradGrad
 Berny optimization.
 Initialization pass.
                           ----------------------------
                           !    Initial Parameters    !
                           ! (Angstroms and Degrees)  !
 --------------------------                            --------------------------
 ! Name  Definition              Value          Derivative Info.                !
 --------------------------------------------------------------------------------
 ! R1    R(1,2)                  1.41           estimate D2E/DX2                !
 --------------------------------------------------------------------------------
 Trust Radius=3.00D-01 FncErr=1.00D-07 GrdErr=1.00D-07
 Number of steps in this run=     20 maximum allowed number of steps=    100.
 GradGradGradGradGradGradGradGradGradGradGradGradGradGradGradGradGradGrad

                          Input orientation:                          
 ---------------------------------------------------------------------
 Center     Atomic      Atomic             Coordinates (Angstroms)
 Number     Number       Type             X           Y           Z
 ---------------------------------------------------------------------
      1          9           0        0.000000    0.000000    0.000000
      2          9           0        0.000000    0.000000    1.410000
 ---------------------------------------------------------------------
 Stoichiometry    F2
 Framework group  D*H[C*(F.F)]
 Deg. of freedom     1
 Full point group                 D*H     NOp   8
 Largest Abelian subgroup         D2H     NOp   8
 Largest concise Abelian subgroup C2      NOp   2
                         Standard orientation:                         
 ---------------------------------------------------------------------
 Center     Atomic      Atomic             Coordinates (Angstroms)
 Number     Number       Type             X           Y           Z
 ---------------------------------------------------------------------
      1          9           0        0.000000    0.000000    0.705000
      2          9           0        0.000000    0.000000   -0.705000
 ---------------------------------------------------------------------
 Rotational constants (GHZ):      0.0000000     26.7603547     26.7603547
 General basis read from cards:  (5D, 7F)
 There are     5 symmetry adapted cartesian basis functions of AG  symmetry.
 There are     0 symmetry adapted cartesian basis functions of B1G symmetry.
 There are     2 symmetry adapted cartesian basis functions of B2G symmetry.
 There are     2 symmetry adapted cartesian basis functions of B3G symmetry.
 There are     0 symmetry adapted cartesian basis functions of AU  symmetry.
 There are     5 symmetry adapted cartesian basis functions of B1U symmetry.
 There are     2 symmetry adapted cartesian basis functions of B2U symmetry.
 There are     2 symmetry adapted cartesian basis functions of B3U symmetry.
 There are     5 symmetry adapted basis functions of AG  symmetry.
 There are     0 symmetry adapted basis functions of B1G symmetry.
 There are     2 symmetry adapted basis functions of B2G symmetry.
 There are     2 symmetry adapted basis functions of B3G symmetry.
 There are     0 symmetry adapted basis functions of AU  symmetry.
 There are     5 symmetry adapted basis functions of B1U symmetry.
 There are     2 symmetry adapted basis functions of B2U symmetry.
 There are     2 symmetry adapted basis functions of B3U symmetry.
    18 basis functions,    44 primitive gaussians,    18 cartesian basis functions
     9 alpha electrons        9 beta electrons
       nuclear repulsion energy        30.3995417701 Hartrees.
 NAtoms=    2 NActive=    2 NUniq=    1 SFac= 4.00D+00 NAtFMM=   60 NAOKFM=F Big=F
 Integral buffers will be    131072 words long.
 Raffenetti 1 integral format.
 Two-electron integral symmetry is turned on.
 One-electron integrals computed using PRISM.
 NBasis=    18 RedAO= T EigKep=  1.08D-01  NBF=     5     0     2     2     0     5     2     2
 NBsUse=    18 1.00D-06 EigRej= -1.00D+00 NBFU=     5     0     2     2     0     5     2     2
 ExpMin= 1.70D-01 ExpMax= 1.73D+03 ExpMxC= 3.18D+02 IAcc=1 IRadAn=         1 AccDes= 0.00D+00
 Harris functional with IExCor=  205 and IRadAn=       1 diagonalized for initial guess.
 HarFok:  IExCor=  205 AccDes= 0.00D+00 IRadAn=         1 IDoV= 1 UseB2=F ITyADJ=14
 ICtDFT=  3500011 ScaDFX=  1.000000  1.000000  1.000000  1.000000
 FoFCou: FMM=F IPFlag=           0 FMFlag=      100000 FMFlg1=           0
         NFxFlg=           0 DoJE=T BraDBF=F KetDBF=T FulRan=T
         wScrn=  0.000000 ICntrl=     500 IOpCl=  0 I1Cent=   200000004 NGrid=           0
         NMat0=    1 NMatS0=      1 NMatT0=    0 NMatD0=    1 NMtDS0=    0 NMtDT0=    0
 Petite list used in FoFCou.
 Initial guess orbital symmetries:
       Occupied  (SGU) (SGG) (SGG) (SGU) (SGG) (PIU) (PIU) (PIG)
                 (PIG)
       Virtual   (SGU) (SGG) (SGU) (PIU) (PIU) (PIG) (PIG) (SGG)
                 (SGU)
 The electronic state of the initial guess is 1-SGG.
 Keep R1 ints in memory in symmetry-blocked form, NReq=844325.
 Requested convergence on RMS density matrix=1.00D-08 within 128 cycles.
 Requested convergence on MAX density matrix=1.00D-06.
 Requested convergence on             energy=1.00D-06.
 No special actions if energy rises.
 SCF Done:  E(RHF) =  -198.407152508     A.U. after    7 cycles
            NFock=  7  Conv=0.84D-08     -V/T= 2.0009

 **********************************************************************

            Population analysis using the SCF density.

 **********************************************************************

 Orbital symmetries:
       Occupied  (SGG) (SGU) (SGG) (SGU) (PIU) (PIU) (SGG) (PIG)
                 (PIG)
       Virtual   (SGU) (SGG) (SGU) (PIU) (PIU) (PIG) (PIG) (SGG)
                 (SGU)
 The electronic state is 1-SGG.
 Alpha  occ. eigenvalues --  -26.41963 -26.41948  -1.77362  -1.49633  -0.79888
 Alpha  occ. eigenvalues --   -0.79888  -0.72893  -0.65296  -0.65296
 Alpha virt. eigenvalues --    0.10825   0.56431   0.64736   1.55492   1.55492
 Alpha virt. eigenvalues --    1.78628   1.78628   1.97463   2.06231
          Condensed to atoms (all electrons):
               1          2
     1  F    8.923087   0.076913
     2  F    0.076913   8.923087
 Mulliken charges:
               1
     1  F    0.000000
     2  F    0.000000
 Sum of Mulliken charges =   0.00000
 Mulliken charges with hydrogens summed into heavy atoms:
               1
     1  F    0.000000
     2  F    0.000000
 Electronic spatial extent (au):  <R**2>=             52.3622
 Charge=              0.0000 electrons
 Dipole moment (field-independent basis, Debye):
    X=              0.0000    Y=              0.0000    Z=              0.0000  Tot=              0.0000
 Quadrupole moment (field-independent basis, Debye-Ang):
   XX=             -9.2376   YY=             -9.2376   ZZ=             -8.9820
   XY=              0.0000   XZ=              0.0000   YZ=              0.0000
 Traceless Quadrupole moment (field-independent basis, Debye-Ang):
   XX=             -0.0852   YY=             -0.0852   ZZ=              0.1704
   XY=              0.0000   XZ=              0.0000   YZ=              0.0000
 Octapole moment (field-independent basis, Debye-Ang**2):
  XXX=              0.0000  YYY=              0.0000  ZZZ=              0.0000  XYY=              0.0000
  XXY=              0.0000  XXZ=              0.0000  XZZ=              0.0000  YZZ=              0.0000
  YYZ=              0.0000  XYZ=              0.0000
 Hexadecapole moment (field-independent basis, Debye-Ang**3):
 XXXX=             -4.5424 YYYY=             -4.5424 ZZZZ=            -28.7470 XXXY=              0.0000
 XXXZ=              0.0000 YYYX=              0.0000 YYYZ=              0.0000 ZZZX=              0.0000
 ZZZY=              0.0000 XXYY=             -1.5141 XXZZ=             -6.1413 YYZZ=             -6.1413
 XXYZ=              0.0000 YYXZ=              0.0000 ZZXY=              0.0000
 N-N= 3.039954177006D+01 E-N=-5.363585019957D+02  KE= 1.982284164022D+02
 Symmetry AG   KE= 8.791254539194D+01
 Symmetry B1G  KE= 0.000000000000D+00
 Symmetry B2G  KE= 7.296204811545D+00
 Symmetry B3G  KE= 7.296204811545D+00
 Symmetry AU   KE= 0.000000000000D+00
 Symmetry B1U  KE= 8.338404395838D+01
 Symmetry B2U  KE= 6.169708714397D+00
 Symmetry B3U  KE= 6.169708714397D+00
 Calling FoFJK, ICntrl=      2127 FMM=F ISym2X=1 I1Cent= 0 IOpClX= 0 NMat=1 NMatS=1 NMatT=0.
 ***** Axes restored to original set *****
 -------------------------------------------------------------------
 Center     Atomic                   Forces (Hartrees/Bohr)
 Number     Number              X              Y              Z
 -------------------------------------------------------------------
      1        9           0.000000000    0.000000000    0.004354248
      2        9           0.000000000    0.000000000   -0.004354248
 -------------------------------------------------------------------
 Cartesian Forces:  Max     0.004354248 RMS     0.002513927

 GradGradGradGradGradGradGradGradGradGradGradGradGradGradGradGradGradGrad
 Berny optimization.
 FormGI is forming the generalized inverse of G from B-inverse, IUseBI=4.
 Internal  Forces:  Max     0.004354248 RMS     0.004354248
 Search for a local minimum.
 Step number   1 out of a maximum of   20
 All quantities printed in internal units (Hartrees-Bohrs-Radians)
 Mixed Optimization -- RFO/linear search
 Second derivative matrix not updated -- first step.
 The second derivative matrix:
                          R1
           R1           0.44003
 ITU=  0
     Eigenvalues ---    0.44003
 RFO step:  Lambda=-4.30829186D-05 EMin= 4.40026447D-01
 Linear search not attempted -- first point.
 Iteration  1 RMS(Cart)=  0.00699644 RMS(Int)=  0.00000000
 Iteration  2 RMS(Cart)=  0.00000000 RMS(Int)=  0.00000000
 ClnCor:  largest displacement from symmetrization is 3.03D-19 for atom     1.
 Variable       Old X    -DE/DX   Delta X   Delta X   Delta X     New X
                                 (Linear)    (Quad)   (Total)
    R1        2.66451  -0.00435   0.00000  -0.00989  -0.00989   2.65462
         Item               Value     Threshold  Converged?
 Maximum Force            0.004354     0.000450     NO 
 RMS     Force            0.004354     0.000300     NO 
 Maximum Displacement     0.004947     0.001800     NO 
 RMS     Displacement     0.006996     0.001200     NO 
 Predicted change in Energy=-2.154357D-05
 GradGradGradGradGradGradGradGradGradGradGradGradGradGradGradGradGradGrad

                          Input orientation:                          
 ---------------------------------------------------------------------
 Center     Atomic      Atomic             Coordinates (Angstroms)
 Number     Number       Type             X           Y           Z
 ---------------------------------------------------------------------
      1          9           0        0.000000    0.000000    0.002618
      2          9           0        0.000000    0.000000    1.407382
 ---------------------------------------------------------------------
 Stoichiometry    F2
 Framework group  D*H[C*(F.F)]
 Deg. of freedom     1
 Full point group                 D*H     NOp   8
 Largest Abelian subgroup         D2H     NOp   8
 Largest concise Abelian subgroup C2      NOp   2
                         Standard orientation:                         
 ---------------------------------------------------------------------
 Center     Atomic      Atomic             Coordinates (Angstroms)
 Number     Number       Type             X           Y           Z
 ---------------------------------------------------------------------
      1          9           0        0.000000    0.000000    0.702382
      2          9           0        0.000000    0.000000   -0.702382
 ---------------------------------------------------------------------
 Rotational constants (GHZ):      0.0000000     26.9602120     26.9602120
 Basis read from rwf:  (5D, 7F)
 There are     5 symmetry adapted cartesian basis functions of AG  symmetry.
 There are     0 symmetry adapted cartesian basis functions of B1G symmetry.
 There are     2 symmetry adapted cartesian basis functions of B2G symmetry.
 There are     2 symmetry adapted cartesian basis functions of B3G symmetry.
 There are     0 symmetry adapted cartesian basis functions of AU  symmetry.
 There are     5 symmetry adapted cartesian basis functions of B1U symmetry.
 There are     2 symmetry adapted cartesian basis functions of B2U symmetry.
 There are     2 symmetry adapted cartesian basis functions of B3U symmetry.
 There are     5 symmetry adapted basis functions of AG  symmetry.
 There are     0 symmetry adapted basis functions of B1G symmetry.
 There are     2 symmetry adapted basis functions of B2G symmetry.
 There are     2 symmetry adapted basis functions of B3G symmetry.
 There are     0 symmetry adapted basis functions of AU  symmetry.
 There are     5 symmetry adapted basis functions of B1U symmetry.
 There are     2 symmetry adapted basis functions of B2U symmetry.
 There are     2 symmetry adapted basis functions of B3U symmetry.
    18 basis functions,    44 primitive gaussians,    18 cartesian basis functions
     9 alpha electrons        9 beta electrons
       nuclear repulsion energy        30.5128487549 Hartrees.
 NAtoms=    2 NActive=    2 NUniq=    1 SFac= 4.00D+00 NAtFMM=   60 NAOKFM=F Big=F
 Integral buffers will be    131072 words long.
 Raffenetti 1 integral format.
 Two-electron integral symmetry is turned on.
 One-electron integrals computed using PRISM.
 NBasis=    18 RedAO= T EigKep=  1.07D-01  NBF=     5     0     2     2     0     5     2     2
 NBsUse=    18 1.00D-06 EigRej= -1.00D+00 NBFU=     5     0     2     2     0     5     2     2
 Initial guess from the checkpoint file:  "/home/chongee/BasisSet/Gau-917.chk"
 B after Tr=     0.000000    0.000000    0.000000
         Rot=    1.000000    0.000000    0.000000    0.000000 Ang=   0.00 deg.
 Initial guess orbital symmetries:
       Occupied  (SGG) (SGU) (SGG) (SGU) (PIU) (PIU) (SGG) (PIG)
                 (PIG)
       Virtual   (SGG) (SGG) (PIG) (PIG) (SGU) (SGU) (SGU) (PIU)
                 (PIU)
 Keep R1 ints in memory in symmetry-blocked form, NReq=844325.
 Requested convergence on RMS density matrix=1.00D-08 within 128 cycles.
 Requested convergence on MAX density matrix=1.00D-06.
 Requested convergence on             energy=1.00D-06.
 No special actions if energy rises.
 SCF Done:  E(RHF) =  -198.407168987     A.U. after    7 cycles
            NFock=  7  Conv=0.39D-09     -V/T= 2.0008
 Calling FoFJK, ICntrl=      2127 FMM=F ISym2X=1 I1Cent= 0 IOpClX= 0 NMat=1 NMatS=1 NMatT=0.
 ***** Axes restored to original set *****
 -------------------------------------------------------------------
 Center     Atomic                   Forces (Hartrees/Bohr)
 Number     Number              X              Y              Z
 -------------------------------------------------------------------
      1        9           0.000000000    0.000000000   -0.001048986
      2        9           0.000000000    0.000000000    0.001048986
 -------------------------------------------------------------------
 Cartesian Forces:  Max     0.001048986 RMS     0.000605633

 GradGradGradGradGradGradGradGradGradGradGradGradGradGradGradGradGradGrad
 Berny optimization.
 Using GEDIIS/GDIIS optimizer.
 Internal  Forces:  Max     0.001048986 RMS     0.001048986
 Search for a local minimum.
 Step number   2 out of a maximum of   20
 All quantities printed in internal units (Hartrees-Bohrs-Radians)
 Mixed Optimization -- RFO/linear search
 Update second derivatives using D2CorX and points    1    2
 DE= -1.65D-05 DEPred=-2.15D-05 R= 7.65D-01
 TightC=F SS=  1.41D+00  RLast= 9.89D-03 DXNew= 5.0454D-01 2.9683D-02
 Trust test= 7.65D-01 RLast= 9.89D-03 DXMaxT set to 3.00D-01
 The second derivative matrix:
                          R1
           R1           0.54609
 ITU=  1  0
 Use linear search instead of GDIIS.
     Eigenvalues ---    0.54609
 RFO step:  Lambda= 0.00000000D+00 EMin= 5.46087121D-01
 Quartic linear search produced a step of -0.19193.
 Iteration  1 RMS(Cart)=  0.00134285 RMS(Int)=  0.00000000
 Iteration  2 RMS(Cart)=  0.00000000 RMS(Int)=  0.00000000
 ClnCor:  largest displacement from symmetrization is 4.44D-16 for atom     2.
 Variable       Old X    -DE/DX   Delta X   Delta X   Delta X     New X
                                 (Linear)    (Quad)   (Total)
    R1        2.65462   0.00105   0.00190   0.00000   0.00190   2.65652
         Item               Value     Threshold  Converged?
 Maximum Force            0.001049     0.000450     NO 
 RMS     Force            0.001049     0.000300     NO 
 Maximum Displacement     0.000950     0.001800     YES
 RMS     Displacement     0.001343     0.001200     NO 
 Predicted change in Energy=-1.007376D-06
 GradGradGradGradGradGradGradGradGradGradGradGradGradGradGradGradGradGrad

                          Input orientation:                          
 ---------------------------------------------------------------------
 Center     Atomic      Atomic             Coordinates (Angstroms)
 Number     Number       Type             X           Y           Z
 ---------------------------------------------------------------------
      1          9           0        0.000000    0.000000    0.002115
      2          9           0        0.000000    0.000000    1.407885
 ---------------------------------------------------------------------
 Stoichiometry    F2
 Framework group  D*H[C*(F.F)]
 Deg. of freedom     1
 Full point group                 D*H     NOp   8
 Largest Abelian subgroup         D2H     NOp   8
 Largest concise Abelian subgroup C2      NOp   2
                         Standard orientation:                         
 ---------------------------------------------------------------------
 Center     Atomic      Atomic             Coordinates (Angstroms)
 Number     Number       Type             X           Y           Z
 ---------------------------------------------------------------------
      1          9           0        0.000000    0.000000    0.702885
      2          9           0        0.000000    0.000000   -0.702885
 ---------------------------------------------------------------------
 Rotational constants (GHZ):      0.0000000     26.9216794     26.9216794
 Basis read from rwf:  (5D, 7F)
 There are     5 symmetry adapted cartesian basis functions of AG  symmetry.
 There are     0 symmetry adapted cartesian basis functions of B1G symmetry.
 There are     2 symmetry adapted cartesian basis functions of B2G symmetry.
 There are     2 symmetry adapted cartesian basis functions of B3G symmetry.
 There are     0 symmetry adapted cartesian basis functions of AU  symmetry.
 There are     5 symmetry adapted cartesian basis functions of B1U symmetry.
 There are     2 symmetry adapted cartesian basis functions of B2U symmetry.
 There are     2 symmetry adapted cartesian basis functions of B3U symmetry.
 There are     5 symmetry adapted basis functions of AG  symmetry.
 There are     0 symmetry adapted basis functions of B1G symmetry.
 There are     2 symmetry adapted basis functions of B2G symmetry.
 There are     2 symmetry adapted basis functions of B3G symmetry.
 There are     0 symmetry adapted basis functions of AU  symmetry.
 There are     5 symmetry adapted basis functions of B1U symmetry.
 There are     2 symmetry adapted basis functions of B2U symmetry.
 There are     2 symmetry adapted basis functions of B3U symmetry.
    18 basis functions,    44 primitive gaussians,    18 cartesian basis functions
     9 alpha electrons        9 beta electrons
       nuclear repulsion energy        30.4910358907 Hartrees.
 NAtoms=    2 NActive=    2 NUniq=    1 SFac= 4.00D+00 NAtFMM=   60 NAOKFM=F Big=F
 Integral buffers will be    131072 words long.
 Raffenetti 1 integral format.
 Two-electron integral symmetry is turned on.
 One-electron integrals computed using PRISM.
 NBasis=    18 RedAO= T EigKep=  1.07D-01  NBF=     5     0     2     2     0     5     2     2
 NBsUse=    18 1.00D-06 EigRej= -1.00D+00 NBFU=     5     0     2     2     0     5     2     2
 Initial guess from the checkpoint file:  "/home/chongee/BasisSet/Gau-917.chk"
 B after Tr=     0.000000    0.000000    0.000000
         Rot=    1.000000    0.000000    0.000000    0.000000 Ang=   0.00 deg.
 Initial guess orbital symmetries:
       Occupied  (SGG) (SGU) (SGG) (SGU) (PIU) (PIU) (SGG) (PIG)
                 (PIG)
       Virtual   (SGG) (SGG) (PIG) (PIG) (SGU) (SGU) (SGU) (PIU)
                 (PIU)
 Keep R1 ints in memory in symmetry-blocked form, NReq=844325.
 Requested convergence on RMS density matrix=1.00D-08 within 128 cycles.
 Requested convergence on MAX density matrix=1.00D-06.
 Requested convergence on             energy=1.00D-06.
 No special actions if energy rises.
 SCF Done:  E(RHF) =  -198.407169982     A.U. after    6 cycles
            NFock=  6  Conv=0.38D-08     -V/T= 2.0008
 Calling FoFJK, ICntrl=      2127 FMM=F ISym2X=1 I1Cent= 0 IOpClX= 0 NMat=1 NMatS=1 NMatT=0.
 ***** Axes restored to original set *****
 -------------------------------------------------------------------
 Center     Atomic                   Forces (Hartrees/Bohr)
 Number     Number              X              Y              Z
 -------------------------------------------------------------------
      1        9           0.000000000    0.000000000    0.000000006
      2        9           0.000000000    0.000000000   -0.000000006
 -------------------------------------------------------------------
 Cartesian Forces:  Max     0.000000006 RMS     0.000000003

 GradGradGradGradGradGradGradGradGradGradGradGradGradGradGradGradGradGrad
 Berny optimization.
 Using GEDIIS/GDIIS optimizer.
 Internal  Forces:  Max     0.000000006 RMS     0.000000006
 Search for a local minimum.
 Step number   3 out of a maximum of   20
 All quantities printed in internal units (Hartrees-Bohrs-Radians)
 Mixed Optimization -- En-DIIS/RFO-DIIS
 Update second derivatives using D2CorX and points    2    3
 DE= -9.95D-07 DEPred=-1.01D-06 R= 9.88D-01
 TightC=F SS=  1.41D+00  RLast= 1.90D-03 DXNew= 5.0454D-01 5.6972D-03
 Trust test= 9.88D-01 RLast= 1.90D-03 DXMaxT set to 3.00D-01
 The second derivative matrix:
                          R1
           R1           0.55237
 ITU=  1  1
 Use linear search instead of GDIIS.
     Eigenvalues ---    0.55237
 RFO step:  Lambda= 0.00000000D+00 EMin= 5.52369236D-01
 Quartic linear search produced a step of -0.00001.
 Iteration  1 RMS(Cart)=  0.00000001 RMS(Int)=  0.00000000
 ClnCor:  largest displacement from symmetrization is 3.25D-25 for atom     2.
 Variable       Old X    -DE/DX   Delta X   Delta X   Delta X     New X
                                 (Linear)    (Quad)   (Total)
    R1        2.65652   0.00000   0.00000   0.00000   0.00000   2.65652
         Item               Value     Threshold  Converged?
 Maximum Force            0.000000     0.000450     YES
 RMS     Force            0.000000     0.000300     YES
 Maximum Displacement     0.000000     0.001800     YES
 RMS     Displacement     0.000000     0.001200     YES
 Predicted change in Energy=-3.104436D-17
 Optimization completed.
    -- Stationary point found.
                           ----------------------------
                           !   Optimized Parameters   !
                           ! (Angstroms and Degrees)  !
 --------------------------                            --------------------------
 ! Name  Definition              Value          Derivative Info.                !
 --------------------------------------------------------------------------------
 ! R1    R(1,2)                  1.4058         -DE/DX =    0.0                 !
 --------------------------------------------------------------------------------
 GradGradGradGradGradGradGradGradGradGradGradGradGradGradGradGradGradGrad

                          Input orientation:                          
 ---------------------------------------------------------------------
 Center     Atomic      Atomic             Coordinates (Angstroms)
 Number     Number       Type             X           Y           Z
 ---------------------------------------------------------------------
      1          9           0        0.000000    0.000000    0.002115
      2          9           0        0.000000    0.000000    1.407885
 ---------------------------------------------------------------------
 Stoichiometry    F2
 Framework group  D*H[C*(F.F)]
 Deg. of freedom     1
 Full point group                 D*H     NOp   8
 Largest Abelian subgroup         D2H     NOp   8
 Largest concise Abelian subgroup C2      NOp   2
                         Standard orientation:                         
 ---------------------------------------------------------------------
 Center     Atomic      Atomic             Coordinates (Angstroms)
 Number     Number       Type             X           Y           Z
 ---------------------------------------------------------------------
      1          9           0        0.000000    0.000000    0.702885
      2          9           0        0.000000    0.000000   -0.702885
 ---------------------------------------------------------------------
 Rotational constants (GHZ):      0.0000000     26.9216794     26.9216794

 **********************************************************************

            Population analysis using the SCF density.

 **********************************************************************

 Orbital symmetries:
       Occupied  (SGG) (SGU) (SGG) (SGU) (PIU) (PIU) (SGG) (PIG)
                 (PIG)
       Virtual   (SGU) (SGG) (SGU) (PIU) (PIU) (PIG) (PIG) (SGG)
                 (SGU)
 The electronic state is 1-SGG.
 Alpha  occ. eigenvalues --  -26.41941 -26.41927  -1.77611  -1.49537  -0.79997
 Alpha  occ. eigenvalues --   -0.79997  -0.73047  -0.65233  -0.65233
 Alpha virt. eigenvalues --    0.11144   0.56434   0.64679   1.55540   1.55540
 Alpha virt. eigenvalues --    1.78626   1.78626   1.97663   2.06105
          Condensed to atoms (all electrons):
               1          2
     1  F    8.925146   0.074854
     2  F    0.074854   8.925146
 Mulliken charges:
               1
     1  F    0.000000
     2  F    0.000000
 Sum of Mulliken charges =   0.00000
 Mulliken charges with hydrogens summed into heavy atoms:
               1
     1  F    0.000000
     2  F    0.000000
 Electronic spatial extent (au):  <R**2>=             52.1785
 Charge=              0.0000 electrons
 Dipole moment (field-independent basis, Debye):
    X=              0.0000    Y=              0.0000    Z=              0.0000  Tot=              0.0000
 Quadrupole moment (field-independent basis, Debye-Ang):
   XX=             -9.2361   YY=             -9.2361   ZZ=             -8.9956
   XY=              0.0000   XZ=              0.0000   YZ=              0.0000
 Traceless Quadrupole moment (field-independent basis, Debye-Ang):
   XX=             -0.0802   YY=             -0.0802   ZZ=              0.1603
   XY=              0.0000   XZ=              0.0000   YZ=              0.0000
 Octapole moment (field-independent basis, Debye-Ang**2):
  XXX=              0.0000  YYY=              0.0000  ZZZ=              0.0000  XYY=              0.0000
  XXY=              0.0000  XXZ=              0.0000  XZZ=              0.0000  YZZ=              0.0000
  YYZ=              0.0000  XYZ=              0.0000
 Hexadecapole moment (field-independent basis, Debye-Ang**3):
 XXXX=             -4.5418 YYYY=             -4.5418 ZZZZ=            -28.6230 XXXY=              0.0000
 XXXZ=              0.0000 YYYX=              0.0000 YYYZ=              0.0000 ZZZX=              0.0000
 ZZZY=              0.0000 XXYY=             -1.5139 XXZZ=             -6.1163 YYZZ=             -6.1163
 XXYZ=              0.0000 YYXZ=              0.0000 ZZXY=              0.0000
 N-N= 3.049103589071D+01 E-N=-5.365459795552D+02  KE= 1.982400188276D+02
 Symmetry AG   KE= 8.791722688471D+01
 Symmetry B1G  KE= 0.000000000000D+00
 Symmetry B2G  KE= 7.300998549784D+00
 Symmetry B3G  KE= 7.300998549784D+00
 Symmetry AU   KE= 0.000000000000D+00
 Symmetry B1U  KE= 8.338768043515D+01
 Symmetry B2U  KE= 6.166557204076D+00
 Symmetry B3U  KE= 6.166557204076D+00
 1\1\GINC-CHONGEE-INSPIRON-3521\FOpt\RHF\Gen\F2\CHONGEE\17-Nov-2016\0\\
 # opt hf/gen\\F2\\0,1\F,0.,0.,0.0021154859\F,0.,0.,1.4078845141\\Versi
 on=EM64L-G09RevD.01\State=1-SGG\HF=-198.40717\RMSD=3.796e-09\RMSF=3.38
 1e-09\Dipole=0.,0.,0.\Quadrupole=-0.0595937,-0.0595937,0.1191873,0.,0.
 ,0.\PG=D*H [C*(F1.F1)]\\@


 LET US PLACE AT THE END OF EVERY CHAPTER.....THE
 TWO LETTERS USED BY THE ROMAN JUDGES WHEN THEY DID
 NOT UNDERSTAND A PLEADING.
 N. L. -NON LIQUET- IT IS NOT CLEAR.
                                              -- VOLTAIRE
 Job cpu time:       0 days  0 hours  0 minutes  1.7 seconds.
 File lengths (MBytes):  RWF=      5 Int=      0 D2E=      0 Chk=      1 Scr=      1
 Normal termination of Gaussian 09 at Thu Nov 17 21:12:14 2016.
