 Entering Gaussian System, Link 0=g09
 Initial command:
 /global/software/gaussian/g09.e01/l1.exe "//home/aalrawas/scratch/Gau-4666.inp" -scrdir="//home/aalrawas/scratch/"
 Entering Link 1 = /global/software/gaussian/g09.e01/l1.exe PID=      4667.
  
 Copyright (c) 1988,1990,1992,1993,1995,1998,2003,2009,2015,
            Gaussian, Inc.  All Rights Reserved.
  
 This is part of the Gaussian(R) 09 program.  It is based on
 the Gaussian(R) 03 system (copyright 2003, Gaussian, Inc.),
 the Gaussian(R) 98 system (copyright 1998, Gaussian, Inc.),
 the Gaussian(R) 94 system (copyright 1995, Gaussian, Inc.),
 the Gaussian 92(TM) system (copyright 1992, Gaussian, Inc.),
 the Gaussian 90(TM) system (copyright 1990, Gaussian, Inc.),
 the Gaussian 88(TM) system (copyright 1988, Gaussian, Inc.),
 the Gaussian 86(TM) system (copyright 1986, Carnegie Mellon
 University), and the Gaussian 82(TM) system (copyright 1983,
 Carnegie Mellon University). Gaussian is a federally registered
 trademark of Gaussian, Inc.
  
 This software contains proprietary and confidential information,
 including trade secrets, belonging to Gaussian, Inc.
  
 This software is provided under written license and may be
 used, copied, transmitted, or stored only in accord with that
 written license.
  
 The following legend is applicable only to US Government
 contracts under FAR:
  
                    RESTRICTED RIGHTS LEGEND
  
 Use, reproduction and disclosure by the US Government is
 subject to restrictions as set forth in subparagraphs (a)
 and (c) of the Commercial Computer Software - Restricted
 Rights clause in FAR 52.227-19.
  
 Gaussian, Inc.
 340 Quinnipiac St., Bldg. 40, Wallingford CT 06492
  
  
 ---------------------------------------------------------------
 Warning -- This program may not be used in any manner that
 competes with the business of Gaussian, Inc. or will provide
 assistance to any competitor of Gaussian, Inc.  The licensee
 of this program is prohibited from giving any competitor of
 Gaussian, Inc. access to this program.  By using this program,
 the user acknowledges that Gaussian, Inc. is engaged in the
 business of creating and licensing software in the field of
 computational chemistry and represents and warrants to the
 licensee that it is not a competitor of Gaussian, Inc. and that
 it will not use this program in any manner prohibited above.
 ---------------------------------------------------------------
  

 Cite this work as:
 Gaussian 09, Revision E.01,
 M. J. Frisch, G. W. Trucks, H. B. Schlegel, G. E. Scuseria, 
 M. A. Robb, J. R. Cheeseman, G. Scalmani, V. Barone, B. Mennucci, 
 G. A. Petersson, H. Nakatsuji, M. Caricato, X. Li, H. P. Hratchian, 
 A. F. Izmaylov, J. Bloino, G. Zheng, J. L. Sonnenberg, M. Hada, 
 M. Ehara, K. Toyota, R. Fukuda, J. Hasegawa, M. Ishida, T. Nakajima, 
 Y. Honda, O. Kitao, H. Nakai, T. Vreven, J. A. Montgomery, Jr., 
 J. E. Peralta, F. Ogliaro, M. Bearpark, J. J. Heyd, E. Brothers, 
 K. N. Kudin, V. N. Staroverov, T. Keith, R. Kobayashi, J. Normand, 
 K. Raghavachari, A. Rendell, J. C. Burant, S. S. Iyengar, J. Tomasi, 
 M. Cossi, N. Rega, J. M. Millam, M. Klene, J. E. Knox, J. B. Cross, 
 V. Bakken, C. Adamo, J. Jaramillo, R. Gomperts, R. E. Stratmann, 
 O. Yazyev, A. J. Austin, R. Cammi, C. Pomelli, J. W. Ochterski, 
 R. L. Martin, K. Morokuma, V. G. Zakrzewski, G. A. Voth, 
 P. Salvador, J. J. Dannenberg, S. Dapprich, A. D. Daniels, 
 O. Farkas, J. B. Foresman, J. V. Ortiz, J. Cioslowski, 
 and D. J. Fox, Gaussian, Inc., Wallingford CT, 2013.
 
 ******************************************
 Gaussian 09:  ES64L-G09RevE.01 30-Nov-2015
                23-Nov-2016 
 ******************************************
 -------------------
 # opt freq hf/6-31g
 -------------------
 1/18=20,19=15,38=1/1,3;
 2/9=110,12=2,17=6,18=5,40=1/2;
 3/5=1,6=6,11=9,16=1,25=1,30=1,71=1/1,2,3;
 4//1;
 5/5=2,38=5/2;
 6/7=2,8=2,9=2,10=2,28=1/1;
 7//1,2,3,16;
 1/18=20,19=15/3(2);
 2/9=110/2;
 99//99;
 2/9=110/2;
 3/5=1,6=6,11=9,16=1,25=1,30=1,71=1/1,2,3;
 4/5=5,16=3,69=1/1;
 5/5=2,38=5/2;
 7//1,2,3,16;
 1/18=20,19=15/3(-5);
 2/9=110/2;
 6/7=2,8=2,9=2,10=2,19=2,28=1/1;
 99/9=1/99;
 --------------------
 H2 density at nuclei
 --------------------
 Symbolic Z-matrix:
 Charge =  0 Multiplicity = 1
 H                     0.        0.        0.37 
 H                     0.        0.       -0.37 
 

 GradGradGradGradGradGradGradGradGradGradGradGradGradGradGradGradGradGrad
 Berny optimization.
 Initialization pass.
                           ----------------------------
                           !    Initial Parameters    !
                           ! (Angstroms and Degrees)  !
 --------------------------                            --------------------------
 ! Name  Definition              Value          Derivative Info.                !
 --------------------------------------------------------------------------------
 ! R1    R(1,2)                  0.74           estimate D2E/DX2                !
 --------------------------------------------------------------------------------
 Trust Radius=3.00D-01 FncErr=1.00D-07 GrdErr=1.00D-07
 Number of steps in this run=     20 maximum allowed number of steps=    100.
 GradGradGradGradGradGradGradGradGradGradGradGradGradGradGradGradGradGrad

                          Input orientation:                          
 ---------------------------------------------------------------------
 Center     Atomic      Atomic             Coordinates (Angstroms)
 Number     Number       Type             X           Y           Z
 ---------------------------------------------------------------------
      1          1           0        0.000000    0.000000    0.370000
      2          1           0        0.000000    0.000000   -0.370000
 ---------------------------------------------------------------------
 Stoichiometry    H2
 Framework group  D*H[C*(H.H)]
 Deg. of freedom     1
 Full point group                 D*H     NOp   8
 Largest Abelian subgroup         D2H     NOp   8
 Largest concise Abelian subgroup C2      NOp   2
                         Standard orientation:                         
 ---------------------------------------------------------------------
 Center     Atomic      Atomic             Coordinates (Angstroms)
 Number     Number       Type             X           Y           Z
 ---------------------------------------------------------------------
      1          1           0        0.000000    0.000000    0.370000
      2          1           0        0.000000    0.000000   -0.370000
 ---------------------------------------------------------------------
 Rotational constants (GHZ):      0.0000000   1831.4649389   1831.4649389
 Standard basis: 6-31G (6D, 7F)
 There are     2 symmetry adapted cartesian basis functions of AG  symmetry.
 There are     0 symmetry adapted cartesian basis functions of B1G symmetry.
 There are     0 symmetry adapted cartesian basis functions of B2G symmetry.
 There are     0 symmetry adapted cartesian basis functions of B3G symmetry.
 There are     0 symmetry adapted cartesian basis functions of AU  symmetry.
 There are     2 symmetry adapted cartesian basis functions of B1U symmetry.
 There are     0 symmetry adapted cartesian basis functions of B2U symmetry.
 There are     0 symmetry adapted cartesian basis functions of B3U symmetry.
 There are     2 symmetry adapted basis functions of AG  symmetry.
 There are     0 symmetry adapted basis functions of B1G symmetry.
 There are     0 symmetry adapted basis functions of B2G symmetry.
 There are     0 symmetry adapted basis functions of B3G symmetry.
 There are     0 symmetry adapted basis functions of AU  symmetry.
 There are     2 symmetry adapted basis functions of B1U symmetry.
 There are     0 symmetry adapted basis functions of B2U symmetry.
 There are     0 symmetry adapted basis functions of B3U symmetry.
     4 basis functions,     8 primitive gaussians,     4 cartesian basis functions
     1 alpha electrons        1 beta electrons
       nuclear repulsion energy         0.7151043359 Hartrees.
 NAtoms=    2 NActive=    2 NUniq=    1 SFac= 4.00D+00 NAtFMM=   60 NAOKFM=F Big=F
 Integral buffers will be    131072 words long.
 Raffenetti 1 integral format.
 Two-electron integral symmetry is turned on.
 One-electron integrals computed using PRISM.
 NBasis=     4 RedAO= T EigKep=  1.36D-01  NBF=     2     0     0     0     0     2     0     0
 NBsUse=     4 1.00D-06 EigRej= -1.00D+00 NBFU=     2     0     0     0     0     2     0     0
 ExpMin= 1.61D-01 ExpMax= 1.87D+01 ExpMxC= 1.87D+01 IAcc=1 IRadAn=         1 AccDes= 0.00D+00
 Harris functional with IExCor=  205 and IRadAn=       1 diagonalized for initial guess.
 HarFok:  IExCor=  205 AccDes= 0.00D+00 IRadAn=         1 IDoV= 1 UseB2=F ITyADJ=14
 ICtDFT=  3500011 ScaDFX=  1.000000  1.000000  1.000000  1.000000
 FoFCou: FMM=F IPFlag=           0 FMFlag=      100000 FMFlg1=           0
         NFxFlg=           0 DoJE=T BraDBF=F KetDBF=T FulRan=T
         wScrn=  0.000000 ICntrl=     500 IOpCl=  0 I1Cent=   200000004 NGrid=           0
         NMat0=    1 NMatS0=      1 NMatT0=    0 NMatD0=    1 NMtDS0=    0 NMtDT0=    0
 Petite list used in FoFCou.
 Initial guess orbital symmetries:
       Occupied  (SGG)
       Virtual   (SGU) (SGG) (SGU)
 The electronic state of the initial guess is 1-SGG.
 Keep R1 ints in memory in symmetry-blocked form, NReq=821698.
 Requested convergence on RMS density matrix=1.00D-08 within 128 cycles.
 Requested convergence on MAX density matrix=1.00D-06.
 Requested convergence on             energy=1.00D-06.
 No special actions if energy rises.
 SCF Done:  E(RHF) =  -1.12675531341     A.U. after    4 cycles
            NFock=  4  Conv=0.92D-09     -V/T= 2.0014

 **********************************************************************

            Population analysis using the SCF density.

 **********************************************************************

 Orbital symmetries:
       Occupied  (SGG)
       Virtual   (SGU) (SGG) (SGU)
 The electronic state is 1-SGG.
 Alpha  occ. eigenvalues --   -0.59582
 Alpha virt. eigenvalues --    0.23847   0.77472   1.40441
          Condensed to atoms (all electrons):
               1          2
     1  H    0.595521   0.404479
     2  H    0.404479   0.595521
 Mulliken charges:
               1
     1  H    0.000000
     2  H    0.000000
 Sum of Mulliken charges =   0.00000
 Mulliken charges with hydrogens summed into heavy atoms:
               1
 Electronic spatial extent (au):  <R**2>=              5.2192
 Charge=              0.0000 electrons
 Dipole moment (field-independent basis, Debye):
    X=              0.0000    Y=              0.0000    Z=              0.0000  Tot=              0.0000
 Quadrupole moment (field-independent basis, Debye-Ang):
   XX=             -2.0430   YY=             -2.0430   ZZ=             -1.6188
   XY=              0.0000   XZ=             -0.0000   YZ=              0.0000
 Traceless Quadrupole moment (field-independent basis, Debye-Ang):
   XX=             -0.1414   YY=             -0.1414   ZZ=              0.2828
   XY=              0.0000   XZ=             -0.0000   YZ=              0.0000
 Octapole moment (field-independent basis, Debye-Ang**2):
  XXX=             -0.0000  YYY=              0.0000  ZZZ=             -0.0000  XYY=             -0.0000
  XXY=              0.0000  XXZ=             -0.0000  XZZ=             -0.0000  YZZ=              0.0000
  YYZ=             -0.0000  XYZ=              0.0000
 Hexadecapole moment (field-independent basis, Debye-Ang**3):
 XXXX=             -1.8939 YYYY=             -1.8939 ZZZZ=             -2.8597 XXXY=              0.0000
 XXXZ=              0.0000 YYYX=              0.0000 YYYZ=              0.0000 ZZZX=              0.0000
 ZZZY=              0.0000 XXYY=             -0.6313 XXZZ=             -0.8033 YYZZ=             -0.8033
 XXYZ=              0.0000 YYXZ=              0.0000 ZZXY=              0.0000
 N-N= 7.151043359324D-01 E-N=-3.617320203036D+00  KE= 1.125235524796D+00
 Symmetry AG   KE= 1.125235524796D+00
 Symmetry B1G  KE= 0.000000000000D+00
 Symmetry B2G  KE= 0.000000000000D+00
 Symmetry B3G  KE= 0.000000000000D+00
 Symmetry AU   KE= 0.000000000000D+00
 Symmetry B1U  KE=-3.475671243893D-33
 Symmetry B2U  KE= 0.000000000000D+00
 Symmetry B3U  KE= 0.000000000000D+00
 Calling FoFJK, ICntrl=      2127 FMM=F ISym2X=1 I1Cent= 0 IOpClX= 0 NMat=1 NMatS=1 NMatT=0.
 ***** Axes restored to original set *****
 -------------------------------------------------------------------
 Center     Atomic                   Forces (Hartrees/Bohr)
 Number     Number              X              Y              Z
 -------------------------------------------------------------------
      1        1           0.000000000   -0.000000000   -0.007561371
      2        1          -0.000000000    0.000000000    0.007561371
 -------------------------------------------------------------------
 Cartesian Forces:  Max     0.007561371 RMS     0.004365560

 GradGradGradGradGradGradGradGradGradGradGradGradGradGradGradGradGradGrad
 Berny optimization.
 FormGI is forming the generalized inverse of G from B-inverse, IUseBI=4.
 Internal  Forces:  Max     0.007561371 RMS     0.007561371
 Search for a local minimum.
 Step number   1 out of a maximum of   20
 All quantities printed in internal units (Hartrees-Bohrs-Radians)
 Mixed Optimization -- RFO/linear search
 Second derivative matrix not updated -- first step.
 The second derivative matrix:
                          R1
           R1           0.39139
 ITU=  0
     Eigenvalues ---    0.39139
 RFO step:  Lambda=-1.46024155D-04 EMin= 3.91394209D-01
 Linear search not attempted -- first point.
 Iteration  1 RMS(Cart)=  0.01365555 RMS(Int)=  0.00000000
 Iteration  2 RMS(Cart)=  0.00000000 RMS(Int)=  0.00000000
 ClnCor:  largest displacement from symmetrization is 5.91D-19 for atom     2.
 Variable       Old X    -DE/DX   Delta X   Delta X   Delta X     New X
                                 (Linear)    (Quad)   (Total)
    R1        1.39840  -0.00756   0.00000  -0.01931  -0.01931   1.37909
         Item               Value     Threshold  Converged?
 Maximum Force            0.007561     0.000450     NO 
 RMS     Force            0.007561     0.000300     NO 
 Maximum Displacement     0.009656     0.001800     NO 
 RMS     Displacement     0.013656     0.001200     NO 
 Predicted change in Energy=-7.303931D-05
 GradGradGradGradGradGradGradGradGradGradGradGradGradGradGradGradGradGrad

                          Input orientation:                          
 ---------------------------------------------------------------------
 Center     Atomic      Atomic             Coordinates (Angstroms)
 Number     Number       Type             X           Y           Z
 ---------------------------------------------------------------------
      1          1           0        0.000000    0.000000    0.364890
      2          1           0        0.000000    0.000000   -0.364890
 ---------------------------------------------------------------------
 Stoichiometry    H2
 Framework group  D*H[C*(H.H)]
 Deg. of freedom     1
 Full point group                 D*H     NOp   8
 Largest Abelian subgroup         D2H     NOp   8
 Largest concise Abelian subgroup C2      NOp   2
                         Standard orientation:                         
 ---------------------------------------------------------------------
 Center     Atomic      Atomic             Coordinates (Angstroms)
 Number     Number       Type             X           Y           Z
 ---------------------------------------------------------------------
      1          1           0        0.000000    0.000000    0.364890
      2          1           0        0.000000    0.000000   -0.364890
 ---------------------------------------------------------------------
 Rotational constants (GHZ):      0.0000000   1883.1174898   1883.1174898
 Standard basis: 6-31G (6D, 7F)
 There are     2 symmetry adapted cartesian basis functions of AG  symmetry.
 There are     0 symmetry adapted cartesian basis functions of B1G symmetry.
 There are     0 symmetry adapted cartesian basis functions of B2G symmetry.
 There are     0 symmetry adapted cartesian basis functions of B3G symmetry.
 There are     0 symmetry adapted cartesian basis functions of AU  symmetry.
 There are     2 symmetry adapted cartesian basis functions of B1U symmetry.
 There are     0 symmetry adapted cartesian basis functions of B2U symmetry.
 There are     0 symmetry adapted cartesian basis functions of B3U symmetry.
 There are     2 symmetry adapted basis functions of AG  symmetry.
 There are     0 symmetry adapted basis functions of B1G symmetry.
 There are     0 symmetry adapted basis functions of B2G symmetry.
 There are     0 symmetry adapted basis functions of B3G symmetry.
 There are     0 symmetry adapted basis functions of AU  symmetry.
 There are     2 symmetry adapted basis functions of B1U symmetry.
 There are     0 symmetry adapted basis functions of B2U symmetry.
 There are     0 symmetry adapted basis functions of B3U symmetry.
     4 basis functions,     8 primitive gaussians,     4 cartesian basis functions
     1 alpha electrons        1 beta electrons
       nuclear repulsion energy         0.7251182159 Hartrees.
 NAtoms=    2 NActive=    2 NUniq=    1 SFac= 4.00D+00 NAtFMM=   60 NAOKFM=F Big=F
 Integral buffers will be    131072 words long.
 Raffenetti 1 integral format.
 Two-electron integral symmetry is turned on.
 One-electron integrals computed using PRISM.
 NBasis=     4 RedAO= T EigKep=  1.33D-01  NBF=     2     0     0     0     0     2     0     0
 NBsUse=     4 1.00D-06 EigRej= -1.00D+00 NBFU=     2     0     0     0     0     2     0     0
 Initial guess from the checkpoint file:  "//home/aalrawas/scratch/Gau-4667.chk"
 B after Tr=    -0.000000    0.000000    0.000000
         Rot=    1.000000    0.000000    0.000000    0.000000 Ang=   0.00 deg.
 Initial guess orbital symmetries:
       Occupied  (SGG)
       Virtual   (SGG) (SGU) (SGU)
 Keep R1 ints in memory in symmetry-blocked form, NReq=821698.
 Requested convergence on RMS density matrix=1.00D-08 within 128 cycles.
 Requested convergence on MAX density matrix=1.00D-06.
 Requested convergence on             energy=1.00D-06.
 No special actions if energy rises.
 SCF Done:  E(RHF) =  -1.12682780182     A.U. after    4 cycles
            NFock=  4  Conv=0.18D-11     -V/T= 1.9924
 Calling FoFJK, ICntrl=      2127 FMM=F ISym2X=1 I1Cent= 0 IOpClX= 0 NMat=1 NMatS=1 NMatT=0.
 ***** Axes restored to original set *****
 -------------------------------------------------------------------
 Center     Atomic                   Forces (Hartrees/Bohr)
 Number     Number              X              Y              Z
 -------------------------------------------------------------------
      1        1           0.000000000   -0.000000000    0.000139424
      2        1          -0.000000000    0.000000000   -0.000139424
 -------------------------------------------------------------------
 Cartesian Forces:  Max     0.000139424 RMS     0.000080497

 GradGradGradGradGradGradGradGradGradGradGradGradGradGradGradGradGradGrad
 Berny optimization.
 Using GEDIIS/GDIIS optimizer.
 Internal  Forces:  Max     0.000139424 RMS     0.000139424
 Search for a local minimum.
 Step number   2 out of a maximum of   20
 All quantities printed in internal units (Hartrees-Bohrs-Radians)
 Mixed Optimization -- En-DIIS/RFO-DIIS
 Update second derivatives using D2CorX and points    1    2
 DE= -7.25D-05 DEPred=-7.30D-05 R= 9.92D-01
 TightC=F SS=  1.41D+00  RLast= 1.93D-02 DXNew= 5.0454D-01 5.7936D-02
 Trust test= 9.92D-01 RLast= 1.93D-02 DXMaxT set to 3.00D-01
 The second derivative matrix:
                          R1
           R1           0.39876
 ITU=  1  0
 Use linear search instead of GDIIS.
     Eigenvalues ---    0.39876
 RFO step:  Lambda= 0.00000000D+00 EMin= 3.98759862D-01
 Quartic linear search produced a step of -0.01753.
 Iteration  1 RMS(Cart)=  0.00023939 RMS(Int)=  0.00000000
 Iteration  2 RMS(Cart)=  0.00000000 RMS(Int)=  0.00000000
 ClnCor:  largest displacement from symmetrization is 1.04D-20 for atom     1.
 Variable       Old X    -DE/DX   Delta X   Delta X   Delta X     New X
                                 (Linear)    (Quad)   (Total)
    R1        1.37909   0.00014   0.00034   0.00000   0.00034   1.37942
         Item               Value     Threshold  Converged?
 Maximum Force            0.000139     0.000450     YES
 RMS     Force            0.000139     0.000300     YES
 Maximum Displacement     0.000169     0.001800     YES
 RMS     Displacement     0.000239     0.001200     YES
 Predicted change in Energy=-2.435000D-08
 Optimization completed.
    -- Stationary point found.
                           ----------------------------
                           !   Optimized Parameters   !
                           ! (Angstroms and Degrees)  !
 --------------------------                            --------------------------
 ! Name  Definition              Value          Derivative Info.                !
 --------------------------------------------------------------------------------
 ! R1    R(1,2)                  0.7298         -DE/DX =    0.0001              !
 --------------------------------------------------------------------------------
 GradGradGradGradGradGradGradGradGradGradGradGradGradGradGradGradGradGrad

                          Input orientation:                          
 ---------------------------------------------------------------------
 Center     Atomic      Atomic             Coordinates (Angstroms)
 Number     Number       Type             X           Y           Z
 ---------------------------------------------------------------------
      1          1           0        0.000000    0.000000    0.364890
      2          1           0        0.000000    0.000000   -0.364890
 ---------------------------------------------------------------------
 Stoichiometry    H2
 Framework group  D*H[C*(H.H)]
 Deg. of freedom     1
 Full point group                 D*H     NOp   8
 Largest Abelian subgroup         D2H     NOp   8
 Largest concise Abelian subgroup C2      NOp   2
                         Standard orientation:                         
 ---------------------------------------------------------------------
 Center     Atomic      Atomic             Coordinates (Angstroms)
 Number     Number       Type             X           Y           Z
 ---------------------------------------------------------------------
      1          1           0        0.000000    0.000000    0.364890
      2          1           0        0.000000    0.000000   -0.364890
 ---------------------------------------------------------------------
 Rotational constants (GHZ):      0.0000000   1883.1174898   1883.1174898

 **********************************************************************

            Population analysis using the SCF density.

 **********************************************************************

 Orbital symmetries:
       Occupied  (SGG)
       Virtual   (SGU) (SGG) (SGU)
 The electronic state is 1-SGG.
 Alpha  occ. eigenvalues --   -0.59894
 Alpha virt. eigenvalues --    0.24120   0.76981   1.41811
          Condensed to atoms (all electrons):
               1          2
     1  H    0.593896   0.406104
     2  H    0.406104   0.593896
 Mulliken charges:
               1
     1  H    0.000000
     2  H    0.000000
 Sum of Mulliken charges =   0.00000
 Mulliken charges with hydrogens summed into heavy atoms:
               1
 Electronic spatial extent (au):  <R**2>=              5.1647
 Charge=             -0.0000 electrons
 Dipole moment (field-independent basis, Debye):
    X=             -0.0000    Y=              0.0000    Z=              0.0000  Tot=              0.0000
 Quadrupole moment (field-independent basis, Debye-Ang):
   XX=             -2.0272   YY=             -2.0272   ZZ=             -1.6133
   XY=              0.0000   XZ=             -0.0000   YZ=              0.0000
 Traceless Quadrupole moment (field-independent basis, Debye-Ang):
   XX=             -0.1380   YY=             -0.1380   ZZ=              0.2760
   XY=              0.0000   XZ=             -0.0000   YZ=              0.0000
 Octapole moment (field-independent basis, Debye-Ang**2):
  XXX=             -0.0000  YYY=              0.0000  ZZZ=              0.0000  XYY=             -0.0000
  XXY=              0.0000  XXZ=              0.0000  XZZ=             -0.0000  YZZ=              0.0000
  YYZ=              0.0000  XYZ=              0.0000
 Hexadecapole moment (field-independent basis, Debye-Ang**3):
 XXXX=             -1.8697 YYYY=             -1.8697 ZZZZ=             -2.8017 XXXY=              0.0000
 XXXZ=              0.0000 YYYX=              0.0000 YYYZ=              0.0000 ZZZX=              0.0000
 ZZZY=              0.0000 XXYY=             -0.6232 XXZZ=             -0.7890 YYZZ=             -0.7890
 XXYZ=              0.0000 YYXZ=              0.0000 ZZXY=              0.0000
 N-N= 7.251182158769D-01 E-N=-3.641514584017D+00  KE= 1.135500865741D+00
 Symmetry AG   KE= 1.135500865741D+00
 Symmetry B1G  KE= 0.000000000000D+00
 Symmetry B2G  KE= 0.000000000000D+00
 Symmetry B3G  KE= 0.000000000000D+00
 Symmetry AU   KE= 0.000000000000D+00
 Symmetry B1U  KE= 7.576202893533D-33
 Symmetry B2U  KE= 0.000000000000D+00
 Symmetry B3U  KE= 0.000000000000D+00
 1\1\GINC-BISON\FOpt\RHF\6-31G\H2\AALRAWAS\23-Nov-2016\0\\# opt freq hf
 /6-31g\\H2 density at nuclei\\0,1\H,0.,0.,0.3648903013\H,0.,0.,-0.3648
 903013\\Version=ES64L-G09RevE.01\State=1-SGG\HF=-1.1268278\RMSD=1.824e
 -12\RMSF=8.050e-05\Dipole=0.,0.,0.\Quadrupole=-0.1025833,-0.1025833,0.
 2051666,0.,0.,0.\PG=D*H [C*(H1.H1)]\\@


 I LOVE MANKIND - IT'S PEOPLE I CAN'T STAND.
     -- LINUS OF PEANUTS
 Job cpu time:       0 days  0 hours  0 minutes  1.4 seconds.
 File lengths (MBytes):  RWF=     72 Int=      0 D2E=      0 Chk=      2 Scr=      2
 Normal termination of Gaussian 09 at Wed Nov 23 18:59:19 2016.
 Link1:  Proceeding to internal job step number  2.
 --------------------------------------------------------------
 #N Geom=AllCheck Guess=TCheck SCRF=Check GenChk RHF/6-31G Freq
 --------------------------------------------------------------
 1/10=4,29=7,30=1,38=1,40=1/1,3;
 2/12=2,40=1/2;
 3/5=1,6=6,11=1,14=-4,16=1,25=1,30=1,70=2,71=2,116=1,140=1/1,2,3;
 4/5=101/1;
 5/5=2,38=6,98=1/2;
 8/6=4,10=90,11=11/1;
 10/13=10,15=4/2;
 11/6=3,8=1,9=11,15=111,16=1/1,2,10;
 10/6=1/2;
 6/7=2,8=2,9=2,10=2,18=1,28=1/1;
 7/8=1,10=1,25=1/1,2,3,16;
 1/10=4,30=1/3;
 99//99;
 Structure from the checkpoint file:  "//home/aalrawas/scratch/Gau-4667.chk"
 --------------------
 H2 density at nuclei
 --------------------
 Charge =  0 Multiplicity = 1
 Redundant internal coordinates found in file.
 H,0,0.,0.,0.3648903013
 H,0,0.,0.,-0.3648903013
 Recover connectivity data from disk.

 GradGradGradGradGradGradGradGradGradGradGradGradGradGradGradGradGradGrad
 Berny optimization.
 Initialization pass.
                           ----------------------------
                           !    Initial Parameters    !
                           ! (Angstroms and Degrees)  !
 --------------------------                            --------------------------
 ! Name  Definition              Value          Derivative Info.                !
 --------------------------------------------------------------------------------
 ! R1    R(1,2)                  0.7298         calculate D2E/DX2 analytically  !
 --------------------------------------------------------------------------------
 Trust Radius=3.00D-01 FncErr=1.00D-07 GrdErr=1.00D-07
 Number of steps in this run=      2 maximum allowed number of steps=      2.
 GradGradGradGradGradGradGradGradGradGradGradGradGradGradGradGradGradGrad

                          Input orientation:                          
 ---------------------------------------------------------------------
 Center     Atomic      Atomic             Coordinates (Angstroms)
 Number     Number       Type             X           Y           Z
 ---------------------------------------------------------------------
      1          1           0        0.000000    0.000000    0.364890
      2          1           0        0.000000    0.000000   -0.364890
 ---------------------------------------------------------------------
 Stoichiometry    H2
 Framework group  D*H[C*(H.H)]
 Deg. of freedom     1
 Full point group                 D*H     NOp   8
 Largest Abelian subgroup         D2H     NOp   8
 Largest concise Abelian subgroup C2      NOp   2
                         Standard orientation:                         
 ---------------------------------------------------------------------
 Center     Atomic      Atomic             Coordinates (Angstroms)
 Number     Number       Type             X           Y           Z
 ---------------------------------------------------------------------
      1          1           0        0.000000    0.000000    0.364890
      2          1           0        0.000000    0.000000   -0.364890
 ---------------------------------------------------------------------
 Rotational constants (GHZ):      0.0000000   1883.1174898   1883.1174898
 Standard basis: 6-31G (6D, 7F)
 There are     2 symmetry adapted cartesian basis functions of AG  symmetry.
 There are     0 symmetry adapted cartesian basis functions of B1G symmetry.
 There are     0 symmetry adapted cartesian basis functions of B2G symmetry.
 There are     0 symmetry adapted cartesian basis functions of B3G symmetry.
 There are     0 symmetry adapted cartesian basis functions of AU  symmetry.
 There are     2 symmetry adapted cartesian basis functions of B1U symmetry.
 There are     0 symmetry adapted cartesian basis functions of B2U symmetry.
 There are     0 symmetry adapted cartesian basis functions of B3U symmetry.
 There are     2 symmetry adapted basis functions of AG  symmetry.
 There are     0 symmetry adapted basis functions of B1G symmetry.
 There are     0 symmetry adapted basis functions of B2G symmetry.
 There are     0 symmetry adapted basis functions of B3G symmetry.
 There are     0 symmetry adapted basis functions of AU  symmetry.
 There are     2 symmetry adapted basis functions of B1U symmetry.
 There are     0 symmetry adapted basis functions of B2U symmetry.
 There are     0 symmetry adapted basis functions of B3U symmetry.
     4 basis functions,     8 primitive gaussians,     4 cartesian basis functions
     1 alpha electrons        1 beta electrons
       nuclear repulsion energy         0.7251182159 Hartrees.
 NAtoms=    2 NActive=    2 NUniq=    1 SFac= 4.00D+00 NAtFMM=   60 NAOKFM=F Big=F
 Integral buffers will be    131072 words long.
 Raffenetti 1 integral format.
 Two-electron integral symmetry is turned on.
 One-electron integrals computed using PRISM.
 NBasis=     4 RedAO= T EigKep=  1.33D-01  NBF=     2     0     0     0     0     2     0     0
 NBsUse=     4 1.00D-06 EigRej= -1.00D+00 NBFU=     2     0     0     0     0     2     0     0
 Initial guess from the checkpoint file:  "//home/aalrawas/scratch/Gau-4667.chk"
 B after Tr=    -0.000000    0.000000    0.000000
         Rot=    1.000000    0.000000    0.000000    0.000000 Ang=   0.00 deg.
 Initial guess orbital symmetries:
       Occupied  (SGG)
       Virtual   (SGU) (SGG) (SGU)
 Keep R1 ints in memory in symmetry-blocked form, NReq=821698.
 Requested convergence on RMS density matrix=1.00D-08 within 128 cycles.
 Requested convergence on MAX density matrix=1.00D-06.
 Requested convergence on             energy=1.00D-06.
 No special actions if energy rises.
 Skip diagonalization as Alpha Fock matrix is already diagonal.
 SCF Done:  E(RHF) =  -1.12682780182     A.U. after    1 cycles
            NFock=  1  Conv=0.00D+00     -V/T= 1.9924
 Range of M.O.s used for correlation:     1     4
 NBasis=     4 NAE=     1 NBE=     1 NFC=     0 NFV=     0
 NROrb=      4 NOA=     1 NOB=     1 NVA=     3 NVB=     3
          Differentiating once with respect to electric field.
                with respect to dipole field.
          Electric field/nuclear overlap derivatives assumed to be zero.
 Keep R1 ints in memory in symmetry-blocked form, NReq=802370.
          There are     3 degrees of freedom in the 1st order CPHF.  IDoFFX=0 NUNeed=     3.
      1 vectors produced by pass  0 Test12= 1.00D-16 3.33D-08 XBig12= 1.46D+00 1.20D+00.
 AX will form     1 AO Fock derivatives at one time.
      1 vectors produced by pass  1 Test12= 1.00D-16 3.33D-08 XBig12= 4.40D-03 6.61D-02.
 InvSVY:  IOpt=1 It=  1 EMax= 0.00D+00
 Solved reduced A of dimension     2 with     1 vectors.
 End of Minotr F.D. properties file   721 does not exist.
 End of Minotr F.D. properties file   722 does not exist.
 End of Minotr F.D. properties file   788 does not exist.
 Symmetrizing basis deriv contribution to polar:
 IMax=3 JMax=2 DiffMx= 0.00D+00
 G2DrvN: will do     3 centers at a time, making    1 passes.
 PxScal for G2LodP:  IOpCl= 0 ISclPx=1 IMOff=     1 NMtTot=     4 NTT=      10 ScalPx= 1.44D+00
 Calling FoFCou, ICntrl=  3107 FMM=F I1Cent=   0 AccDes= 0.00D+00.
 End of G2Drv F.D. properties file   721 does not exist.
 End of G2Drv F.D. properties file   722 does not exist.
 End of G2Drv F.D. properties file   788 does not exist.
          IDoAtm=11
          Differentiating once with respect to electric field.
                with respect to dipole field.
          Differentiating once with respect to nuclear coordinates.
 Keep R1 ints in memory in symmetry-blocked form, NReq=802419.
          There are     6 degrees of freedom in the 1st order CPHF.  IDoFFX=4 NUNeed=     6.
 Will reuse    3 saved solutions.
      1 vectors produced by pass  0 Test12= 5.00D-17 1.67D-08 XBig12= 1.76D-02 1.33D-01.
 AX will form     1 AO Fock derivatives at one time.
 InvSVY:  IOpt=1 It=  1 EMax= 0.00D+00
 Solved reduced A of dimension     1 with     1 vectors.
 Isotropic polarizability for W=    0.000000        2.12 Bohr**3.
 End of Minotr F.D. properties file   721 does not exist.
 End of Minotr F.D. properties file   722 does not exist.
 End of Minotr F.D. properties file   788 does not exist.

 **********************************************************************

            Population analysis using the SCF density.

 **********************************************************************

 Orbital symmetries:
       Occupied  (SGG)
       Virtual   (SGU) (SGG) (SGU)
 The electronic state is 1-SGG.
 Alpha  occ. eigenvalues --   -0.59894
 Alpha virt. eigenvalues --    0.24120   0.76981   1.41811
          Condensed to atoms (all electrons):
               1          2
     1  H    0.593896   0.406104
     2  H    0.406104   0.593896
 Mulliken charges:
               1
     1  H    0.000000
     2  H    0.000000
 Sum of Mulliken charges =   0.00000
 Mulliken charges with hydrogens summed into heavy atoms:
               1
 APT charges:
               1
     1  H   -0.000000
     2  H    0.000000
 Sum of APT charges =   0.00000
 APT charges with hydrogens summed into heavy atoms:
               1
 Electronic spatial extent (au):  <R**2>=              5.1647
 Charge=              0.0000 electrons
 Dipole moment (field-independent basis, Debye):
    X=              0.0000    Y=              0.0000    Z=             -0.0000  Tot=              0.0000
 Quadrupole moment (field-independent basis, Debye-Ang):
   XX=             -2.0272   YY=             -2.0272   ZZ=             -1.6133
   XY=              0.0000   XZ=             -0.0000   YZ=              0.0000
 Traceless Quadrupole moment (field-independent basis, Debye-Ang):
   XX=             -0.1380   YY=             -0.1380   ZZ=              0.2760
   XY=              0.0000   XZ=             -0.0000   YZ=              0.0000
 Octapole moment (field-independent basis, Debye-Ang**2):
  XXX=             -0.0000  YYY=              0.0000  ZZZ=              0.0000  XYY=             -0.0000
  XXY=              0.0000  XXZ=             -0.0000  XZZ=             -0.0000  YZZ=              0.0000
  YYZ=             -0.0000  XYZ=              0.0000
 Hexadecapole moment (field-independent basis, Debye-Ang**3):
 XXXX=             -1.8697 YYYY=             -1.8697 ZZZZ=             -2.8017 XXXY=              0.0000
 XXXZ=              0.0000 YYYX=              0.0000 YYYZ=              0.0000 ZZZX=              0.0000
 ZZZY=              0.0000 XXYY=             -0.6232 XXZZ=             -0.7890 YYZZ=             -0.7890
 XXYZ=              0.0000 YYXZ=              0.0000 ZZXY=              0.0000
 N-N= 7.251182158769D-01 E-N=-3.641514584017D+00  KE= 1.135500865741D+00
 Symmetry AG   KE= 1.135500865741D+00
 Symmetry B1G  KE= 0.000000000000D+00
 Symmetry B2G  KE= 0.000000000000D+00
 Symmetry B3G  KE= 0.000000000000D+00
 Symmetry AU   KE= 0.000000000000D+00
 Symmetry B1U  KE= 4.676868309303D-33
 Symmetry B2U  KE= 0.000000000000D+00
 Symmetry B3U  KE= 0.000000000000D+00
  Exact polarizability:   0.000   0.000   0.000  -0.000   0.000   6.350
 Approx polarizability:   0.000  -0.000  -0.000  -0.000  -0.000   4.946
 Calling FoFJK, ICntrl=    100127 FMM=F ISym2X=1 I1Cent= 0 IOpClX= 0 NMat=1 NMatS=1 NMatT=0.
 Full mass-weighted force constant matrix:
 Low frequencies ---  -72.8116  -72.8116   -0.0000    0.0000    0.0002 4648.8800
 Diagonal vibrational polarizability:
        0.0000000       0.0000000       0.0000000
 Diagonal vibrational hyperpolarizability:
        0.0000000       0.0000000      -0.0000000
 Harmonic frequencies (cm**-1), IR intensities (KM/Mole), Raman scattering
 activities (A**4/AMU), depolarization ratios for plane and unpolarized
 incident light, reduced masses (AMU), force constants (mDyne/A),
 and normal coordinates:
                      1
                     SGG
 Frequencies --   4648.8800
 Red. masses --      1.0078
 Frc consts  --     12.8331
 IR Inten    --      0.0000
 Raman Activ --     89.2992
 Depolar (P) --      0.3333
 Depolar (U) --      0.5000
  Atom  AN      X      Y      Z
     1   1    -0.00   0.00   0.71
     2   1     0.00   0.00  -0.71

 -------------------
 - Thermochemistry -
 -------------------
 Temperature   298.150 Kelvin.  Pressure   1.00000 Atm.
 Atom     1 has atomic number  1 and mass   1.00783
 Atom     2 has atomic number  1 and mass   1.00783
 Molecular mass:     2.01565 amu.
 Principal axes and moments of inertia in atomic units:
                           1         2         3
     Eigenvalues --     0.00000   0.95838   0.95838
           X           -0.00000   1.00000  -0.00000
           Y            0.00000   0.00000   1.00000
           Z            1.00000   0.00000  -0.00000
 This molecule is a prolate symmetric top.
 Rotational symmetry number  2.
 Rotational temperature (Kelvin)     90.37528
 Rotational constant (GHZ):        1883.117490
 Zero-point vibrational energy      27806.5 (Joules/Mol)
                                    6.64591 (Kcal/Mol)
 Vibrational temperatures:   6688.69
          (Kelvin)
 
 Zero-point correction=                           0.010591 (Hartree/Particle)
 Thermal correction to Energy=                    0.012951
 Thermal correction to Enthalpy=                  0.013896
 Thermal correction to Gibbs Free Energy=        -0.000863
 Sum of electronic and zero-point Energies=             -1.116237
 Sum of electronic and thermal Energies=                -1.113876
 Sum of electronic and thermal Enthalpies=              -1.112932
 Sum of electronic and thermal Free Energies=           -1.127691
 
                     E (Thermal)             CV                S
                      KCal/Mol        Cal/Mol-Kelvin    Cal/Mol-Kelvin
 Total                    8.127              4.968             31.062
 Electronic               0.000              0.000              0.000
 Translational            0.889              2.981             28.080
 Rotational               0.592              1.987              2.982
 Vibrational              6.646              0.000              0.000
                       Q            Log10(Q)             Ln(Q)
 Total Bot       0.249434D+01          0.396955          0.914022
 Total V=0       0.185538D+06          5.268433         12.131015
 Vib (Bot)       0.134438D-04         -4.871478        -11.216993
 Vib (V=0)       0.100000D+01          0.000000          0.000000
 Electronic      0.100000D+01          0.000000          0.000000
 Translational   0.112481D+06          5.051078         11.630537
 Rotational      0.164951D+01          0.217355          0.500479
 ***** Axes restored to original set *****
 -------------------------------------------------------------------
 Center     Atomic                   Forces (Hartrees/Bohr)
 Number     Number              X              Y              Z
 -------------------------------------------------------------------
      1        1           0.000000000   -0.000000000    0.000139424
      2        1          -0.000000000   -0.000000000   -0.000139424
 -------------------------------------------------------------------
 Cartesian Forces:  Max     0.000139424 RMS     0.000080497
 FormGI is forming the generalized inverse of G from B-inverse, IUseBI=4.

 GradGradGradGradGradGradGradGradGradGradGradGradGradGradGradGradGradGrad
 Berny optimization.
 Internal  Forces:  Max     0.000139424 RMS     0.000139424
 Search for a local minimum.
 Step number   1 out of a maximum of    2
 All quantities printed in internal units (Hartrees-Bohrs-Radians)
 Second derivative matrix not updated -- analytic derivatives used.
 The second derivative matrix:
                          R1
           R1           0.41214
 ITU=  0
     Eigenvalues ---    0.41214
 Angle between quadratic step and forces=   0.00 degrees.
 Linear search not attempted -- first point.
 Iteration  1 RMS(Cart)=  0.00023921 RMS(Int)=  0.00000000
 Iteration  2 RMS(Cart)=  0.00000000 RMS(Int)=  0.00000000
 ClnCor:  largest displacement from symmetrization is 1.04D-20 for atom     1.
 Variable       Old X    -DE/DX   Delta X   Delta X   Delta X     New X
                                 (Linear)    (Quad)   (Total)
    R1        1.37909   0.00014   0.00000   0.00034   0.00034   1.37942
         Item               Value     Threshold  Converged?
 Maximum Force            0.000139     0.000450     YES
 RMS     Force            0.000139     0.000300     YES
 Maximum Displacement     0.000169     0.001800     YES
 RMS     Displacement     0.000239     0.001200     YES
 Predicted change in Energy=-2.358331D-08
 Optimization completed.
    -- Stationary point found.
                           ----------------------------
                           !   Optimized Parameters   !
                           ! (Angstroms and Degrees)  !
 --------------------------                            --------------------------
 ! Name  Definition              Value          Derivative Info.                !
 --------------------------------------------------------------------------------
 ! R1    R(1,2)                  0.7298         -DE/DX =    0.0001              !
 --------------------------------------------------------------------------------
 GradGradGradGradGradGradGradGradGradGradGradGradGradGradGradGradGradGrad

 1\1\GINC-BISON\Freq\RHF\6-31G\H2\AALRAWAS\23-Nov-2016\0\\#N Geom=AllCh
 eck Guess=TCheck SCRF=Check GenChk RHF/6-31G Freq\\H2 density at nucle
 i\\0,1\H,0.,0.,0.3648903013\H,0.,0.,-0.3648903013\\Version=ES64L-G09Re
 vE.01\State=1-SGG\HF=-1.1268278\RMSD=0.000e+00\RMSF=8.050e-05\ZeroPoin
 t=0.0105909\Thermal=0.0129514\Dipole=0.,0.,0.\DipoleDeriv=0.,0.,0.,0.,
 0.,0.,0.,0.,0.,0.,0.,0.,0.,0.,0.,0.,0.,0.\Polar=0.,0.,0.,0.,0.,6.34958
 59\PolarDeriv=0.,0.,0.,4.6042004,0.,0.,0.,0.,0.,0.,4.6042004,0.,0.,0.,
 0.,0.,0.,6.9152584,0.,0.,0.,-4.6042004,0.,0.,0.,0.,0.,0.,-4.6042004,0.
 ,0.,0.,0.,0.,0.,-6.9152584\HyperPolar=0.,0.,0.,0.,0.,0.,0.,0.,0.,0.\PG
 =D*H [C*(H1.H1)]\NImag=0\\-0.00010110,0.,-0.00010110,0.,0.,0.41213857,
 0.00010110,0.,0.,-0.00010110,0.,0.00010110,0.,0.,-0.00010110,0.,0.,-0.
 41213857,0.,0.,0.41213857\\0.,0.,-0.00013942,0.,0.,0.00013942\\\@


 IN THE UNIVERSE THE DIFFICULT THINGS ARE DONE AS IF THEY WERE EASY.

                                                          -- LAO-TSU
 Job cpu time:       0 days  0 hours  0 minutes  1.1 seconds.
 File lengths (MBytes):  RWF=     82 Int=      0 D2E=      0 Chk=      2 Scr=      2
 Normal termination of Gaussian 09 at Wed Nov 23 18:59:20 2016.
