 Entering Gaussian System, Link 0=g09
 Initial command:
 /global/software/gaussian/g09.e01/l1.exe "/scratch/10464837.yak.local/Gau-5009.inp" -scrdir="/scratch/10464837.yak.local/"
 Entering Link 1 = /global/software/gaussian/g09.e01/l1.exe PID=      5011.
  
 Copyright (c) 1988,1990,1992,1993,1995,1998,2003,2009,2015,
            Gaussian, Inc.  All Rights Reserved.
  
 This is part of the Gaussian(R) 09 program.  It is based on
 the Gaussian(R) 03 system (copyright 2003, Gaussian, Inc.),
 the Gaussian(R) 98 system (copyright 1998, Gaussian, Inc.),
 the Gaussian(R) 94 system (copyright 1995, Gaussian, Inc.),
 the Gaussian 92(TM) system (copyright 1992, Gaussian, Inc.),
 the Gaussian 90(TM) system (copyright 1990, Gaussian, Inc.),
 the Gaussian 88(TM) system (copyright 1988, Gaussian, Inc.),
 the Gaussian 86(TM) system (copyright 1986, Carnegie Mellon
 University), and the Gaussian 82(TM) system (copyright 1983,
 Carnegie Mellon University). Gaussian is a federally registered
 trademark of Gaussian, Inc.
  
 This software contains proprietary and confidential information,
 including trade secrets, belonging to Gaussian, Inc.
  
 This software is provided under written license and may be
 used, copied, transmitted, or stored only in accord with that
 written license.
  
 The following legend is applicable only to US Government
 contracts under FAR:
  
                    RESTRICTED RIGHTS LEGEND
  
 Use, reproduction and disclosure by the US Government is
 subject to restrictions as set forth in subparagraphs (a)
 and (c) of the Commercial Computer Software - Restricted
 Rights clause in FAR 52.227-19.
  
 Gaussian, Inc.
 340 Quinnipiac St., Bldg. 40, Wallingford CT 06492
  
  
 ---------------------------------------------------------------
 Warning -- This program may not be used in any manner that
 competes with the business of Gaussian, Inc. or will provide
 assistance to any competitor of Gaussian, Inc.  The licensee
 of this program is prohibited from giving any competitor of
 Gaussian, Inc. access to this program.  By using this program,
 the user acknowledges that Gaussian, Inc. is engaged in the
 business of creating and licensing software in the field of
 computational chemistry and represents and warrants to the
 licensee that it is not a competitor of Gaussian, Inc. and that
 it will not use this program in any manner prohibited above.
 ---------------------------------------------------------------
  

 Cite this work as:
 Gaussian 09, Revision E.01,
 M. J. Frisch, G. W. Trucks, H. B. Schlegel, G. E. Scuseria, 
 M. A. Robb, J. R. Cheeseman, G. Scalmani, V. Barone, B. Mennucci, 
 G. A. Petersson, H. Nakatsuji, M. Caricato, X. Li, H. P. Hratchian, 
 A. F. Izmaylov, J. Bloino, G. Zheng, J. L. Sonnenberg, M. Hada, 
 M. Ehara, K. Toyota, R. Fukuda, J. Hasegawa, M. Ishida, T. Nakajima, 
 Y. Honda, O. Kitao, H. Nakai, T. Vreven, J. A. Montgomery, Jr., 
 J. E. Peralta, F. Ogliaro, M. Bearpark, J. J. Heyd, E. Brothers, 
 K. N. Kudin, V. N. Staroverov, T. Keith, R. Kobayashi, J. Normand, 
 K. Raghavachari, A. Rendell, J. C. Burant, S. S. Iyengar, J. Tomasi, 
 M. Cossi, N. Rega, J. M. Millam, M. Klene, J. E. Knox, J. B. Cross, 
 V. Bakken, C. Adamo, J. Jaramillo, R. Gomperts, R. E. Stratmann, 
 O. Yazyev, A. J. Austin, R. Cammi, C. Pomelli, J. W. Ochterski, 
 R. L. Martin, K. Morokuma, V. G. Zakrzewski, G. A. Voth, 
 P. Salvador, J. J. Dannenberg, S. Dapprich, A. D. Daniels, 
 O. Farkas, J. B. Foresman, J. V. Ortiz, J. Cioslowski, 
 and D. J. Fox, Gaussian, Inc., Wallingford CT, 2013.
 
 ******************************************
 Gaussian 09:  ES64L-G09RevE.01 30-Nov-2015
                15-Jan-2017 
 ******************************************
 -------------------------
 # b3lyp/6-31g(d) opt freq
 -------------------------
 1/14=-1,18=20,19=15,26=3,38=1/1,3;
 2/9=110,12=2,17=6,18=5,40=1/2;
 3/5=1,6=6,7=1,11=2,16=1,25=1,30=1,71=1,74=-5/1,2,3;
 4//1;
 5/5=2,38=5/2;
 6/7=2,8=2,9=2,10=2,28=1/1;
 7//1,2,3,16;
 1/14=-1,18=20,19=15,26=3/3(2);
 2/9=110/2;
 99//99;
 2/9=110/2;
 3/5=1,6=6,7=1,11=2,16=1,25=1,30=1,71=1,74=-5/1,2,3;
 4/5=5,16=3,69=1/1;
 5/5=2,38=5/2;
 7//1,2,3,16;
 1/14=-1,18=20,19=15,26=3/3(-5);
 2/9=110/2;
 6/7=2,8=2,9=2,10=2,19=2,28=1/1;
 99/9=1/99;
 -----------------------------------
 glo_2w_alpha_ircf_boat4_B3LYP_631Gd
 -----------------------------------
 Symbolic Z-matrix:
 Charge =  0 Multiplicity = 1
 8                    -0.64344   0.32593   0.54327 
 6                     1.64588   0.21069  -0.2481 
 6                     0.22309  -1.90475  -0.20376 
 6                     1.55842  -1.24839   0.2046 
 6                    -0.87536  -0.8662   -0.4964 
 6                     0.58175   1.06408   0.45119 
 1                     1.608    -1.27409   1.30382 
 1                     0.93187   1.23597   1.48003 
 1                     1.50022   0.24753  -1.34079 
 6                     0.37872   2.42093  -0.24769 
 1                     0.04504   2.26155  -1.27815 
 1                    -0.39155   3.01157   0.26435 
 1                     0.40786  -2.45407  -1.14248 
 8                     1.61419   3.14659  -0.34602 
 1                     1.80867   3.51679   0.52982 
 8                    -0.20329  -2.78096   0.81656 
 1                    -1.17582  -2.79266   0.75382 
 8                     2.624    -1.98809  -0.3685 
 1                     3.41955  -1.44611  -0.22699 
 8                     2.9532    0.67263   0.07117 
 1                     2.99773   1.58472  -0.26975 
 1                    -0.75311  -0.38055  -1.47242 
 8                    -2.09796  -1.37256  -0.28815 
 8                    -3.80358   0.27389  -0.88136 
 1                    -2.84128  -0.74978  -0.63462 
 1                    -3.51604   0.91095  -0.14144 
 1                    -4.69069  -0.0505   -0.66855 
 8                    -2.7275    1.58303   0.87634 
 1                    -1.84953   1.08764   0.80171 
 1                    -3.0698    1.35713   1.75445 
 
 Add virtual bond connecting atoms H25        and O24        Dist= 2.70D+00.
 Add virtual bond connecting atoms O28        and H26        Dist= 2.74D+00.
 Add virtual bond connecting atoms H29        and O1         Dist= 2.74D+00.

 GradGradGradGradGradGradGradGradGradGradGradGradGradGradGradGradGradGrad
 Berny optimization.
 Initialization pass.
                           ----------------------------
                           !    Initial Parameters    !
                           ! (Angstroms and Degrees)  !
 --------------------------                            --------------------------
 ! Name  Definition              Value          Derivative Info.                !
 --------------------------------------------------------------------------------
 ! R1    R(1,5)                  1.5987         estimate D2E/DX2                !
 ! R2    R(1,6)                  1.4333         estimate D2E/DX2                !
 ! R3    R(1,29)                 1.4497         estimate D2E/DX2                !
 ! R4    R(2,4)                  1.5302         estimate D2E/DX2                !
 ! R5    R(2,6)                  1.5329         estimate D2E/DX2                !
 ! R6    R(2,9)                  1.103          estimate D2E/DX2                !
 ! R7    R(2,20)                 1.4228         estimate D2E/DX2                !
 ! R8    R(3,4)                  1.5429         estimate D2E/DX2                !
 ! R9    R(3,5)                  1.5398         estimate D2E/DX2                !
 ! R10   R(3,13)                 1.1032         estimate D2E/DX2                !
 ! R11   R(3,16)                 1.4109         estimate D2E/DX2                !
 ! R12   R(4,7)                  1.1006         estimate D2E/DX2                !
 ! R13   R(4,18)                 1.4181         estimate D2E/DX2                !
 ! R14   R(5,22)                 1.097          estimate D2E/DX2                !
 ! R15   R(5,23)                 1.3396         estimate D2E/DX2                !
 ! R16   R(6,8)                  1.1003         estimate D2E/DX2                !
 ! R17   R(6,10)                 1.5397         estimate D2E/DX2                !
 ! R18   R(10,11)                1.0948         estimate D2E/DX2                !
 ! R19   R(10,12)                1.0974         estimate D2E/DX2                !
 ! R20   R(10,14)                1.4362         estimate D2E/DX2                !
 ! R21   R(14,15)                0.9705         estimate D2E/DX2                !
 ! R22   R(16,17)                0.9746         estimate D2E/DX2                !
 ! R23   R(18,19)                0.973          estimate D2E/DX2                !
 ! R24   R(20,21)                0.9747         estimate D2E/DX2                !
 ! R25   R(23,25)                1.0298         estimate D2E/DX2                !
 ! R26   R(24,25)                1.4265         estimate D2E/DX2                !
 ! R27   R(24,26)                1.0178         estimate D2E/DX2                !
 ! R28   R(24,27)                0.9682         estimate D2E/DX2                !
 ! R29   R(26,28)                1.4524         estimate D2E/DX2                !
 ! R30   R(28,29)                1.0108         estimate D2E/DX2                !
 ! R31   R(28,30)                0.9692         estimate D2E/DX2                !
 ! A1    A(5,1,6)              117.7909         estimate D2E/DX2                !
 ! A2    A(5,1,29)             112.7709         estimate D2E/DX2                !
 ! A3    A(6,1,29)             116.8724         estimate D2E/DX2                !
 ! A4    A(4,2,6)              110.8682         estimate D2E/DX2                !
 ! A5    A(4,2,9)              108.5047         estimate D2E/DX2                !
 ! A6    A(4,2,20)             107.1999         estimate D2E/DX2                !
 ! A7    A(6,2,9)              109.9792         estimate D2E/DX2                !
 ! A8    A(6,2,20)             110.7778         estimate D2E/DX2                !
 ! A9    A(9,2,20)             109.4381         estimate D2E/DX2                !
 ! A10   A(4,3,5)              112.3818         estimate D2E/DX2                !
 ! A11   A(4,3,13)             106.9818         estimate D2E/DX2                !
 ! A12   A(4,3,16)             109.532          estimate D2E/DX2                !
 ! A13   A(5,3,13)             107.0744         estimate D2E/DX2                !
 ! A14   A(5,3,16)             109.9213         estimate D2E/DX2                !
 ! A15   A(13,3,16)            110.8999         estimate D2E/DX2                !
 ! A16   A(2,4,3)              112.1351         estimate D2E/DX2                !
 ! A17   A(2,4,7)              108.3695         estimate D2E/DX2                !
 ! A18   A(2,4,18)             109.5644         estimate D2E/DX2                !
 ! A19   A(3,4,7)              107.0601         estimate D2E/DX2                !
 ! A20   A(3,4,18)             108.7508         estimate D2E/DX2                !
 ! A21   A(7,4,18)             110.9515         estimate D2E/DX2                !
 ! A22   A(1,5,3)              106.0142         estimate D2E/DX2                !
 ! A23   A(1,5,22)             103.4333         estimate D2E/DX2                !
 ! A24   A(1,5,23)             108.2502         estimate D2E/DX2                !
 ! A25   A(3,5,22)             112.8419         estimate D2E/DX2                !
 ! A26   A(3,5,23)             111.5054         estimate D2E/DX2                !
 ! A27   A(22,5,23)            114.0393         estimate D2E/DX2                !
 ! A28   A(1,6,2)              109.6332         estimate D2E/DX2                !
 ! A29   A(1,6,8)              107.001          estimate D2E/DX2                !
 ! A30   A(1,6,10)             111.7322         estimate D2E/DX2                !
 ! A31   A(2,6,8)              107.0163         estimate D2E/DX2                !
 ! A32   A(2,6,10)             112.0294         estimate D2E/DX2                !
 ! A33   A(8,6,10)             109.1912         estimate D2E/DX2                !
 ! A34   A(6,10,11)            109.8241         estimate D2E/DX2                !
 ! A35   A(6,10,12)            110.7968         estimate D2E/DX2                !
 ! A36   A(6,10,14)            111.2787         estimate D2E/DX2                !
 ! A37   A(11,10,12)           107.6736         estimate D2E/DX2                !
 ! A38   A(11,10,14)           105.7414         estimate D2E/DX2                !
 ! A39   A(12,10,14)           111.3332         estimate D2E/DX2                !
 ! A40   A(10,14,15)           107.6569         estimate D2E/DX2                !
 ! A41   A(3,16,17)            105.2159         estimate D2E/DX2                !
 ! A42   A(4,18,19)            105.3707         estimate D2E/DX2                !
 ! A43   A(2,20,21)            105.503          estimate D2E/DX2                !
 ! A44   A(5,23,25)            112.2024         estimate D2E/DX2                !
 ! A45   A(25,24,26)            97.6337         estimate D2E/DX2                !
 ! A46   A(25,24,27)           109.8546         estimate D2E/DX2                !
 ! A47   A(26,24,27)           107.9842         estimate D2E/DX2                !
 ! A48   A(24,26,28)           162.2574         estimate D2E/DX2                !
 ! A49   A(26,28,29)           101.1307         estimate D2E/DX2                !
 ! A50   A(26,28,30)           109.5914         estimate D2E/DX2                !
 ! A51   A(29,28,30)           105.0362         estimate D2E/DX2                !
 ! A52   L(23,25,24,10,-1)     172.7442         estimate D2E/DX2                !
 ! A53   L(1,29,28,12,-1)      181.5254         estimate D2E/DX2                !
 ! A54   L(23,25,24,10,-2)     189.2232         estimate D2E/DX2                !
 ! A55   L(1,29,28,12,-2)      173.4579         estimate D2E/DX2                !
 ! D1    D(6,1,5,3)             63.5414         estimate D2E/DX2                !
 ! D2    D(6,1,5,22)           -55.3908         estimate D2E/DX2                !
 ! D3    D(6,1,5,23)          -176.7074         estimate D2E/DX2                !
 ! D4    D(29,1,5,3)          -155.6209         estimate D2E/DX2                !
 ! D5    D(29,1,5,22)           85.4468         estimate D2E/DX2                !
 ! D6    D(29,1,5,23)          -35.8697         estimate D2E/DX2                !
 ! D7    D(5,1,6,2)            -22.8616         estimate D2E/DX2                !
 ! D8    D(5,1,6,8)           -138.5819         estimate D2E/DX2                !
 ! D9    D(5,1,6,10)           101.9515         estimate D2E/DX2                !
 ! D10   D(29,1,6,2)          -162.1092         estimate D2E/DX2                !
 ! D11   D(29,1,6,8)            82.1705         estimate D2E/DX2                !
 ! D12   D(29,1,6,10)          -37.2961         estimate D2E/DX2                !
 ! D13   D(5,1,28,26)           -6.4909         estimate D2E/DX2                !
 ! D14   D(5,1,28,30)          106.847          estimate D2E/DX2                !
 ! D15   D(6,1,28,26)          132.9977         estimate D2E/DX2                !
 ! D16   D(6,1,28,30)         -113.6643         estimate D2E/DX2                !
 ! D17   D(6,2,4,3)             64.1452         estimate D2E/DX2                !
 ! D18   D(6,2,4,7)            -53.8111         estimate D2E/DX2                !
 ! D19   D(6,2,4,18)          -175.0008         estimate D2E/DX2                !
 ! D20   D(9,2,4,3)            -56.7316         estimate D2E/DX2                !
 ! D21   D(9,2,4,7)           -174.6879         estimate D2E/DX2                !
 ! D22   D(9,2,4,18)            64.1224         estimate D2E/DX2                !
 ! D23   D(20,2,4,3)          -174.8285         estimate D2E/DX2                !
 ! D24   D(20,2,4,7)            67.2152         estimate D2E/DX2                !
 ! D25   D(20,2,4,18)          -53.9745         estimate D2E/DX2                !
 ! D26   D(4,2,6,1)            -39.5498         estimate D2E/DX2                !
 ! D27   D(4,2,6,8)             76.1607         estimate D2E/DX2                !
 ! D28   D(4,2,6,10)          -164.1907         estimate D2E/DX2                !
 ! D29   D(9,2,6,1)             80.4511         estimate D2E/DX2                !
 ! D30   D(9,2,6,8)           -163.8384         estimate D2E/DX2                !
 ! D31   D(9,2,6,10)           -44.1898         estimate D2E/DX2                !
 ! D32   D(20,2,6,1)          -158.4396         estimate D2E/DX2                !
 ! D33   D(20,2,6,8)           -42.7291         estimate D2E/DX2                !
 ! D34   D(20,2,6,10)           76.9195         estimate D2E/DX2                !
 ! D35   D(4,2,20,21)          177.0267         estimate D2E/DX2                !
 ! D36   D(6,2,20,21)          -61.8899         estimate D2E/DX2                !
 ! D37   D(9,2,20,21)           59.5386         estimate D2E/DX2                !
 ! D38   D(5,3,4,2)            -20.5383         estimate D2E/DX2                !
 ! D39   D(5,3,4,7)             98.1934         estimate D2E/DX2                !
 ! D40   D(5,3,4,18)          -141.8611         estimate D2E/DX2                !
 ! D41   D(13,3,4,2)            96.7048         estimate D2E/DX2                !
 ! D42   D(13,3,4,7)          -144.5635         estimate D2E/DX2                !
 ! D43   D(13,3,4,18)          -24.618          estimate D2E/DX2                !
 ! D44   D(16,3,4,2)          -143.0229         estimate D2E/DX2                !
 ! D45   D(16,3,4,7)           -24.2913         estimate D2E/DX2                !
 ! D46   D(16,3,4,18)           95.6543         estimate D2E/DX2                !
 ! D47   D(4,3,5,1)            -35.9035         estimate D2E/DX2                !
 ! D48   D(4,3,5,22)            76.6258         estimate D2E/DX2                !
 ! D49   D(4,3,5,23)          -153.5024         estimate D2E/DX2                !
 ! D50   D(13,3,5,1)          -153.0914         estimate D2E/DX2                !
 ! D51   D(13,3,5,22)          -40.5622         estimate D2E/DX2                !
 ! D52   D(13,3,5,23)           89.3097         estimate D2E/DX2                !
 ! D53   D(16,3,5,1)            86.361          estimate D2E/DX2                !
 ! D54   D(16,3,5,22)         -161.1097         estimate D2E/DX2                !
 ! D55   D(16,3,5,23)          -31.2379         estimate D2E/DX2                !
 ! D56   D(4,3,16,17)          151.338          estimate D2E/DX2                !
 ! D57   D(5,3,16,17)           27.3991         estimate D2E/DX2                !
 ! D58   D(13,3,16,17)         -90.8099         estimate D2E/DX2                !
 ! D59   D(2,4,18,19)           46.6561         estimate D2E/DX2                !
 ! D60   D(3,4,18,19)          169.5396         estimate D2E/DX2                !
 ! D61   D(7,4,18,19)          -72.9614         estimate D2E/DX2                !
 ! D62   D(1,5,23,25)           73.7669         estimate D2E/DX2                !
 ! D63   D(3,5,23,25)         -169.9917         estimate D2E/DX2                !
 ! D64   D(22,5,23,25)         -40.7484         estimate D2E/DX2                !
 ! D65   D(1,6,10,11)          -62.7149         estimate D2E/DX2                !
 ! D66   D(1,6,10,12)           56.1096         estimate D2E/DX2                !
 ! D67   D(1,6,10,14)         -179.4511         estimate D2E/DX2                !
 ! D68   D(2,6,10,11)           60.7535         estimate D2E/DX2                !
 ! D69   D(2,6,10,12)          179.578          estimate D2E/DX2                !
 ! D70   D(2,6,10,14)          -55.9827         estimate D2E/DX2                !
 ! D71   D(8,6,10,11)          179.1196         estimate D2E/DX2                !
 ! D72   D(8,6,10,12)          -62.0559         estimate D2E/DX2                !
 ! D73   D(8,6,10,14)           62.3834         estimate D2E/DX2                !
 ! D74   D(6,10,14,15)         -76.3206         estimate D2E/DX2                !
 ! D75   D(11,10,14,15)        164.4767         estimate D2E/DX2                !
 ! D76   D(12,10,14,15)         47.8158         estimate D2E/DX2                !
 ! D77   D(5,23,24,26)         -64.8861         estimate D2E/DX2                !
 ! D78   D(5,23,24,27)        -175.3715         estimate D2E/DX2                !
 ! D79   D(25,24,26,28)         21.0276         estimate D2E/DX2                !
 ! D80   D(27,24,26,28)        134.8424         estimate D2E/DX2                !
 ! D81   D(24,26,28,29)          1.4977         estimate D2E/DX2                !
 ! D82   D(24,26,28,30)       -109.0309         estimate D2E/DX2                !
 --------------------------------------------------------------------------------
 Trust Radius=3.00D-01 FncErr=1.00D-07 GrdErr=1.00D-06
 Number of steps in this run=    178 maximum allowed number of steps=    180.
 GradGradGradGradGradGradGradGradGradGradGradGradGradGradGradGradGradGrad

                          Input orientation:                          
 ---------------------------------------------------------------------
 Center     Atomic      Atomic             Coordinates (Angstroms)
 Number     Number       Type             X           Y           Z
 ---------------------------------------------------------------------
      1          8           0       -0.643444    0.325930    0.543265
      2          6           0        1.645876    0.210692   -0.248096
      3          6           0        0.223092   -1.904754   -0.203762
      4          6           0        1.558419   -1.248394    0.204596
      5          6           0       -0.875363   -0.866198   -0.496396
      6          6           0        0.581749    1.064081    0.451192
      7          1           0        1.607999   -1.274090    1.303821
      8          1           0        0.931870    1.235970    1.480026
      9          1           0        1.500223    0.247532   -1.340794
     10          6           0        0.378716    2.420927   -0.247691
     11          1           0        0.045044    2.261549   -1.278153
     12          1           0       -0.391551    3.011572    0.264352
     13          1           0        0.407860   -2.454066   -1.142477
     14          8           0        1.614187    3.146593   -0.346022
     15          1           0        1.808668    3.516785    0.529818
     16          8           0       -0.203294   -2.780963    0.816560
     17          1           0       -1.175819   -2.792657    0.753816
     18          8           0        2.623995   -1.988092   -0.368497
     19          1           0        3.419549   -1.446114   -0.226994
     20          8           0        2.953201    0.672629    0.071169
     21          1           0        2.997729    1.584724   -0.269754
     22          1           0       -0.753108   -0.380551   -1.472419
     23          8           0       -2.097958   -1.372559   -0.288147
     24          8           0       -3.803583    0.273890   -0.881355
     25          1           0       -2.841277   -0.749777   -0.634616
     26          1           0       -3.516042    0.910954   -0.141439
     27          1           0       -4.690686   -0.050504   -0.668550
     28          8           0       -2.727500    1.583032    0.876341
     29          1           0       -1.849534    1.087644    0.801709
     30          1           0       -3.069804    1.357127    1.754453
 ---------------------------------------------------------------------
                    Distance matrix (angstroms):
                    1          2          3          4          5
     1  O    0.000000
     2  C    2.424978   0.000000
     3  C    2.506967   2.549783   0.000000
     4  C    2.727892   1.530200   1.542940   0.000000
     5  C    1.598703   2.752815   1.539752   2.561398   0.000000
     6  C    1.433333   1.532854   3.061304   2.522347   2.597513
     7  H    2.864874   2.148129   2.142081   1.100643   3.094228
     8  H    2.046291   2.132465   3.633408   2.862053   3.404621
     9  H    2.855019   1.102978   2.748862   2.151607   2.756231
    10  C    2.461592   2.547711   4.328702   3.880745   3.527004
    11  H    2.745578   2.798159   4.306286   4.099823   3.352774
    12  H    2.711810   3.501234   4.976663   4.685431   3.981195
    13  H    3.416920   3.071406   1.103208   2.142904   2.141356
    14  O    3.720735   2.937705   5.241325   4.429695   4.724718
    15  H    4.024250   3.400280   5.696075   4.782816   5.240962
    16  O    3.149795   3.674632   1.410888   2.413897   2.416993
    17  H    3.170700   4.240978   1.913708   3.187860   2.316149
    18  O    4.106357   2.409536   2.407990   1.418112   3.677025
    19  H    4.499039   2.427214   3.229277   1.920721   4.342252
    20  O    3.644027   1.422819   3.764570   2.377719   4.165096
    21  H    3.937474   1.927677   4.458635   3.212970   4.589033
    22  H    2.138720   2.757473   2.210351   2.984743   1.097005
    23  O    2.385733   4.065044   2.382777   3.691518   1.339592
    24  O    3.466804   5.486494   4.628146   5.678706   3.165828
    25  H    2.715699   4.605045   3.303024   4.506686   1.974203
    26  H    3.010464   5.210292   4.681156   5.525638   3.202725
    27  H    4.241505   6.355865   5.272522   6.422510   3.905340
    28  O    2.456529   4.719544   4.694387   5.180475   3.363561
    29  H    1.449708   3.753535   3.776400   4.174657   2.539997
    30  H    2.901304   5.249967   5.031664   5.532743   3.850333
                    6          7          8          9         10
     6  C    0.000000
     7  H    2.692064   0.000000
     8  H    1.100286   2.605494   0.000000
     9  H    2.172915   3.053021   3.042542   0.000000
    10  C    1.539705   4.191835   2.166820   2.678861   0.000000
    11  H    2.170856   4.648673   3.073406   2.485505   1.094801
    12  H    2.185164   4.842065   2.526276   3.714192   1.097434
    13  H    3.866184   2.969352   4.557244   2.920825   4.956516
    14  O    2.457302   4.718523   2.729558   3.067102   1.436192
    15  H    2.743587   4.857142   2.621791   3.779199   1.962190
    16  O    3.941339   2.406007   4.226646   4.089979   5.341444
    17  H    4.249124   3.218415   4.604299   4.559752   5.531822
    18  O    3.762767   2.082953   4.083491   2.684444   4.949275
    19  H    3.848912   2.377961   4.036835   2.791559   4.919461
    20  O    2.433400   2.668092   2.527451   2.070143   3.128289
    21  H    2.574450   3.546873   2.729676   2.275463   2.749355
    22  H    2.751197   3.752432   3.764203   2.342929   3.260255
    23  O    3.696575   4.034622   4.371581   4.084075   4.530572
    24  O    4.650938   6.037918   5.378311   5.323733   4.743725
    25  H    4.023204   4.881444   4.759363   4.510203   4.535574
    26  H    4.143254   5.754910   4.745388   5.200144   4.178570
    27  H    5.504061   6.712737   6.155041   6.234428   5.655434
    28  O    3.376565   5.209840   3.725034   4.957105   3.407946
    29  H    2.456533   4.217160   2.866762   4.064109   2.800711
    30  H    3.888214   5.385927   4.012902   5.630000   4.127050
                   11         12         13         14         15
    11  H    0.000000
    12  H    1.769879   0.000000
    13  H    4.731497   5.700125   0.000000
    14  O    2.028394   2.100898   5.784198   0.000000
    15  H    2.820416   2.273032   6.356878   0.970547   0.000000
    16  O    5.465933   5.821841   2.078027   6.307991   6.617540
    17  H    5.582509   5.877391   2.493714   6.653455   6.983294
    18  O    5.053505   5.872875   2.393205   5.233088   5.636967
    19  H    5.122400   5.885310   3.305200   4.936239   5.272387
    20  O    3.578088   4.085993   4.210454   2.843854   3.099925
    21  H    3.192696   3.715963   4.876566   2.087927   2.405419
    22  H    2.766854   3.828001   2.399203   4.394724   5.075517
    23  O    4.333510   4.736843   2.859836   5.848599   6.311615
    24  O    4.349732   4.522113   5.024558   6.155586   6.633637
    25  H    4.220554   4.577887   3.703973   5.925888   6.417277
    26  H    3.974614   3.786780   5.265211   5.599927   5.966027
    27  H    5.305124   5.359961   5.656579   7.076502   7.510209
    28  O    3.576203   2.805693   5.495841   4.773797   4.943309
    29  H    3.048492   2.473048   4.628109   4.189740   4.399670
    30  H    4.440378   3.482905   5.917055   5.436355   5.473878
                   16         17         18         19         20
    16  O    0.000000
    17  H    0.974617   0.000000
    18  O    3.166476   4.042957   0.000000
    19  H    3.999477   4.888003   0.972969   0.000000
    20  O    4.737760   5.433509   2.716821   2.189852   0.000000
    21  H    5.521399   6.134139   3.593667   3.060350   0.974745
    22  H    3.362097   3.309541   3.899700   4.483032   4.150732
    23  O    2.606479   1.988141   4.762581   5.518336   5.461329
    24  O    5.017681   4.356907   6.833253   7.453874   6.835234
    25  H    3.631884   2.979069   5.610120   6.312605   6.008107
    26  H    5.051961   4.471561   6.793826   7.325675   6.477122
    27  H    5.458722   4.679404   7.572902   8.241275   7.713567
    28  O    5.041790   4.644285   6.552942   6.941130   5.809260
    29  H    4.204337   3.938645   5.553557   5.936446   4.875673
    30  H    5.120577   4.670028   6.936624   7.341389   6.291150
                   21         22         23         24         25
    21  H    0.000000
    22  H    4.401987   0.000000
    23  O    5.891679   2.048219   0.000000
    24  O    6.953430   3.175381   2.443736   0.000000
    25  H    6.298969   2.280064   1.029768   1.426467   0.000000
    26  H    6.549782   3.327656   2.692010   1.017844   1.859182
    27  H    7.870498   4.032326   2.935094   0.968230   1.977485
    28  O    5.838817   3.642877   3.238499   2.441578   2.781714
    29  H    4.989096   2.920514   2.702240   2.704294   2.534305
    30  H    6.400326   4.335817   3.545121   2.942672   3.193575
                   26         27         28         29         30
    26  H    0.000000
    27  H    1.606872   0.000000
    28  O    1.452365   2.984833   0.000000
    29  H    1.923018   3.395466   1.010843   0.000000
    30  H    1.998150   3.237225   0.969168   1.571433   0.000000
 Stoichiometry    C6H16O8
 Framework group  C1[X(C6H16O8)]
 Deg. of freedom    84
 Full point group                 C1      NOp   1
 Largest Abelian subgroup         C1      NOp   1
 Largest concise Abelian subgroup C1      NOp   1
                         Standard orientation:                         
 ---------------------------------------------------------------------
 Center     Atomic      Atomic             Coordinates (Angstroms)
 Number     Number       Type             X           Y           Z
 ---------------------------------------------------------------------
      1          8           0       -0.620770    0.298048    0.544194
      2          6           0        1.669405    0.189453   -0.245630
      3          6           0        0.252397   -1.929906   -0.203260
      4          6           0        1.585636   -1.270077    0.206327
      5          6           0       -0.848699   -0.894230   -0.496178
      6          6           0        0.602458    1.039598    0.453312
      7          1           0        1.634524   -1.296146    1.305575
      8          1           0        0.951393    1.211969    1.482468
      9          1           0        1.524409    0.226400   -1.338412
     10          6           0        0.396190    2.396206   -0.245085
     11          1           0        0.063671    2.236391   -1.275852
     12          1           0       -0.376048    2.984499    0.266695
     13          1           0        0.439321   -2.478274   -1.142100
     14          8           0        1.629734    3.125301   -0.342223
     15          1           0        1.822593    3.495619    0.533922
     16          8           0       -0.172292   -2.807753    0.816361
     17          1           0       -1.144738   -2.822084    0.752936
     18          8           0        2.653633   -2.006585   -0.366367
     19          1           0        3.447600   -1.462493   -0.224061
     20          8           0        2.975237    0.654825    0.074756
     21          1           0        3.017501    1.567196   -0.265715
     22          1           0       -0.727099   -0.407797   -1.471891
     23          8           0       -2.070045   -1.404037   -0.289012
     24          8           0       -3.779766    0.238004   -0.882644
     25          1           0       -2.814828   -0.783135   -0.635709
     26          1           0       -3.494486    0.875511   -0.142234
     27          1           0       -4.666124   -0.088919   -0.670605
     28          8           0       -2.708495    1.549277    0.876403
     29          1           0       -1.829123    1.056332    0.802152
     30          1           0       -3.050787    1.322027    1.754173
 ---------------------------------------------------------------------
 Rotational constants (GHZ):      0.7173430      0.5294769      0.3326976
 Standard basis: 6-31G(d) (6D, 7F)
 There are   242 symmetry adapted cartesian basis functions of A   symmetry.
 There are   242 symmetry adapted basis functions of A   symmetry.
   242 basis functions,   456 primitive gaussians,   242 cartesian basis functions
    58 alpha electrons       58 beta electrons
       nuclear repulsion energy      1103.9799226259 Hartrees.
 NAtoms=   30 NActive=   30 NUniq=   30 SFac= 1.00D+00 NAtFMM=   60 NAOKFM=F Big=F
 Integral buffers will be    131072 words long.
 Raffenetti 2 integral format.
 Two-electron integral symmetry is turned on.
 One-electron integrals computed using PRISM.
 NBasis=   242 RedAO= T EigKep=  1.33D-03  NBF=   242
 NBsUse=   242 1.00D-06 EigRej= -1.00D+00 NBFU=   242
 ExpMin= 1.61D-01 ExpMax= 5.48D+03 ExpMxC= 8.25D+02 IAcc=1 IRadAn=         1 AccDes= 0.00D+00
 Harris functional with IExCor=  402 and IRadAn=       1 diagonalized for initial guess.
 HarFok:  IExCor=  402 AccDes= 0.00D+00 IRadAn=         1 IDoV= 1 UseB2=F ITyADJ=14
 ICtDFT=  3500011 ScaDFX=  1.000000  1.000000  1.000000  1.000000
 FoFCou: FMM=F IPFlag=           0 FMFlag=      100000 FMFlg1=           0
         NFxFlg=           0 DoJE=T BraDBF=F KetDBF=T FulRan=T
         wScrn=  0.000000 ICntrl=     500 IOpCl=  0 I1Cent=   200000004 NGrid=           0
         NMat0=    1 NMatS0=      1 NMatT0=    0 NMatD0=    1 NMtDS0=    0 NMtDT0=    0
 Petite list used in FoFCou.
 Requested convergence on RMS density matrix=1.00D-08 within 128 cycles.
 Requested convergence on MAX density matrix=1.00D-06.
 Requested convergence on             energy=1.00D-06.
 No special actions if energy rises.
 Integral accuracy reduced to 1.0D-05 until final iterations.
 Initial convergence to 1.0D-05 achieved.  Increase integral accuracy.
 SCF Done:  E(RB3LYP) =  -839.981780207     A.U. after   14 cycles
            NFock= 14  Conv=0.54D-08     -V/T= 2.0084

 **********************************************************************

            Population analysis using the SCF density.

 **********************************************************************

 Orbital symmetries:
       Occupied  (A) (A) (A) (A) (A) (A) (A) (A) (A) (A) (A) (A)
                 (A) (A) (A) (A) (A) (A) (A) (A) (A) (A) (A) (A)
                 (A) (A) (A) (A) (A) (A) (A) (A) (A) (A) (A) (A)
                 (A) (A) (A) (A) (A) (A) (A) (A) (A) (A) (A) (A)
                 (A) (A) (A) (A) (A) (A) (A) (A) (A) (A)
       Virtual   (A) (A) (A) (A) (A) (A) (A) (A) (A) (A) (A) (A)
                 (A) (A) (A) (A) (A) (A) (A) (A) (A) (A) (A) (A)
                 (A) (A) (A) (A) (A) (A) (A) (A) (A) (A) (A) (A)
                 (A) (A) (A) (A) (A) (A) (A) (A) (A) (A) (A) (A)
                 (A) (A) (A) (A) (A) (A) (A) (A) (A) (A) (A) (A)
                 (A) (A) (A) (A) (A) (A) (A) (A) (A) (A) (A) (A)
                 (A) (A) (A) (A) (A) (A) (A) (A) (A) (A) (A) (A)
                 (A) (A) (A) (A) (A) (A) (A) (A) (A) (A) (A) (A)
                 (A) (A) (A) (A) (A) (A) (A) (A) (A) (A) (A) (A)
                 (A) (A) (A) (A) (A) (A) (A) (A) (A) (A) (A) (A)
                 (A) (A) (A) (A) (A) (A) (A) (A) (A) (A) (A) (A)
                 (A) (A) (A) (A) (A) (A) (A) (A) (A) (A) (A) (A)
                 (A) (A) (A) (A) (A) (A) (A) (A) (A) (A) (A) (A)
                 (A) (A) (A) (A) (A) (A) (A) (A) (A) (A) (A) (A)
                 (A) (A) (A) (A) (A) (A) (A) (A) (A) (A) (A) (A)
                 (A) (A) (A) (A)
 The electronic state is 1-A.
 Alpha  occ. eigenvalues --  -19.17963 -19.16812 -19.15334 -19.15230 -19.15207
 Alpha  occ. eigenvalues --  -19.15072 -19.13202 -19.12861 -10.30033 -10.25083
 Alpha  occ. eigenvalues --  -10.24958 -10.24162 -10.23434 -10.23038  -1.07111
 Alpha  occ. eigenvalues --   -1.04938  -1.03313  -1.02949  -1.01771  -1.00820
 Alpha  occ. eigenvalues --   -0.99701  -0.98926  -0.77749  -0.76167  -0.69670
 Alpha  occ. eigenvalues --   -0.64795  -0.62617  -0.57132  -0.55718  -0.55321
 Alpha  occ. eigenvalues --   -0.54135  -0.53539  -0.52658  -0.51169  -0.50429
 Alpha  occ. eigenvalues --   -0.49092  -0.45907  -0.44856  -0.43534  -0.42597
 Alpha  occ. eigenvalues --   -0.41721  -0.41034  -0.40144  -0.38891  -0.36891
 Alpha  occ. eigenvalues --   -0.36634  -0.36497  -0.34682  -0.33509  -0.32708
 Alpha  occ. eigenvalues --   -0.31671  -0.30974  -0.30113  -0.29902  -0.27878
 Alpha  occ. eigenvalues --   -0.26800  -0.26341  -0.24492
 Alpha virt. eigenvalues --    0.03672   0.05350   0.07546   0.08254   0.09125
 Alpha virt. eigenvalues --    0.09667   0.11288   0.11772   0.13689   0.14656
 Alpha virt. eigenvalues --    0.15601   0.16253   0.16767   0.17810   0.18761
 Alpha virt. eigenvalues --    0.19598   0.20702   0.22874   0.24350   0.25286
 Alpha virt. eigenvalues --    0.26052   0.26946   0.28606   0.30642   0.32058
 Alpha virt. eigenvalues --    0.32443   0.33536   0.37139   0.50801   0.52065
 Alpha virt. eigenvalues --    0.53375   0.56062   0.56382   0.57573   0.60171
 Alpha virt. eigenvalues --    0.61224   0.61577   0.63249   0.65001   0.67186
 Alpha virt. eigenvalues --    0.67875   0.70574   0.72114   0.73039   0.75275
 Alpha virt. eigenvalues --    0.75659   0.77040   0.78082   0.78674   0.79780
 Alpha virt. eigenvalues --    0.80527   0.81205   0.83505   0.83660   0.84637
 Alpha virt. eigenvalues --    0.85741   0.85914   0.86942   0.88657   0.89659
 Alpha virt. eigenvalues --    0.90339   0.91206   0.92055   0.93821   0.96630
 Alpha virt. eigenvalues --    0.96732   0.99033   0.99189   1.00745   1.02130
 Alpha virt. eigenvalues --    1.03143   1.05381   1.07076   1.08032   1.09268
 Alpha virt. eigenvalues --    1.10070   1.10295   1.14699   1.15600   1.16552
 Alpha virt. eigenvalues --    1.18874   1.20158   1.21058   1.24719   1.27154
 Alpha virt. eigenvalues --    1.29861   1.31344   1.33547   1.36404   1.40999
 Alpha virt. eigenvalues --    1.43526   1.46364   1.48262   1.50074   1.51179
 Alpha virt. eigenvalues --    1.53981   1.55786   1.56619   1.59105   1.60485
 Alpha virt. eigenvalues --    1.61835   1.64206   1.66292   1.69282   1.70760
 Alpha virt. eigenvalues --    1.71044   1.71693   1.72120   1.73155   1.73909
 Alpha virt. eigenvalues --    1.74399   1.74777   1.76391   1.77476   1.79880
 Alpha virt. eigenvalues --    1.81047   1.82737   1.83404   1.85119   1.85978
 Alpha virt. eigenvalues --    1.86320   1.90624   1.91635   1.92398   1.94568
 Alpha virt. eigenvalues --    1.96520   1.99452   2.01216   2.03514   2.04061
 Alpha virt. eigenvalues --    2.08343   2.09729   2.11133   2.11632   2.13966
 Alpha virt. eigenvalues --    2.19432   2.23250   2.23487   2.27486   2.28159
 Alpha virt. eigenvalues --    2.30797   2.32655   2.37428   2.38575   2.38988
 Alpha virt. eigenvalues --    2.42889   2.44618   2.47549   2.49578   2.51048
 Alpha virt. eigenvalues --    2.52941   2.53548   2.57104   2.59344   2.60771
 Alpha virt. eigenvalues --    2.63199   2.66999   2.67773   2.71426   2.75442
 Alpha virt. eigenvalues --    2.78893   2.80344   2.83850   2.87960   2.90005
 Alpha virt. eigenvalues --    2.93649   2.98186   2.98335   3.01528   3.08994
 Alpha virt. eigenvalues --    3.74800   3.75301   3.80098   3.85274   3.88732
 Alpha virt. eigenvalues --    3.94267   4.05824   4.16794   4.24174   4.37524
 Alpha virt. eigenvalues --    4.45475   4.48364   4.65960   4.82329
          Condensed to atoms (all electrons):
               1          2          3          4          5          6
     1  O    8.553103  -0.025761  -0.030522  -0.001096   0.119736   0.135156
     2  C   -0.025761   5.006982  -0.023407   0.319067  -0.002124   0.287188
     3  C   -0.030522  -0.023407   4.956968   0.318525   0.287396  -0.011651
     4  C   -0.001096   0.319067   0.318525   4.905717  -0.033309  -0.033299
     5  C    0.119736  -0.002124   0.287396  -0.033309   4.745217  -0.016123
     6  C    0.135156   0.287188  -0.011651  -0.033299  -0.016123   5.037420
     7  H    0.001183  -0.053135  -0.049890   0.346969   0.001034  -0.001341
     8  H   -0.033404  -0.042742   0.000248  -0.008744   0.002674   0.353184
     9  H    0.002106   0.343751  -0.005250  -0.047242   0.000679  -0.056384
    10  C   -0.028350  -0.035464  -0.000276   0.004194  -0.002202   0.326166
    11  H    0.003125  -0.009793   0.000050  -0.000102   0.001080  -0.040557
    12  H    0.001700   0.004977  -0.000008  -0.000098  -0.000102  -0.042418
    13  H    0.002963  -0.000076   0.339979  -0.054796  -0.044776   0.000846
    14  O    0.001473   0.001641   0.000000   0.000081   0.000047  -0.038542
    15  H    0.000012  -0.001712   0.000001  -0.000011   0.000001  -0.001147
    16  O   -0.000475   0.002207   0.248685  -0.044383  -0.019147   0.000624
    17  H    0.000822  -0.000357  -0.040544   0.006244  -0.018400   0.000012
    18  O    0.000038  -0.032753  -0.037080   0.236225   0.001832   0.003617
    19  H   -0.000010  -0.013985   0.006597  -0.031107  -0.000276   0.000826
    20  O    0.001464   0.221749   0.002300  -0.037189   0.000221  -0.041390
    21  H    0.000029  -0.021451  -0.000198   0.005283   0.000010  -0.005093
    22  H   -0.052727  -0.002868  -0.061796   0.001346   0.358195   0.005800
    23  O   -0.045391   0.000188  -0.036645   0.001670   0.307116   0.001806
    24  O   -0.000654   0.000000  -0.000088   0.000001   0.003973   0.000015
    25  H    0.003533   0.000014   0.003059  -0.000010  -0.017087  -0.000198
    26  H    0.002226   0.000002   0.000068  -0.000002  -0.000288  -0.000118
    27  H    0.000023  -0.000000  -0.000001  -0.000000  -0.000142   0.000001
    28  O   -0.073043  -0.000053  -0.000041   0.000003   0.003432   0.004076
    29  H    0.074620   0.001191   0.000433   0.000028  -0.003163  -0.005126
    30  H    0.003470   0.000003  -0.000001  -0.000000  -0.000221  -0.000011
               7          8          9         10         11         12
     1  O    0.001183  -0.033404   0.002106  -0.028350   0.003125   0.001700
     2  C   -0.053135  -0.042742   0.343751  -0.035464  -0.009793   0.004977
     3  C   -0.049890   0.000248  -0.005250  -0.000276   0.000050  -0.000008
     4  C    0.346969  -0.008744  -0.047242   0.004194  -0.000102  -0.000098
     5  C    0.001034   0.002674   0.000679  -0.002202   0.001080  -0.000102
     6  C   -0.001341   0.353184  -0.056384   0.326166  -0.040557  -0.042418
     7  H    0.631099   0.005186   0.007870  -0.000010   0.000003   0.000007
     8  H    0.005186   0.629273   0.007519  -0.059620   0.005871  -0.004648
     9  H    0.007870   0.007519   0.667718  -0.008515   0.005444   0.000084
    10  C   -0.000010  -0.059620  -0.008515   4.975339   0.370049   0.361405
    11  H    0.000003   0.005871   0.005444   0.370049   0.565984  -0.035811
    12  H    0.000007  -0.004648   0.000084   0.361405  -0.035811   0.579790
    13  H    0.006875   0.000010   0.002639   0.000020  -0.000006  -0.000000
    14  O   -0.000011   0.002538   0.000150   0.216212  -0.034151  -0.025927
    15  H    0.000001   0.004497   0.000158  -0.029429   0.006846  -0.008022
    16  O    0.005103   0.000012  -0.000023  -0.000001   0.000000  -0.000000
    17  H   -0.000052   0.000003   0.000009  -0.000001   0.000000   0.000000
    18  O   -0.039843  -0.000072   0.002097  -0.000054  -0.000002   0.000000
    19  H   -0.001870   0.000021   0.000019  -0.000015   0.000000   0.000000
    20  O   -0.001426   0.004508  -0.040689   0.000257   0.000064  -0.000216
    21  H   -0.000237  -0.000249  -0.004449  -0.004207  -0.000056   0.000449
    22  H   -0.000005  -0.000400   0.000921   0.000936   0.000592  -0.000022
    23  O   -0.000083  -0.000068   0.000043  -0.000016  -0.000028   0.000003
    24  O   -0.000000   0.000000  -0.000000  -0.000017   0.000008   0.000013
    25  H   -0.000000   0.000008   0.000000   0.000001   0.000005  -0.000010
    26  H    0.000000   0.000001  -0.000000   0.000088   0.000016   0.000024
    27  H    0.000000  -0.000000   0.000000   0.000000  -0.000000  -0.000001
    28  O    0.000001   0.000071   0.000004  -0.001233   0.000048   0.006087
    29  H   -0.000035  -0.001085  -0.000093  -0.001142  -0.000416   0.002303
    30  H   -0.000000   0.000036  -0.000000  -0.000065   0.000003  -0.000059
              13         14         15         16         17         18
     1  O    0.002963   0.001473   0.000012  -0.000475   0.000822   0.000038
     2  C   -0.000076   0.001641  -0.001712   0.002207  -0.000357  -0.032753
     3  C    0.339979   0.000000   0.000001   0.248685  -0.040544  -0.037080
     4  C   -0.054796   0.000081  -0.000011  -0.044383   0.006244   0.236225
     5  C   -0.044776   0.000047   0.000001  -0.019147  -0.018400   0.001832
     6  C    0.000846  -0.038542  -0.001147   0.000624   0.000012   0.003617
     7  H    0.006875  -0.000011   0.000001   0.005103  -0.000052  -0.039843
     8  H    0.000010   0.002538   0.004497   0.000012   0.000003  -0.000072
     9  H    0.002639   0.000150   0.000158  -0.000023   0.000009   0.002097
    10  C    0.000020   0.216212  -0.029429  -0.000001  -0.000001  -0.000054
    11  H   -0.000006  -0.034151   0.006846   0.000000   0.000000  -0.000002
    12  H   -0.000000  -0.025927  -0.008022  -0.000000   0.000000   0.000000
    13  H    0.634657  -0.000000  -0.000000  -0.039401   0.001754   0.004165
    14  O   -0.000000   8.229984   0.235029   0.000000  -0.000000  -0.000000
    15  H   -0.000000   0.235029   0.390453  -0.000000  -0.000000   0.000000
    16  O   -0.039401   0.000000  -0.000000   8.273131   0.235946   0.001101
    17  H    0.001754  -0.000000  -0.000000   0.235946   0.361704  -0.000134
    18  O    0.004165  -0.000000   0.000000   0.001101  -0.000134   8.280765
    19  H   -0.000248   0.000006  -0.000001  -0.000155   0.000014   0.235140
    20  O   -0.000127  -0.012096   0.001981  -0.000009   0.000001  -0.007457
    21  H    0.000008   0.043160  -0.002301   0.000001  -0.000000   0.000121
    22  H    0.002570  -0.000041  -0.000000   0.003018   0.001634   0.000032
    23  O   -0.000860   0.000000  -0.000000  -0.017276   0.037665  -0.000008
    24  O    0.000002   0.000000  -0.000000  -0.000002   0.000045  -0.000000
    25  H   -0.000222  -0.000000   0.000000   0.000054  -0.000182   0.000000
    26  H   -0.000001   0.000000   0.000000   0.000000  -0.000012   0.000000
    27  H   -0.000000  -0.000000   0.000000   0.000000  -0.000007   0.000000
    28  O    0.000001   0.000008   0.000001   0.000000   0.000002   0.000000
    29  H   -0.000033  -0.000025  -0.000013  -0.000042  -0.000007   0.000000
    30  H   -0.000000  -0.000001  -0.000000   0.000000   0.000001  -0.000000
              19         20         21         22         23         24
     1  O   -0.000010   0.001464   0.000029  -0.052727  -0.045391  -0.000654
     2  C   -0.013985   0.221749  -0.021451  -0.002868   0.000188   0.000000
     3  C    0.006597   0.002300  -0.000198  -0.061796  -0.036645  -0.000088
     4  C   -0.031107  -0.037189   0.005283   0.001346   0.001670   0.000001
     5  C   -0.000276   0.000221   0.000010   0.358195   0.307116   0.003973
     6  C    0.000826  -0.041390  -0.005093   0.005800   0.001806   0.000015
     7  H   -0.001870  -0.001426  -0.000237  -0.000005  -0.000083  -0.000000
     8  H    0.000021   0.004508  -0.000249  -0.000400  -0.000068   0.000000
     9  H    0.000019  -0.040689  -0.004449   0.000921   0.000043  -0.000000
    10  C   -0.000015   0.000257  -0.004207   0.000936  -0.000016  -0.000017
    11  H    0.000000   0.000064  -0.000056   0.000592  -0.000028   0.000008
    12  H    0.000000  -0.000216   0.000449  -0.000022   0.000003   0.000013
    13  H   -0.000248  -0.000127   0.000008   0.002570  -0.000860   0.000002
    14  O    0.000006  -0.012096   0.043160  -0.000041   0.000000   0.000000
    15  H   -0.000001   0.001981  -0.002301  -0.000000  -0.000000  -0.000000
    16  O   -0.000155  -0.000009   0.000001   0.003018  -0.017276  -0.000002
    17  H    0.000014   0.000001  -0.000000   0.001634   0.037665   0.000045
    18  O    0.235140  -0.007457   0.000121   0.000032  -0.000008  -0.000000
    19  H    0.371324   0.025305  -0.000543   0.000003   0.000001   0.000000
    20  O    0.025305   8.329025   0.223451   0.000006  -0.000000   0.000000
    21  H   -0.000543   0.223451   0.354495  -0.000011  -0.000000  -0.000000
    22  H    0.000003   0.000006  -0.000011   0.655562  -0.047307   0.001415
    23  O    0.000001  -0.000000  -0.000000  -0.047307   8.367914  -0.082372
    24  O    0.000000   0.000000  -0.000000   0.001415  -0.082372   8.444891
    25  H   -0.000000  -0.000000   0.000000  -0.004177   0.166736   0.123414
    26  H   -0.000000  -0.000000   0.000000  -0.000193   0.008191   0.173617
    27  H   -0.000000  -0.000000   0.000000  -0.000047   0.004055   0.233326
    28  O   -0.000000   0.000000  -0.000000  -0.000178  -0.001953  -0.081896
    29  H    0.000000  -0.000009   0.000002   0.000957   0.005044   0.006452
    30  H    0.000000  -0.000000   0.000000   0.000007   0.000246   0.004235
              25         26         27         28         29         30
     1  O    0.003533   0.002226   0.000023  -0.073043   0.074620   0.003470
     2  C    0.000014   0.000002  -0.000000  -0.000053   0.001191   0.000003
     3  C    0.003059   0.000068  -0.000001  -0.000041   0.000433  -0.000001
     4  C   -0.000010  -0.000002  -0.000000   0.000003   0.000028  -0.000000
     5  C   -0.017087  -0.000288  -0.000142   0.003432  -0.003163  -0.000221
     6  C   -0.000198  -0.000118   0.000001   0.004076  -0.005126  -0.000011
     7  H   -0.000000   0.000000   0.000000   0.000001  -0.000035  -0.000000
     8  H    0.000008   0.000001  -0.000000   0.000071  -0.001085   0.000036
     9  H    0.000000  -0.000000   0.000000   0.000004  -0.000093  -0.000000
    10  C    0.000001   0.000088   0.000000  -0.001233  -0.001142  -0.000065
    11  H    0.000005   0.000016  -0.000000   0.000048  -0.000416   0.000003
    12  H   -0.000010   0.000024  -0.000001   0.006087   0.002303  -0.000059
    13  H   -0.000222  -0.000001  -0.000000   0.000001  -0.000033  -0.000000
    14  O   -0.000000   0.000000  -0.000000   0.000008  -0.000025  -0.000001
    15  H    0.000000   0.000000   0.000000   0.000001  -0.000013  -0.000000
    16  O    0.000054   0.000000   0.000000   0.000000  -0.000042   0.000000
    17  H   -0.000182  -0.000012  -0.000007   0.000002  -0.000007   0.000001
    18  O    0.000000   0.000000   0.000000   0.000000   0.000000  -0.000000
    19  H   -0.000000  -0.000000  -0.000000  -0.000000   0.000000   0.000000
    20  O   -0.000000  -0.000000  -0.000000   0.000000  -0.000009  -0.000000
    21  H    0.000000   0.000000   0.000000  -0.000000   0.000002   0.000000
    22  H   -0.004177  -0.000193  -0.000047  -0.000178   0.000957   0.000007
    23  O    0.166736   0.008191   0.004055  -0.001953   0.005044   0.000246
    24  O    0.123414   0.173617   0.233326  -0.081896   0.006452   0.004235
    25  H    0.284603  -0.012678  -0.006327   0.004914  -0.000645  -0.000075
    26  H   -0.012678   0.304058  -0.004480   0.099097  -0.008033  -0.006100
    27  H   -0.006327  -0.004480   0.372534   0.003665  -0.000217  -0.000253
    28  O    0.004914   0.099097   0.003665   8.460912   0.174673   0.234160
    29  H   -0.000645  -0.008033  -0.000217   0.174673   0.298683  -0.007175
    30  H   -0.000075  -0.006100  -0.000253   0.234160  -0.007175   0.377100
 Mulliken charges:
               1
     1  O   -0.615348
     2  C    0.076720
     3  C    0.133087
     4  C    0.146037
     5  C    0.324719
     6  C    0.136662
     7  H    0.142605
     8  H    0.135372
     9  H    0.121436
    10  C   -0.084051
    11  H    0.161733
    12  H    0.160497
    13  H    0.144058
    14  O   -0.619535
    15  H    0.403656
    16  O   -0.648971
    17  H    0.413839
    18  O   -0.647732
    19  H    0.408953
    20  O   -0.669728
    21  H    0.411786
    22  H    0.136781
    23  O   -0.668671
    24  O   -0.826378
    25  H    0.455270
    26  H    0.444518
    27  H    0.397870
    28  O   -0.832759
    29  H    0.462872
    30  H    0.394701
 Sum of Mulliken charges =  -0.00000
 Mulliken charges with hydrogens summed into heavy atoms:
               1
     1  O   -0.615348
     2  C    0.198156
     3  C    0.277145
     4  C    0.288642
     5  C    0.461500
     6  C    0.272034
    10  C    0.238179
    14  O   -0.215879
    16  O   -0.235132
    18  O   -0.238779
    20  O   -0.257942
    23  O   -0.213401
    24  O    0.016010
    28  O    0.024815
 Electronic spatial extent (au):  <R**2>=           3297.4745
 Charge=             -0.0000 electrons
 Dipole moment (field-independent basis, Debye):
    X=             -2.6875    Y=              3.8295    Z=              1.4943  Tot=              4.9113
 Quadrupole moment (field-independent basis, Debye-Ang):
   XX=            -72.6001   YY=            -92.0401   ZZ=            -81.5209
   XY=              9.9026   XZ=             -4.1736   YZ=              7.8182
 Traceless Quadrupole moment (field-independent basis, Debye-Ang):
   XX=              9.4536   YY=             -9.9864   ZZ=              0.5328
   XY=              9.9026   XZ=             -4.1736   YZ=              7.8182
 Octapole moment (field-independent basis, Debye-Ang**2):
  XXX=            -89.3702  YYY=             42.3473  ZZZ=             11.8188  XYY=             -5.0659
  XXY=             -0.9390  XXZ=             26.5163  XZZ=             -9.7206  YZZ=              8.6116
  YYZ=             15.2631  XYZ=              1.5945
 Hexadecapole moment (field-independent basis, Debye-Ang**3):
 XXXX=          -1524.2164 YYYY=          -1590.3510 ZZZZ=           -235.8114 XXXY=             66.8739
 XXXZ=            -68.9932 YYYX=            111.0469 YYYZ=             82.9812 ZZZX=            -35.9687
 ZZZY=             15.0077 XXYY=           -607.0480 XXZZ=           -369.1103 YYZZ=           -295.2075
 XXYZ=             23.6719 YYXZ=             31.9012 ZZXY=              0.7166
 N-N= 1.103979922626D+03 E-N=-4.180531402607D+03  KE= 8.329887661163D+02
 Calling FoFJK, ICntrl=      2127 FMM=F ISym2X=0 I1Cent= 0 IOpClX= 0 NMat=1 NMatS=1 NMatT=0.
 ***** Axes restored to original set *****
 -------------------------------------------------------------------
 Center     Atomic                   Forces (Hartrees/Bohr)
 Number     Number              X              Y              Z
 -------------------------------------------------------------------
      1        8           0.003218389   -0.019380875   -0.013206316
      2        6           0.001845605    0.000038690   -0.000529315
      3        6          -0.001369670    0.000692404   -0.001463024
      4        6           0.000116868   -0.000688019   -0.000509886
      5        6           0.013106006    0.019194193    0.011304724
      6        6           0.000064771   -0.004622942   -0.003605509
      7        1          -0.000079690   -0.000033588   -0.000024603
      8        1          -0.000826151   -0.000662363   -0.000028456
      9        1           0.000162351   -0.000023957   -0.000042860
     10        6          -0.001102020   -0.001232230   -0.000133435
     11        1          -0.000073118    0.000096704   -0.000036908
     12        1          -0.000108562   -0.000262380    0.000125698
     13        1          -0.000497809    0.000025663   -0.000113944
     14        8          -0.000305599   -0.001054460    0.000651427
     15        1          -0.000116022    0.000116289   -0.000012567
     16        8           0.000352600    0.000468080    0.001002238
     17        1           0.000126108   -0.001224887    0.000026293
     18        8          -0.000564653   -0.000283419    0.000093053
     19        1          -0.000024677   -0.000011192   -0.000095467
     20        8           0.001145620   -0.000324970   -0.000257572
     21        1           0.000017861    0.000043914    0.000159328
     22        1           0.000012926   -0.000195539   -0.000026656
     23        8           0.009388395   -0.008700451    0.006444042
     24        8          -0.014951047    0.000350169   -0.014745555
     25        1           0.001881533   -0.002021967   -0.000083447
     26        1          -0.002524856    0.000765215   -0.002262179
     27        1          -0.000975324    0.000631467   -0.000149169
     28        8          -0.006530139    0.016553981    0.015485727
     29        1          -0.001400103    0.000473855    0.000871149
     30        1           0.000010409    0.001272616    0.001163188
 -------------------------------------------------------------------
 Cartesian Forces:  Max     0.019380875 RMS     0.005283501

 GradGradGradGradGradGradGradGradGradGradGradGradGradGradGradGradGradGrad
 Berny optimization.
 FormGI is forming the generalized inverse of G from B-inverse, IUseBI=4.
 Internal  Forces:  Max     0.018722357 RMS     0.003576229
 Search for a local minimum.
 Step number   1 out of a maximum of  178
 All quantities printed in internal units (Hartrees-Bohrs-Radians)
 Mixed Optimization -- RFO/linear search
 Second derivative matrix not updated -- first step.
 ITU=  0
     Eigenvalues ---    0.00241   0.00249   0.00315   0.00502   0.00641
     Eigenvalues ---    0.00655   0.00867   0.01213   0.01228   0.01390
     Eigenvalues ---    0.01452   0.01548   0.02140   0.02706   0.03132
     Eigenvalues ---    0.04173   0.04282   0.04393   0.04555   0.04708
     Eigenvalues ---    0.04781   0.04845   0.05070   0.05381   0.05406
     Eigenvalues ---    0.05676   0.05706   0.06248   0.06471   0.06603
     Eigenvalues ---    0.07039   0.07161   0.07397   0.07918   0.10025
     Eigenvalues ---    0.10560   0.11075   0.11539   0.12196   0.12484
     Eigenvalues ---    0.12767   0.13139   0.13875   0.14255   0.14581
     Eigenvalues ---    0.16000   0.16000   0.16000   0.16000   0.16392
     Eigenvalues ---    0.16648   0.17609   0.18958   0.19432   0.20614
     Eigenvalues ---    0.22016   0.22216   0.26425   0.27056   0.28259
     Eigenvalues ---    0.28544   0.28862   0.33330   0.33355   0.33611
     Eigenvalues ---    0.33650   0.33967   0.34015   0.34264   0.38659
     Eigenvalues ---    0.40112   0.40972   0.42039   0.42746   0.43380
     Eigenvalues ---    0.43863   0.44903   0.52419   0.52445   0.52775
     Eigenvalues ---    0.53265   0.53547   0.53740   0.55674
 RFO step:  Lambda=-1.13752386D-02 EMin= 2.40743718D-03
 Linear search not attempted -- first point.
 Iteration  1 RMS(Cart)=  0.04975603 RMS(Int)=  0.00116316
 Iteration  2 RMS(Cart)=  0.00186912 RMS(Int)=  0.00024043
 Iteration  3 RMS(Cart)=  0.00000323 RMS(Int)=  0.00024041
 Iteration  4 RMS(Cart)=  0.00000000 RMS(Int)=  0.00024041
 Variable       Old X    -DE/DX   Delta X   Delta X   Delta X     New X
                                 (Linear)    (Quad)   (Total)
    R1        3.02111  -0.01747   0.00000  -0.08155  -0.08196   2.93915
    R2        2.70861  -0.00156   0.00000  -0.00277  -0.00284   2.70576
    R3        2.73955   0.01872   0.00000   0.13732   0.13750   2.87706
    R4        2.89166  -0.00139   0.00000  -0.00598  -0.00601   2.88565
    R5        2.89668   0.00059   0.00000   0.00818   0.00816   2.90484
    R6        2.08433   0.00002   0.00000   0.00006   0.00006   2.08439
    R7        2.68874   0.00095   0.00000   0.00221   0.00221   2.69095
    R8        2.91573  -0.00345   0.00000  -0.01016  -0.01004   2.90569
    R9        2.90971  -0.00041   0.00000  -0.00189  -0.00180   2.90791
   R10        2.08476   0.00000   0.00000   0.00000   0.00000   2.08476
   R11        2.66619   0.00107   0.00000   0.00238   0.00238   2.66857
   R12        2.07991  -0.00003   0.00000  -0.00008  -0.00008   2.07983
   R13        2.67984  -0.00029   0.00000  -0.00065  -0.00065   2.67919
   R14        2.07304  -0.00006   0.00000  -0.00018  -0.00018   2.07286
   R15        2.53146   0.00168   0.00000   0.00145   0.00121   2.53267
   R16        2.07924  -0.00039   0.00000  -0.00113  -0.00113   2.07811
   R17        2.90962  -0.00211   0.00000  -0.00710  -0.00710   2.90252
   R18        2.06887   0.00004   0.00000   0.00012   0.00012   2.06900
   R19        2.07385  -0.00000   0.00000   0.00002   0.00003   2.07387
   R20        2.71401  -0.00088   0.00000  -0.00213  -0.00213   2.71188
   R21        1.83407   0.00001   0.00000   0.00002   0.00002   1.83408
   R22        1.84176  -0.00011   0.00000  -0.00021  -0.00021   1.84155
   R23        1.83865  -0.00004   0.00000  -0.00007  -0.00007   1.83857
   R24        1.84200  -0.00001   0.00000  -0.00002  -0.00002   1.84198
   R25        1.94598   0.01309   0.00000   0.02853   0.02819   1.97416
   R26        2.69563   0.01533   0.00000   0.10232   0.10203   2.79766
   R27        1.92345   0.01337   0.00000   0.03135   0.03173   1.95518
   R28        1.82969   0.00065   0.00000   0.00118   0.00118   1.83087
   R29        2.74457   0.01543   0.00000   0.12000   0.12046   2.86503
   R30        1.91022   0.01677   0.00000   0.03672   0.03697   1.94718
   R31        1.83146   0.00075   0.00000   0.00138   0.00138   1.83284
    A1        2.05584  -0.00487   0.00000  -0.02981  -0.02963   2.02621
    A2        1.96822   0.00544   0.00000   0.02576   0.02536   1.99358
    A3        2.03981  -0.00056   0.00000   0.00142   0.00176   2.04156
    A4        1.93502  -0.00125   0.00000  -0.00615  -0.00615   1.92887
    A5        1.89376   0.00079   0.00000   0.00023   0.00022   1.89399
    A6        1.87099  -0.00055   0.00000  -0.00067  -0.00068   1.87031
    A7        1.91950  -0.00075   0.00000  -0.00257  -0.00270   1.91680
    A8        1.93344   0.00210   0.00000   0.00932   0.00944   1.94287
    A9        1.91006  -0.00034   0.00000  -0.00022  -0.00022   1.90984
   A10        1.96143  -0.00072   0.00000  -0.00046  -0.00034   1.96109
   A11        1.86718  -0.00089   0.00000  -0.00063  -0.00054   1.86665
   A12        1.91169   0.00065   0.00000  -0.00521  -0.00538   1.90631
   A13        1.86880   0.00086   0.00000  -0.00264  -0.00264   1.86616
   A14        1.91849   0.00023   0.00000   0.00930   0.00925   1.92774
   A15        1.93557  -0.00018   0.00000  -0.00060  -0.00059   1.93498
   A16        1.95713  -0.00312   0.00000  -0.01257  -0.01242   1.94471
   A17        1.89141   0.00188   0.00000   0.00199   0.00193   1.89334
   A18        1.91226   0.00014   0.00000   0.00644   0.00634   1.91860
   A19        1.86855   0.00004   0.00000  -0.00094  -0.00110   1.86746
   A20        1.89806   0.00153   0.00000   0.00182   0.00190   1.89996
   A21        1.93647  -0.00051   0.00000   0.00308   0.00309   1.93956
   A22        1.85030   0.00497   0.00000   0.02778   0.02809   1.87839
   A23        1.80525   0.00030   0.00000   0.00506   0.00492   1.81017
   A24        1.88932  -0.00146   0.00000  -0.01224  -0.01286   1.87646
   A25        1.96946  -0.00098   0.00000  -0.00047  -0.00069   1.96877
   A26        1.94614  -0.00364   0.00000  -0.02091  -0.02071   1.92543
   A27        1.99036   0.00146   0.00000   0.00449   0.00469   1.99505
   A28        1.91346   0.00351   0.00000   0.02744   0.02722   1.94068
   A29        1.86752  -0.00045   0.00000  -0.01045  -0.01048   1.85704
   A30        1.95010  -0.00307   0.00000  -0.01672  -0.01668   1.93342
   A31        1.86779  -0.00106   0.00000  -0.00034  -0.00013   1.86766
   A32        1.95528  -0.00004   0.00000  -0.00186  -0.00180   1.95348
   A33        1.90575   0.00117   0.00000   0.00201   0.00182   1.90756
   A34        1.91679   0.00044   0.00000   0.00295   0.00296   1.91975
   A35        1.93377   0.00003   0.00000  -0.00168  -0.00169   1.93208
   A36        1.94218  -0.00137   0.00000  -0.00629  -0.00630   1.93588
   A37        1.87926  -0.00011   0.00000   0.00085   0.00085   1.88010
   A38        1.84554   0.00051   0.00000   0.00338   0.00339   1.84893
   A39        1.94313   0.00058   0.00000   0.00134   0.00132   1.94445
   A40        1.87897  -0.00008   0.00000  -0.00048  -0.00048   1.87849
   A41        1.83636   0.00147   0.00000   0.00859   0.00859   1.84496
   A42        1.83907   0.00007   0.00000   0.00041   0.00041   1.83948
   A43        1.84137   0.00013   0.00000   0.00077   0.00077   1.84215
   A44        1.95830   0.00260   0.00000   0.00136   0.00067   1.95897
   A45        1.70403  -0.00381   0.00000  -0.02745  -0.02719   1.67684
   A46        1.91732   0.00230   0.00000   0.01159   0.01151   1.92883
   A47        1.88468  -0.00079   0.00000  -0.00222  -0.00185   1.88283
   A48        2.83193  -0.00176   0.00000  -0.00885  -0.00851   2.82341
   A49        1.76506  -0.00616   0.00000  -0.03358  -0.03262   1.73244
   A50        1.91273   0.00187   0.00000   0.01542   0.01635   1.92908
   A51        1.83323   0.00139   0.00000   0.01019   0.01006   1.84328
   A52        3.01495   0.00197   0.00000  -0.00989  -0.01051   3.00444
   A53        3.16822  -0.00107   0.00000  -0.05623  -0.05631   3.11191
   A54        3.30257  -0.00378   0.00000  -0.09231  -0.09190   3.21066
   A55        3.02741   0.00136   0.00000  -0.04546  -0.04527   2.98214
    D1        1.10901   0.00047   0.00000  -0.00494  -0.00478   1.10423
    D2       -0.96675  -0.00071   0.00000  -0.01873  -0.01891  -0.98567
    D3       -3.08413  -0.00186   0.00000  -0.02073  -0.02075  -3.10488
    D4       -2.71610   0.00046   0.00000  -0.00680  -0.00669  -2.72278
    D5        1.49133  -0.00072   0.00000  -0.02059  -0.02082   1.47051
    D6       -0.62604  -0.00187   0.00000  -0.02259  -0.02266  -0.64871
    D7       -0.39901   0.00064   0.00000   0.00984   0.01007  -0.38894
    D8       -2.41871   0.00035   0.00000   0.00189   0.00208  -2.41663
    D9        1.77939   0.00098   0.00000   0.01566   0.01563   1.79502
   D10       -2.82934  -0.00156   0.00000   0.00311   0.00340  -2.82594
   D11        1.43415  -0.00185   0.00000  -0.00484  -0.00459   1.42955
   D12       -0.65094  -0.00122   0.00000   0.00893   0.00896  -0.64198
   D13       -0.11329   0.00101   0.00000   0.00942   0.00901  -0.10428
   D14        1.86483   0.00122   0.00000   0.02421   0.02376   1.88859
   D15        2.32125  -0.00063   0.00000  -0.02849  -0.02894   2.29231
   D16       -1.98382  -0.00042   0.00000  -0.01370  -0.01418  -1.99800
   D17        1.11955  -0.00187   0.00000  -0.02469  -0.02492   1.09462
   D18       -0.93918  -0.00126   0.00000  -0.01737  -0.01750  -0.95669
   D19       -3.05434  -0.00189   0.00000  -0.02623  -0.02636  -3.08070
   D20       -0.99015  -0.00067   0.00000  -0.01786  -0.01797  -1.00813
   D21       -3.04888  -0.00007   0.00000  -0.01053  -0.01055  -3.05943
   D22        1.11915  -0.00069   0.00000  -0.01940  -0.01941   1.09973
   D23       -3.05133  -0.00039   0.00000  -0.01735  -0.01746  -3.06879
   D24        1.17313   0.00022   0.00000  -0.01003  -0.01004   1.16308
   D25       -0.94203  -0.00041   0.00000  -0.01889  -0.01890  -0.96093
   D26       -0.69027  -0.00089   0.00000  -0.00097  -0.00101  -0.69128
   D27        1.32926  -0.00021   0.00000   0.00056   0.00061   1.32987
   D28       -2.86567   0.00052   0.00000   0.00172   0.00171  -2.86396
   D29        1.40414  -0.00119   0.00000  -0.00630  -0.00636   1.39777
   D30       -2.85952  -0.00051   0.00000  -0.00477  -0.00474  -2.86426
   D31       -0.77126   0.00022   0.00000  -0.00361  -0.00365  -0.77490
   D32       -2.76529  -0.00075   0.00000  -0.00219  -0.00225  -2.76754
   D33       -0.74576  -0.00006   0.00000  -0.00066  -0.00063  -0.74639
   D34        1.34250   0.00066   0.00000   0.00050   0.00047   1.34297
   D35        3.08970   0.00045   0.00000   0.00419   0.00417   3.09387
   D36       -1.08018  -0.00019   0.00000   0.00176   0.00180  -1.07839
   D37        1.03915   0.00000   0.00000   0.00442   0.00440   1.04355
   D38       -0.35846  -0.00141   0.00000   0.00450   0.00441  -0.35405
   D39        1.71380  -0.00088   0.00000  -0.00086  -0.00095   1.71284
   D40       -2.47594  -0.00062   0.00000   0.00327   0.00315  -2.47279
   D41        1.68782  -0.00131   0.00000   0.00065   0.00068   1.68850
   D42       -2.52311  -0.00078   0.00000  -0.00471  -0.00468  -2.52779
   D43       -0.42966  -0.00052   0.00000  -0.00059  -0.00058  -0.43025
   D44       -2.49622  -0.00168   0.00000  -0.00336  -0.00334  -2.49956
   D45       -0.42396  -0.00115   0.00000  -0.00872  -0.00870  -0.43267
   D46        1.66948  -0.00089   0.00000  -0.00459  -0.00460   1.66488
   D47       -0.62663  -0.00295   0.00000  -0.02235  -0.02250  -0.64914
   D48        1.33737  -0.00020   0.00000  -0.00059  -0.00047   1.33690
   D49       -2.67912  -0.00222   0.00000  -0.01312  -0.01243  -2.69155
   D50       -2.67195  -0.00200   0.00000  -0.01969  -0.02003  -2.69198
   D51       -0.70794   0.00074   0.00000   0.00207   0.00201  -0.70594
   D52        1.55875  -0.00128   0.00000  -0.01047  -0.00996   1.54879
   D53        1.50728  -0.00244   0.00000  -0.02269  -0.02301   1.48428
   D54       -2.81190   0.00030   0.00000  -0.00093  -0.00097  -2.81287
   D55       -0.54520  -0.00172   0.00000  -0.01346  -0.01294  -0.55814
   D56        2.64135   0.00071   0.00000   0.02269   0.02267   2.66402
   D57        0.47820   0.00102   0.00000   0.02054   0.02054   0.49875
   D58       -1.58493  -0.00008   0.00000   0.01833   0.01835  -1.56659
   D59        0.81430   0.00158   0.00000   0.00435   0.00428   0.81858
   D60        2.95902  -0.00121   0.00000  -0.00594  -0.00584   2.95319
   D61       -1.27342  -0.00052   0.00000  -0.00418  -0.00421  -1.27762
   D62        1.28748   0.00077   0.00000   0.00603   0.00542   1.29290
   D63       -2.96691   0.00388   0.00000   0.02061   0.02024  -2.94668
   D64       -0.71119   0.00051   0.00000   0.00510   0.00498  -0.70621
   D65       -1.09458  -0.00144   0.00000  -0.02131  -0.02118  -1.11576
   D66        0.97930  -0.00128   0.00000  -0.01944  -0.01931   0.95998
   D67       -3.13201  -0.00152   0.00000  -0.02352  -0.02338   3.12779
   D68        1.06035   0.00083   0.00000   0.00076   0.00060   1.06095
   D69        3.13423   0.00099   0.00000   0.00263   0.00247   3.13670
   D70       -0.97708   0.00075   0.00000  -0.00145  -0.00160  -0.97868
   D71        3.12623   0.00024   0.00000   0.00049   0.00051   3.12674
   D72       -1.08308   0.00040   0.00000   0.00236   0.00238  -1.08070
   D73        1.08880   0.00017   0.00000  -0.00172  -0.00169   1.08710
   D74       -1.33204   0.00012   0.00000  -0.00125  -0.00125  -1.33330
   D75        2.87066   0.00003   0.00000  -0.00344  -0.00344   2.86722
   D76        0.83454  -0.00043   0.00000  -0.00709  -0.00709   0.82745
   D77       -1.13248  -0.00228   0.00000  -0.03161  -0.03073  -1.16320
   D78       -3.06081  -0.00094   0.00000  -0.03455  -0.03419  -3.09500
   D79        0.36700  -0.00133   0.00000  -0.01400  -0.01416   0.35284
   D80        2.35344  -0.00063   0.00000  -0.01337  -0.01323   2.34022
   D81        0.02614  -0.00078   0.00000  -0.00074  -0.00086   0.02528
   D82       -1.90295  -0.00018   0.00000  -0.00217  -0.00253  -1.90547
         Item               Value     Threshold  Converged?
 Maximum Force            0.018722     0.000450     NO 
 RMS     Force            0.003576     0.000300     NO 
 Maximum Displacement     0.254470     0.001800     NO 
 RMS     Displacement     0.049990     0.001200     NO 
 Predicted change in Energy=-6.185166D-03
 GradGradGradGradGradGradGradGradGradGradGradGradGradGradGradGradGradGrad

                          Input orientation:                          
 ---------------------------------------------------------------------
 Center     Atomic      Atomic             Coordinates (Angstroms)
 Number     Number       Type             X           Y           Z
 ---------------------------------------------------------------------
      1          8           0       -0.643749    0.305114    0.565491
      2          6           0        1.661236    0.198884   -0.259196
      3          6           0        0.247156   -1.900526   -0.194522
      4          6           0        1.592249   -1.260126    0.186138
      5          6           0       -0.848113   -0.851327   -0.454279
      6          6           0        0.585065    1.031806    0.455647
      7          1           0        1.665372   -1.293673    1.283793
      8          1           0        0.938805    1.200729    1.483094
      9          1           0        1.502869    0.240065   -1.350001
     10          6           0        0.357454    2.386283   -0.231897
     11          1           0        0.019185    2.231266   -1.261595
     12          1           0       -0.417085    2.961522    0.291152
     13          1           0        0.405328   -2.441223   -1.143047
     14          8           0        1.584045    3.125072   -0.327127
     15          1           0        1.775433    3.491470    0.550997
     16          8           0       -0.151935   -2.787309    0.829439
     17          1           0       -1.125155   -2.816435    0.788759
     18          8           0        2.639559   -2.000002   -0.418663
     19          1           0        3.440619   -1.461764   -0.295391
     20          8           0        2.969406    0.670401    0.047573
     21          1           0        3.001853    1.585960   -0.285297
     22          1           0       -0.743313   -0.359837   -1.429302
     23          8           0       -2.059825   -1.377989   -0.229330
     24          8           0       -3.810749    0.282632   -0.948064
     25          1           0       -2.829363   -0.759937   -0.571655
     26          1           0       -3.551134    0.951621   -0.202727
     27          1           0       -4.713667   -0.021978   -0.773034
     28          8           0       -2.770493    1.666346    0.882790
     29          1           0       -1.901104    1.114079    0.852820
     30          1           0       -3.160736    1.491787    1.753389
 ---------------------------------------------------------------------
                    Distance matrix (angstroms):
                    1          2          3          4          5
     1  O    0.000000
     2  C    2.450377   0.000000
     3  C    2.497235   2.532060   0.000000
     4  C    2.755644   1.527020   1.537625   0.000000
     5  C    1.555330   2.727239   1.538800   2.555898   0.000000
     6  C    1.431828   1.537174   3.022495   2.517937   2.535380
     7  H    2.898986   2.146755   2.136592   1.100599   3.087745
     8  H    2.036811   2.135690   3.593126   2.857427   3.340272
     9  H    2.877727   1.103011   2.737531   2.149019   2.742366
    10  C    2.443256   2.546627   4.288391   3.872438   3.461931
    11  H    2.736382   2.798519   4.273444   4.093932   3.302476
    12  H    2.680139   3.500639   4.931188   4.676619   3.908871
    13  H    3.400299   3.054286   1.103210   2.137874   2.138524
    14  O    3.702972   2.927994   5.202066   4.415141   4.662972
    15  H    4.000690   3.392724   5.653764   4.769103   5.172374
    16  O    3.142393   3.659243   1.412145   2.405889   2.424999
    17  H    3.166333   4.237254   1.920668   3.188970   2.341696
    18  O    4.130646   2.411979   2.404938   1.417766   3.672136
    19  H    4.532664   2.434188   3.225042   1.920677   4.334871
    20  O    3.668319   1.423990   3.752189   2.375436   4.140165
    21  H    3.956617   1.929227   4.444343   3.210831   4.559732
    22  H    2.105059   2.731881   2.208944   2.979097   1.096912
    23  O    2.338771   4.041499   2.365675   3.677520   1.340232
    24  O    3.510163   5.515811   4.669111   5.732269   3.210436
    25  H    2.684090   4.602438   3.302747   4.513877   1.986827
    26  H    3.075876   5.266744   4.749928   5.612257   3.258868
    27  H    4.296844   6.399390   5.336045   6.497507   3.966350
    28  O    2.544930   4.806017   4.794725   5.299347   3.438310
    29  H    1.522472   3.842450   3.847049   4.276076   2.584592
    30  H    3.025643   5.382704   5.188051   5.711407   3.963862
                    6          7          8          9         10
     6  C    0.000000
     7  H    2.694576   0.000000
     8  H    1.099688   2.605697   0.000000
     9  H    2.174761   3.052152   3.044252   0.000000
    10  C    1.535947   4.189277   2.164418   2.677384   0.000000
    11  H    2.169757   4.649099   3.072625   2.484757   1.094866
    12  H    2.180635   4.840315   2.521816   3.712942   1.097447
    13  H    3.827540   2.965491   4.521618   2.904605   4.912973
    14  O    2.447950   4.703933   2.719620   3.062047   1.435063
    15  H    2.734230   4.842178   2.610795   3.776204   1.960874
    16  O    3.907497   2.395828   4.185860   4.080849   5.305843
    17  H    4.224307   3.217282   4.569423   4.563222   5.505283
    18  O    3.765265   2.084777   4.093155   2.679058   4.947968
    19  H    3.864731   2.381928   4.063367   2.786270   4.931269
    20  O    2.445858   2.662016   2.542697   2.071023   3.137619
    21  H    2.587847   3.541258   2.744408   2.278592   2.763371
    22  H    2.693379   3.746291   3.707686   2.326264   3.191652
    23  O    3.643041   4.021660   4.309752   4.070233   4.473588
    24  O    4.674917   6.119953   5.414027   5.328968   4.723574
    25  H    3.990489   4.891850   4.718611   4.513763   4.491095
    26  H    4.189036   5.870521   4.802457   5.231204   4.163672
    27  H    5.540458   6.822014   6.207702   6.248750   5.639930
    28  O    3.441636   5.347842   3.786298   5.028047   3.397777
    29  H    2.519037   4.324668   2.910298   4.147693   2.810018
    30  H    3.990832   5.592014   4.118739   5.739952   4.137529
                   11         12         13         14         15
    11  H    0.000000
    12  H    1.770488   0.000000
    13  H    4.689916   5.650040   0.000000
    14  O    2.030001   2.100842   5.747934   0.000000
    15  H    2.820994   2.270572   6.320112   0.970555   0.000000
    16  O    5.439467   5.780062   2.078706   6.269571   6.573838
    17  H    5.567113   5.842411   2.492997   6.624686   6.946913
    18  O    5.047823   5.870573   2.389812   5.233438   5.642979
    19  H    5.126230   5.898422   3.300130   4.948428   5.293746
    20  O    3.585251   4.095960   4.204079   2.843420   3.104422
    21  H    3.204041   3.730094   4.867842   2.093035   2.415463
    22  H    2.706168   3.754706   2.394470   4.333126   5.009813
    23  O    4.291222   4.669139   2.835900   5.793524   6.247380
    24  O    4.308581   4.497674   5.023217   6.129342   6.614322
    25  H    4.187785   4.518050   3.690046   5.884833   6.367021
    26  H    3.937749   3.755780   5.296148   5.577583   5.949054
    27  H    5.264570   5.338013   5.673955   7.054356   7.497052
    28  O    3.563682   2.750645   5.573328   4.749083   4.909848
    29  H    3.066981   2.435330   4.684366   4.193165   4.388623
    30  H    4.443969   3.438878   6.047704   5.432230   5.459876
                   16         17         18         19         20
    16  O    0.000000
    17  H    0.974505   0.000000
    18  O    3.157539   4.037016   0.000000
    19  H    3.991085   4.884343   0.972930   0.000000
    20  O    4.723330   5.428887   2.730792   2.210384   0.000000
    21  H    5.505860   6.129181   3.606683   3.079163   0.974733
    22  H    3.368124   3.331737   3.892989   4.472728   4.126359
    23  O    2.597541   1.994803   4.744150   5.501479   5.437440
[...]
 58,0.00030211,0.00018236,-0.00015434,0.00023188,-0.00005689,-0.0004153
 7,0.00039046,-0.00002433,0.00008516,-0.00013168,-0.00002223,0.00071823
 ,0.00016081,0.00020816,-0.00065430,0.00012956,-0.00099353,0.00021904,0
 .00018876,-0.00013074,0.00001699,-0.00005458,0.00000948,0.00007557,0.0
 0043264,0.00009455,0.00013303,-0.00018782,-0.00007083,0.00038186,0.000
 32679,-0.00058440,0.01780457,0.00136746,0.00519496,0.17583532,0.356342
 07,-0.00178638,-0.00034083,0.00074532,0.00016915,0.00007035,-0.0003098
 8,-0.00082336,-0.00072286,0.00020368,0.00018863,0.00006167,-0.00059182
 ,0.00278546,0.00269031,-0.00364100,0.00074125,0.00028439,0.00046799,-0
 .00016282,-0.00003641,0.00007327,-0.00001672,-0.00004389,-0.00000911,-
 0.00001751,-0.00002068,0.00007684,0.00039939,0.00016431,-0.00033143,-0
 .00008052,0.00000327,0.00008084,0.00006904,0.00023622,0.00006480,0.000
 02622,0.00005582,0.00003201,-0.00043600,-0.00034068,0.00000654,0.00010
 599,0.00008388,0.00004847,-0.00049034,0.00025342,0.00028860,0.00051701
 ,-0.00042656,0.00052181,-0.00028178,0.00020947,0.00041825,0.00003678,-
 0.00004351,-0.00007135,-0.00045955,-0.00010484,0.00014981,0.00012922,0
 .00003534,-0.00009026,-0.00071816,-0.00008417,0.00079069,-0.01205764,0
 .00448836,0.00108945,-0.05892010,0.18951072,0.22133711,0.00332529,0.00
 627713,0.00193824,-0.00037716,-0.00015735,0.00001552,-0.00297570,-0.00
 116126,0.00318372,-0.00084152,0.00054082,0.00001358,-0.04269796,0.0032
 0163,-0.01485876,-0.00210013,-0.00014659,-0.00116092,0.00005550,-0.000
 03348,0.00003276,0.00025391,0.00002748,0.00019354,0.00003662,-0.000002
 88,0.00006990,0.00055717,-0.00092323,0.00012432,0.00004430,-0.00000388
 ,-0.00005006,-0.00002490,0.00014737,0.00011409,0.00001207,0.00022507,-
 0.00011065,0.00025700,0.00104782,0.00012562,-0.00001583,-0.00028738,-0
 .00012571,0.00341310,-0.00082027,0.00154263,-0.00226797,0.00115698,-0.
 00341069,0.00057921,-0.00023618,-0.00039408,-0.00007025,0.00009149,0.0
 0008942,0.00094709,0.00049748,0.00001257,-0.00009538,-0.00025543,0.000
 01808,0.00360075,0.00104325,-0.00153484,-0.22338371,0.08008907,-0.1242
 9868,-0.00052402,-0.01191428,0.00470264,0.26221265,-0.00122531,-0.0039
 4983,-0.00014593,0.00025563,0.00038654,0.00029895,-0.00069904,0.000064
 77,0.00147321,0.00030974,0.00055921,-0.00025958,-0.00903034,0.01039759
 ,-0.01121499,0.00019274,-0.00103795,0.00006039,-0.00017575,-0.00007106
 ,0.00002485,0.00007356,0.00009066,0.00002138,-0.00003079,-0.00001838,-
 0.00004125,-0.00052586,0.00032611,-0.00007654,-0.00004320,-0.00000552,
 0.00004039,0.00000472,-0.00017353,-0.00011771,-0.00014879,0.00005714,-
 0.00008385,0.00016663,-0.00036816,-0.00000379,-0.00003668,0.00010287,0
 .00003045,-0.00074782,0.00037978,-0.00040621,0.00045366,-0.00110820,0.
 00063516,-0.00032278,-0.00014441,0.00012239,-0.00000582,0.00001678,-0.
 00000248,-0.00009249,-0.00038392,-0.00015348,-0.00008141,0.00013679,0.
 00004870,-0.00126310,-0.00108525,0.00138754,0.10083868,-0.07547811,0.0
 9310494,-0.00671292,-0.00979381,-0.00209160,-0.08272811,0.08354247,0.0
 0138133,0.00309132,0.00007244,-0.00018472,-0.00031434,0.00032981,0.005
 36357,0.00361777,-0.00288377,0.00039475,-0.00095248,0.00169981,0.01484
 898,-0.01251696,0.01267894,-0.00090507,0.00005437,-0.00086932,0.000670
 96,0.00016088,-0.00008660,0.00005193,0.00002799,0.00006666,-0.00000057
 ,0.00003953,-0.00008199,0.00020489,-0.00042757,0.00024627,0.00004743,0
 .00000653,-0.00005337,-0.00002446,0.00002015,0.00002912,-0.00022141,0.
 00020487,-0.00006017,0.00019534,0.00054016,0.00002739,-0.00003442,-0.0
 0013132,-0.00006336,-0.00093457,0.00005373,0.00013289,0.00003174,-0.00
 030897,0.00046344,0.00033174,-0.00014415,-0.00046172,-0.00003620,0.000
 01861,0.00003266,0.00045257,0.00030349,-0.00009522,-0.00005736,-0.0001
 1109,0.00002951,0.00201146,-0.00046837,-0.00027843,-0.16373164,0.09454
 326,-0.15625844,0.00160931,-0.00044698,-0.00914450,0.13337303,-0.08182
 980,0.15034741,0.00171293,-0.00118358,-0.00006215,-0.00012510,0.000167
 01,0.00024693,-0.00017885,-0.00005043,-0.00003970,-0.00013533,0.000250
 71,0.00006346,0.00016636,0.00281927,0.00039039,-0.00074218,-0.00076439
 ,-0.00048048,0.00000959,-0.00002692,0.00000239,0.00014537,0.00007986,0
 .00010991,-0.00000184,0.00000030,-0.00000301,-0.00048573,-0.00008480,0
 .00004869,-0.00001938,-0.00002805,0.00001802,-0.00006365,-0.00023150,-
 0.00009780,0.00007524,-0.00014216,0.00004104,0.00046115,0.00020321,0.0
 0009350,-0.00007195,-0.00005132,-0.00004440,0.00000483,-0.00028821,0.0
 0005356,0.00003947,0.00021350,-0.00000669,0.00012144,-0.00024029,-0.00
 015577,-0.00004909,0.00006988,0.00003351,0.00043050,-0.00007815,-0.000
 10223,-0.00015266,0.00000600,0.00006718,0.00012343,-0.00012566,-0.0000
 4937,-0.00283370,-0.00153249,-0.00213495,-0.06109330,-0.01589340,0.001
 46105,0.00465880,0.00427942,0.00492678,0.07795568,0.00069127,-0.003301
 74,-0.00123967,0.00001248,0.00016827,0.00015626,-0.00025150,-0.0005236
 8,0.00004609,0.00008031,0.00031135,-0.00021936,0.00412973,0.00382491,-
 0.00035442,0.00016549,-0.00014180,0.00003691,-0.00010443,-0.00004845,0
 .00002143,-0.00006157,0.00002869,-0.00002851,0.00000249,-0.00000641,-0
 .00002536,-0.00077579,0.00035573,0.00010061,-0.00001759,-0.00000736,0.
 00002071,-0.00000647,-0.00030955,-0.00017781,0.00008163,-0.00015276,0.
 00004089,0.00046291,-0.00023592,0.00001750,-0.00009618,0.00008635,0.00
 000330,-0.00037942,-0.00010367,-0.00027683,0.00033376,-0.00000384,0.00
 049870,-0.00008777,-0.00016623,-0.00000202,-0.00001902,0.00004519,0.00
 001000,0.00001890,-0.00027852,-0.00009763,-0.00012953,0.00014227,0.000
 07510,-0.00016971,-0.00035749,0.00001114,-0.00588954,0.00128174,-0.000
 95225,-0.05897599,-0.25865337,-0.17947550,0.00771098,-0.00858731,0.000
 94070,0.04916507,0.27591047,0.00177056,-0.00223715,-0.00170211,-0.0000
 4315,0.00014349,0.00033236,-0.00008686,-0.00024595,0.00010800,-0.00008
 240,0.00025022,0.00002537,0.00131294,0.00233575,0.00100525,-0.00035000
 ,-0.00040494,-0.00026166,-0.00003441,-0.00002564,-0.00000788,-0.000050
 73,0.00007171,-0.00002796,0.00001586,-0.00000469,-0.00007943,-0.000760
 05,0.00017529,0.00041230,0.00010233,-0.00001148,-0.00009119,-0.0001337
 6,-0.00045014,-0.00012985,0.00006840,-0.00014486,0.00001875,0.00051698
 ,0.00004623,-0.00005387,-0.00013887,0.00000535,-0.00002286,-0.00006846
 ,-0.00022256,-0.00036335,0.00001559,0.00023869,0.00024885,0.00006658,-
 0.00020080,-0.00018860,-0.00002822,0.00004692,0.00004444,0.00027367,-0
 .00014339,-0.00017286,-0.00015085,0.00006192,0.00010760,0.00017275,-0.
 00029376,-0.00030751,-0.00324708,-0.00064504,-0.00302804,-0.03211456,-
 0.19842238,-0.16713339,0.00501443,0.00077747,0.00561647,0.02108900,0.1
 8077623,0.16180770,0.00026736,0.00016018,-0.00005513,-0.00003564,-0.00
 002871,0.00001114,0.00004087,0.00008875,-0.00006489,-0.00003917,-0.000
 01018,0.00005479,-0.00021244,-0.00045024,0.00037542,-0.00010523,-0.000
 00044,-0.00005663,0.00001810,0.00000344,-0.00000363,-0.00000033,0.0000
 0084,0.00000413,0.00000307,0.00000155,-0.00000275,-0.00003458,-0.00003
 525,0.00002121,0.00000487,-0.00000039,-0.00000521,-0.00001024,-0.00002
 216,-0.00000584,-0.00000853,0.00000927,-0.00000128,0.00005375,0.000061
 33,0.00001029,-0.00001052,-0.00001845,-0.00000868,0.00004553,-0.000015
 04,0.00000436,-0.00007711,0.00003484,-0.00003698,0.00004510,-0.0000168
 2,-0.00003687,-0.00000726,0.00000637,0.00000679,0.00006752,0.00003411,
 -0.00000373,-0.00001471,-0.00001185,0.00000534,0.00009215,-0.00001479,
 -0.00007912,0.00110005,0.00084378,-0.00091633,-0.44014397,-0.15458326,
 0.07194258,-0.00405310,-0.00151480,0.00148533,-0.00773711,0.00279693,0
 .00633967,0.45015858,0.00011176,-0.00005504,0.00003132,-0.00003038,0.0
 0001487,0.00001209,-0.00003457,0.00011545,0.00002015,-0.00000642,0.000
 02191,0.00004926,-0.00063070,0.00004339,-0.00001258,-0.00008724,-0.000
 04882,-0.00005488,0.00001821,0.00000023,-0.00000447,0.00001722,0.00000
 737,0.00001516,-0.00000039,-0.00000082,0.00000673,-0.00004207,-0.00000
 425,-0.00000419,-0.00000539,0.00000025,0.00000582,0.,-0.00001559,-0.00
 001373,0.00001815,-0.00002952,-0.00000960,0.00005427,0.00000614,0.0000
 1101,-0.00001168,0.00000356,-0.00000420,0.00011917,-0.00011591,0.00007
 368,-0.00002106,0.00010933,-0.00012337,0.00002355,-0.00005679,-0.00002
 962,-0.00000928,0.00001642,0.00000225,0.00004899,-0.00002166,-0.000006
 47,-0.00002185,0.00001013,0.00000748,-0.00010610,0.00007494,0.00000696
 ,0.00205693,-0.00269109,0.00257488,-0.11640931,-0.07798959,-0.00244996
 ,0.00030821,0.00524475,-0.00380024,-0.03813968,-0.00805398,0.01272446,
 0.15219094,0.08418164,0.00028749,0.00004591,-0.00003335,-0.00004992,-0
 .00001777,0.00002747,-0.00001755,0.00014762,0.00004627,-0.00006686,0.0
 0001623,0.00007804,-0.00031371,-0.00024641,0.00008407,-0.00016411,-0.0
 0005434,-0.00006139,0.00001393,-0.00000184,-0.00000824,0.00001062,0.00
 000717,0.00000682,0.00000099,0.00000208,-0.00000554,-0.00005381,-0.000
 04468,0.00002281,0.00000329,-0.00000434,-0.00000685,-0.00000854,-0.000
 03167,-0.00000905,0.00000258,-0.00002073,-0.00000668,0.00007534,0.0000
 6980,0.00000903,-0.00001669,-0.00001930,-0.00000661,0.00007150,-0.0000
 6091,-0.00004504,-0.00009037,0.00006460,0.00000078,0.00006468,-0.00004
 680,-0.00008493,-0.00000922,0.00001167,0.00001700,0.00009740,0.0000249
 9,-0.00002193,-0.00002677,-0.00000947,0.00001751,0.00001007,0.00005933
 ,-0.00001799,-0.00021534,0.00130357,-0.00136504,0.10910783,0.01728759,
 -0.03696933,-0.00157503,-0.00184501,0.00095457,-0.02806085,-0.00879920
 ,0.00594013,-0.07920044,-0.00701742,0.03363286,-0.01279763,0.01140372,
 0.00603742,0.00009756,-0.00074680,-0.00111656,0.00068541,0.00076531,0.
 00091324,0.00046976,-0.00082301,-0.00008933,-0.00676200,-0.00816674,-0
 .00081843,0.00249437,0.00306908,0.00269885,-0.00003796,0.00007015,-0.0
 0001290,-0.00028141,-0.00029423,-0.00035153,0.00003465,-0.00000334,0.0
 0003638,0.00178918,0.00011044,-0.00066239,-0.00018276,0.00011926,0.000
 15797,-0.00037496,0.00071161,0.00030396,-0.00031608,0.00046137,-0.0002
 7341,-0.00149255,-0.00075824,-0.00016077,0.00024335,0.00020168,0.00018
 784,0.00010980,0.00064005,-0.00044762,-0.00028164,-0.00039482,0.000106
 37,-0.00031986,0.00067830,0.00038161,0.00014545,-0.00020155,-0.0000917
 7,-0.00149605,0.00025495,0.00034611,0.00045116,0.00007130,-0.00018364,
 0.00018683,0.00108747,0.00034196,0.00556086,0.00091626,0.00046061,0.00
 245272,-0.00984129,-0.01001012,-0.00477048,0.00210138,-0.00189105,-0.0
 0731643,0.00143709,0.00882334,0.00100468,0.00089750,0.00080873,0.43462
 511,0.00867300,0.00219765,-0.00091310,0.00018675,0.00051135,0.00040273
 ,-0.00017289,0.00038750,-0.00023513,-0.00043771,-0.00008126,0.00032745
 ,-0.00317013,-0.00013094,0.00127361,-0.00207308,-0.00265464,-0.0021710
 1,0.00013753,0.00003475,-0.00002332,0.00030647,0.00012276,0.00032017,-
 0.00003779,0.00001448,0.00003338,0.00186995,-0.00162948,-0.00064721,-0
 .00006628,0.00004677,0.00003091,-0.00011810,0.00076900,0.00048068,0.00
 002591,-0.00000926,0.00003927,-0.00100157,0.00096391,0.00012230,0.0002
 2917,-0.00034844,-0.00004684,0.00052793,-0.00020259,0.00039718,-0.0004
 1734,0.00036924,-0.00056872,0.00025773,0.00002746,-0.00014244,-0.00002
 248,0.00000243,0.00001611,0.00086237,0.00038752,-0.00001898,0.00011897
 ,-0.00045465,-0.00011002,0.00023139,-0.00002445,-0.00026332,0.00357369
 ,-0.00296498,-0.00138152,-0.00609827,-0.00572664,-0.01204106,-0.001526
 11,0.00266535,0.00104742,0.00293338,-0.00723058,0.00582323,0.00079924,
 -0.00076880,-0.00044802,-0.12071686,0.21024843,0.00478308,-0.00100488,
 0.00288337,0.00012124,0.00024304,0.00022023,-0.00012326,-0.00006929,-0
 .00065042,-0.00018473,-0.00003339,0.00009987,-0.00035888,-0.00014637,0
 .00001926,-0.00038229,-0.00155123,-0.00147402,0.00009870,0.00000951,0.
 00000451,0.00049190,-0.00004388,0.00032020,-0.00006277,0.00002508,0.00
 010100,0.00054232,-0.00066415,-0.00038919,-0.00031706,0.00004097,0.000
 27714,-0.00017354,0.00052787,-0.00043297,0.00006967,-0.00003053,0.0001
 2365,-0.00024547,0.00037943,0.00028657,0.00023785,-0.00013939,-0.00008
 095,0.00008425,0.00013514,0.00074911,-0.00006539,-0.00018794,-0.000501
 05,0.00008117,0.00000649,0.00004909,-0.00001933,0.00001618,-0.00001448
 ,0.00044264,0.00014564,0.00005605,0.00003971,-0.00018596,-0.00009101,-
 0.00006318,0.00011344,0.00013746,0.00203614,-0.00061431,0.00170616,-0.
 00817772,-0.01411951,-0.00808963,-0.00290058,0.00220966,-0.00208249,0.
 00737344,0.00448667,-0.00104796,0.00037347,-0.00196989,-0.00186327,-0.
 17344222,-0.15893782,0.45239099,-0.00267824,-0.00770624,-0.00178495,0.
 00001432,0.00104021,0.00121593,-0.00104915,-0.00144202,-0.00165903,-0.
 00073403,0.00095357,0.00010051,0.01123863,0.01166968,0.00115423,-0.006
 01305,-0.00410003,-0.00348215,0.00007735,-0.00008089,0.00001698,0.0008
 3520,0.00047787,0.00065604,-0.00005801,0.00000431,-0.00000835,-0.00117
 370,-0.00131299,0.00043501,0.00010759,-0.00008352,-0.00006324,-0.00010
 782,-0.00077130,-0.00020464,0.00055244,-0.00066356,0.00048432,0.001199
 77,0.00131237,0.00021391,-0.00008291,-0.00038541,-0.00025563,-0.000202
 61,-0.00062152,0.00091306,0.00045008,0.00021782,-0.00023476,0.00037155
 ,-0.00073343,-0.00039913,-0.00016459,0.00021940,0.00009990,0.00194381,
 -0.00014725,-0.00034388,-0.00041670,-0.00025380,0.00015202,-0.00048486
 ,-0.00166544,-0.00047087,-0.00700396,0.00066122,0.00126834,0.00105181,
 0.00401742,0.00287903,0.00348195,-0.00322822,0.00038149,-0.00778431,-0
 .00396308,-0.00722160,-0.00026209,0.00016411,0.00002362,-0.34694032,0.
 13372928,0.09347423,0.36236707,-0.00464675,-0.00659384,-0.00186266,-0.
 00050067,-0.00109236,-0.00089262,0.00042427,-0.00031318,0.00019639,0.0
 0055898,-0.00017582,-0.00032570,0.00272996,-0.00487028,-0.00252056,0.0
 0276605,0.00498340,0.00366060,-0.00011893,-0.00001085,0.00002311,-0.00
 057510,-0.00029675,-0.00054824,0.00007349,-0.00002166,-0.00001269,-0.0
 0294788,0.00228630,0.00080966,0.00003246,-0.00006768,0.00002903,-0.000
 10741,-0.00146970,-0.00097471,-0.00010083,0.00014175,-0.00007511,0.001
 44631,-0.00121031,-0.00008529,-0.00020529,0.00038500,0.00003227,-0.000
 47788,0.00044389,-0.00043278,0.00021781,-0.00045988,0.00052386,-0.0002
 8384,0.00012114,0.00021971,0.00004688,-0.00004309,-0.00003883,-0.00138
 665,-0.00029204,0.00017479,-0.00007172,0.00057416,0.00009027,-0.000060
 47,0.00037347,0.00036415,-0.00003675,0.00234008,0.00133114,0.00138834,
 -0.00222931,-0.00059267,-0.00220073,-0.00131303,-0.00206201,-0.0031174
 4,0.00331099,0.00138053,0.00005850,0.00017185,0.00019762,0.16454829,-0
 .09079868,-0.02793639,-0.13501121,0.08931091,-0.00011052,-0.00156232,-
 0.00551507,-0.00017415,-0.00056271,-0.00067953,0.00037530,0.00067072,0
 .00096479,0.00031048,-0.00022346,-0.00008509,-0.00213235,-0.00296665,-
 0.00084400,0.00008174,0.00322410,0.00225453,-0.00007472,0.00001300,-0.
 00000950,-0.00086800,-0.00003008,-0.00046059,0.00007872,-0.00002352,-0
 .00006593,-0.00014945,0.00098287,0.00067191,0.00037084,-0.00000502,-0.
 00034362,-0.00001715,-0.00069112,0.00019716,-0.00021693,0.00023721,-0.
 00022119,0.00003364,-0.00050495,-0.00035692,-0.00020340,0.00014003,0.0
 0008369,0.00012858,-0.00011525,-0.00081541,-0.00010961,0.00025109,0.00
 033596,-0.00010697,0.00015846,0.00004709,0.00004710,-0.00006436,-0.000
 01296,-0.00080791,-0.00002389,0.00012905,0.00007471,0.00018489,0.00002
 620,0.00009382,-0.00005211,-0.00014760,0.00117235,0.00027329,-0.001188
 05,0.00162878,-0.00133979,-0.00217629,-0.00061973,-0.00107557,0.000367
 99,-0.00580975,0.00209666,0.00318137,0.00017888,0.00036562,0.00033306,
 0.04934004,-0.00247421,-0.06251140,-0.08535009,0.01969891,0.07821553,-
 0.00034176,0.00090013,-0.00113240,-0.00017540,0.00000453,-0.00002674,-
 0.00006232,0.00012425,0.00023584,-0.00007476,0.00010131,0.00006130,-0.
 00053689,0.00059679,0.00048118,-0.00043654,-0.00003985,0.00027506,0.00
 000037,-0.00000728,-0.00000372,-0.00015806,0.00008212,-0.00007640,0.00
 003981,-0.00002083,-0.00003672,-0.00021713,-0.00014784,-0.00001766,0.0
 0009655,-0.00000259,-0.00008639,0.00008815,-0.00007448,0.00016824,-0.0
 0000023,-0.00003261,-0.00004742,0.00018177,0.00013788,-0.00002253,-0.0
 0010110,-0.00005576,-0.00000293,0.00015771,-0.00033162,-0.00017486,-0.
 00002846,0.00037196,0.00001292,0.00009598,-0.00012180,-0.00010597,-0.0
 0002827,0.00003453,0.00001804,0.00016981,0.00000816,-0.00003887,-0.000
 07508,0.00000035,0.00004311,0.00003389,-0.00004247,-0.00010897,-0.0001
 3102,-0.00083676,-0.00074086,-0.00158852,-0.00170642,0.00010757,0.0007
 6272,-0.00006294,0.00025882,0.00288581,0.00383856,-0.00107108,-0.00014
 960,-0.00047289,-0.00070885,-0.06698078,-0.01860414,0.07626661,-0.0085
 3520,-0.02244180,0.04283576,0.07510857,0.00007153,-0.00143590,-0.00012
 378,0.00005428,0.00005420,0.00000604,0.00002080,-0.00019708,-0.0001190
 4,0.00011719,0.00006571,-0.00010387,0.00195622,0.00114564,-0.00046805,
 0.00043357,0.00010148,0.00025481,-0.00003828,-0.00000833,0.00000903,-0
 .00004620,0.00003824,-0.00005566,0.00000210,-0.00000959,-0.00001705,-0
 .00022773,0.00020661,0.00001126,0.00006760,-0.00002948,-0.00005002,0.0
 0013909,-0.00004776,0.00020301,0.00001360,-0.00002598,0.00003052,0.000
 05328,-0.00023152,-0.00007960,-0.00007781,0.00009317,0.00004204,-0.000
 24903,0.00008452,0.00004111,0.00029137,-0.00024777,0.00011198,-0.00009
 911,-0.00001845,0.00006074,0.00000543,0.00000338,-0.00000285,-0.000140
 08,-0.00014014,-0.00003518,-0.00002306,0.00008285,0.00002976,-0.000231
 54,-0.00015090,0.00014884,-0.00179674,0.00063485,0.00134687,-0.0006578
 9,-0.00184044,0.00066771,0.00003238,-0.00045234,-0.00115650,0.00179085
 ,0.00269670,-0.00140472,-0.00036769,-0.00017036,-0.00057030,-0.0475983
 1,-0.10572320,0.19929583,0.00770265,0.00681552,-0.01658183,0.03880151,
 0.09870636,-0.00105046,-0.00028033,0.00034969,0.00003336,-0.00001039,-
 0.00004810,0.00001226,-0.00011632,0.00017299,0.00008041,0.00001036,-0.
 00007570,0.00120511,0.00035014,-0.00043007,0.00055658,0.00019504,0.000
 40881,-0.00004820,-0.00000505,0.00000207,-0.00008243,-0.00001054,-0.00
 009054,0.00000688,-0.00000635,-0.00002566,-0.00001123,0.00008611,-0.00
 007232,0.00001229,0.00000510,-0.00001592,0.00025554,0.00014271,0.00012
 931,-0.00001076,-0.00000095,-0.00002936,-0.00006473,-0.00017572,-0.000
 05134,-0.00002821,0.00005165,0.00004742,-0.00011076,0.00005153,-0.0002
 6453,0.00010697,-0.00005410,0.00028556,-0.00006637,0.00002940,0.000024
 14,0.00001294,-0.00001172,-0.00000130,-0.00017710,-0.00006201,-0.00001
 938,0.00001273,0.00004573,0.00001524,-0.00010318,-0.00003803,0.0000928
 6,-0.00141142,0.00088610,0.00056711,-0.00055320,-0.00034348,0.00216252
 ,0.00047565,-0.00088769,-0.00067599,0.00102830,0.00230969,-0.00423009,
 -0.00033591,-0.00040624,-0.00066519,0.11860731,0.17010826,-0.38019583,
 -0.00199027,0.00962823,-0.01137516,-0.11636210,-0.18149109,0.39400876\
 \0.00000006,-0.00000083,-0.00000341,0.00000649,0.00000253,-0.00000071,
 -0.00000044,-0.00000419,-0.00000677,0.00000073,0.00000163,0.00000901,0
 .00000068,-0.00000241,0.00000917,-0.00000031,0.00000772,0.00000125,-0.
 00000087,0.00000285,0.00000583,-0.00000021,0.00000229,-0.00000079,0.00
 000041,-0.00000072,0.00000027,-0.00000278,-0.00000072,-0.00001047,-0.0
 0000335,-0.00000055,-0.00000481,-0.00000308,0.00000181,-0.00000300,0.0
 0000540,-0.00000039,0.00000627,-0.00000097,0.00000050,-0.00000444,-0.0
 0000231,0.00000511,-0.00000240,0.00000776,0.00000340,0.00000711,-0.000
 00116,0.00000203,0.00000326,-0.00000098,-0.00000940,0.00000883,0.00000
 391,0.00000791,-0.00000154,-0.00000467,0.00000219,-0.00000402,-0.00000
 002,0.00000750,-0.00000084,0.00000045,-0.00000315,-0.00000158,-0.00000
 759,-0.00000664,0.00000762,-0.00000454,-0.00000731,-0.00001790,0.00000
 353,0.00000329,0.00000299,0.00000038,-0.00000280,0.00000235,0.00000144
 ,-0.00000938,0.00000447,0.00000188,0.00000572,-0.00000412,0.00000005,-
 0.00000375,-0.00000486,0.00000012,-0.00000424,0.00000323\\\@


 WOMEN HOLD UP HALF THE SKY. -- MAO TSE TUNG
 Job cpu time:       0 days  0 hours 29 minutes 47.1 seconds.
 File lengths (MBytes):  RWF=    221 Int=      0 D2E=      0 Chk=      6 Scr=      1
 Normal termination of Gaussian 09 at Mon Jan 16 01:46:48 2017.
