 Entering Gaussian System, Link 0=g09
 Initial command:
 /global/software/gaussian/g09.e01/l1.exe "/scratch/10464835.yak.local/Gau-17673.inp" -scrdir="/scratch/10464835.yak.local/"
 Entering Link 1 = /global/software/gaussian/g09.e01/l1.exe PID=     17674.
  
 Copyright (c) 1988,1990,1992,1993,1995,1998,2003,2009,2015,
            Gaussian, Inc.  All Rights Reserved.
  
 This is part of the Gaussian(R) 09 program.  It is based on
 the Gaussian(R) 03 system (copyright 2003, Gaussian, Inc.),
 the Gaussian(R) 98 system (copyright 1998, Gaussian, Inc.),
 the Gaussian(R) 94 system (copyright 1995, Gaussian, Inc.),
 the Gaussian 92(TM) system (copyright 1992, Gaussian, Inc.),
 the Gaussian 90(TM) system (copyright 1990, Gaussian, Inc.),
 the Gaussian 88(TM) system (copyright 1988, Gaussian, Inc.),
 the Gaussian 86(TM) system (copyright 1986, Carnegie Mellon
 University), and the Gaussian 82(TM) system (copyright 1983,
 Carnegie Mellon University). Gaussian is a federally registered
 trademark of Gaussian, Inc.
  
 This software contains proprietary and confidential information,
 including trade secrets, belonging to Gaussian, Inc.
  
 This software is provided under written license and may be
 used, copied, transmitted, or stored only in accord with that
 written license.
  
 The following legend is applicable only to US Government
 contracts under FAR:
  
                    RESTRICTED RIGHTS LEGEND
  
 Use, reproduction and disclosure by the US Government is
 subject to restrictions as set forth in subparagraphs (a)
 and (c) of the Commercial Computer Software - Restricted
 Rights clause in FAR 52.227-19.
  
 Gaussian, Inc.
 340 Quinnipiac St., Bldg. 40, Wallingford CT 06492
  
  
 ---------------------------------------------------------------
 Warning -- This program may not be used in any manner that
 competes with the business of Gaussian, Inc. or will provide
 assistance to any competitor of Gaussian, Inc.  The licensee
 of this program is prohibited from giving any competitor of
 Gaussian, Inc. access to this program.  By using this program,
 the user acknowledges that Gaussian, Inc. is engaged in the
 business of creating and licensing software in the field of
 computational chemistry and represents and warrants to the
 licensee that it is not a competitor of Gaussian, Inc. and that
 it will not use this program in any manner prohibited above.
 ---------------------------------------------------------------
  

 Cite this work as:
 Gaussian 09, Revision E.01,
 M. J. Frisch, G. W. Trucks, H. B. Schlegel, G. E. Scuseria, 
 M. A. Robb, J. R. Cheeseman, G. Scalmani, V. Barone, B. Mennucci, 
 G. A. Petersson, H. Nakatsuji, M. Caricato, X. Li, H. P. Hratchian, 
 A. F. Izmaylov, J. Bloino, G. Zheng, J. L. Sonnenberg, M. Hada, 
 M. Ehara, K. Toyota, R. Fukuda, J. Hasegawa, M. Ishida, T. Nakajima, 
 Y. Honda, O. Kitao, H. Nakai, T. Vreven, J. A. Montgomery, Jr., 
 J. E. Peralta, F. Ogliaro, M. Bearpark, J. J. Heyd, E. Brothers, 
 K. N. Kudin, V. N. Staroverov, T. Keith, R. Kobayashi, J. Normand, 
 K. Raghavachari, A. Rendell, J. C. Burant, S. S. Iyengar, J. Tomasi, 
 M. Cossi, N. Rega, J. M. Millam, M. Klene, J. E. Knox, J. B. Cross, 
 V. Bakken, C. Adamo, J. Jaramillo, R. Gomperts, R. E. Stratmann, 
 O. Yazyev, A. J. Austin, R. Cammi, C. Pomelli, J. W. Ochterski, 
 R. L. Martin, K. Morokuma, V. G. Zakrzewski, G. A. Voth, 
 P. Salvador, J. J. Dannenberg, S. Dapprich, A. D. Daniels, 
 O. Farkas, J. B. Foresman, J. V. Ortiz, J. Cioslowski, 
 and D. J. Fox, Gaussian, Inc., Wallingford CT, 2013.
 
 ******************************************
 Gaussian 09:  ES64L-G09RevE.01 30-Nov-2015
                15-Jan-2017 
 ******************************************
 -------------------------
 # b3lyp/6-31g(d) opt freq
 -------------------------
 1/14=-1,18=20,19=15,26=3,38=1/1,3;
 2/9=110,12=2,17=6,18=5,40=1/2;
 3/5=1,6=6,7=1,11=2,16=1,25=1,30=1,71=1,74=-5/1,2,3;
 4//1;
 5/5=2,38=5/2;
 6/7=2,8=2,9=2,10=2,28=1/1;
 7//1,2,3,16;
 1/14=-1,18=20,19=15,26=3/3(2);
 2/9=110/2;
 99//99;
 2/9=110/2;
 3/5=1,6=6,7=1,11=2,16=1,25=1,30=1,71=1,74=-5/1,2,3;
 4/5=5,16=3,69=1/1;
 5/5=2,38=5/2;
 7//1,2,3,16;
 1/14=-1,18=20,19=15,26=3/3(-5);
 2/9=110/2;
 6/7=2,8=2,9=2,10=2,19=2,28=1/1;
 99/9=1/99;
 ----------------------------------
 glo_1w_beta_ircr_boat4_B3LYP_631Gd
 ----------------------------------
 Symbolic Z-matrix:
 Charge =  0 Multiplicity = 1
 8                    -1.72249   0.33894   0.46734 
 6                     0.65568   0.40726  -0.15414 
 6                    -0.24885  -1.79894   0.82754 
 6                     0.98375  -1.02494   0.32393 
 6                    -1.53239  -1.51851   0.06327 
 6                    -0.50826   1.06083   0.62052 
 1                     1.63473  -0.91357   1.20609 
 1                    -0.2685    1.03806   1.69009 
 1                     0.38841   0.34774  -1.21887 
 1                    -2.45554  -1.68587   0.65565 
 6                    -0.80216   2.50248   0.18763 
 1                    -0.99829   2.53711  -0.88983 
 1                    -1.70362   2.85601   0.70511 
 1                    -0.0335   -2.86445   0.65075 
 8                    -1.54846  -1.61724  -1.17725 
 8                     0.29871   3.39029   0.39985 
 1                     0.42667   3.48342   1.35798 
 8                    -0.37313  -1.52597   2.22016 
 1                    -1.2095   -1.90771   2.5309 
 8                     1.5988   -1.79506  -0.68102 
 1                     2.47597  -1.39381  -0.88143 
 8                     1.84915   1.18942   0.02389 
 1                     1.60577   2.13239  -0.07216 
 8                    -2.95745   0.31617  -1.66035 
 1                    -2.21421   0.56825  -0.39985 
 1                    -2.56986  -0.61568  -1.71014 
 1                    -2.59552   0.78378  -2.42845 
 8                     3.9243   -0.29053  -1.00978 
 1                     4.49547  -0.47069  -0.24775 
 1                     3.33928   0.43946  -0.70786 
 
 Add virtual bond connecting atoms O15        and H26        Dist= 2.88D+00.
 Add virtual bond connecting atoms H25        and O24        Dist= 2.81D+00.
 Add virtual bond connecting atoms O28        and H21        Dist= 3.45D+00.
 Add virtual bond connecting atoms H30        and O22        Dist= 3.44D+00.

 GradGradGradGradGradGradGradGradGradGradGradGradGradGradGradGradGradGrad
 Berny optimization.
 Initialization pass.
                           ----------------------------
                           !    Initial Parameters    !
                           ! (Angstroms and Degrees)  !
 --------------------------                            --------------------------
 ! Name  Definition              Value          Derivative Info.                !
 --------------------------------------------------------------------------------
 ! R1    R(1,6)                  1.4209         estimate D2E/DX2                !
 ! R2    R(1,25)                 1.0229         estimate D2E/DX2                !
 ! R3    R(2,4)                  1.5451         estimate D2E/DX2                !
 ! R4    R(2,6)                  1.5434         estimate D2E/DX2                !
 ! R5    R(2,9)                  1.0994         estimate D2E/DX2                !
 ! R6    R(2,22)                 1.438          estimate D2E/DX2                !
 ! R7    R(3,4)                  1.5401         estimate D2E/DX2                !
 ! R8    R(3,5)                  1.5199         estimate D2E/DX2                !
 ! R9    R(3,14)                 1.1013         estimate D2E/DX2                !
 ! R10   R(3,18)                 1.4246         estimate D2E/DX2                !
 ! R11   R(4,7)                  1.102          estimate D2E/DX2                !
 ! R12   R(4,20)                 1.4076         estimate D2E/DX2                !
 ! R13   R(5,10)                 1.1096         estimate D2E/DX2                !
 ! R14   R(5,15)                 1.2445         estimate D2E/DX2                !
 ! R15   R(6,8)                  1.0964         estimate D2E/DX2                !
 ! R16   R(6,11)                 1.5337         estimate D2E/DX2                !
 ! R17   R(11,12)                1.0957         estimate D2E/DX2                !
 ! R18   R(11,13)                1.0979         estimate D2E/DX2                !
 ! R19   R(11,16)                1.4301         estimate D2E/DX2                !
 ! R20   R(15,26)                1.5265         estimate D2E/DX2                !
 ! R21   R(16,17)                0.9711         estimate D2E/DX2                !
 ! R22   R(18,19)                0.9705         estimate D2E/DX2                !
 ! R23   R(20,21)                0.9852         estimate D2E/DX2                !
 ! R24   R(21,28)                1.8252         estimate D2E/DX2                !
 ! R25   R(22,23)                0.9786         estimate D2E/DX2                !
 ! R26   R(22,30)                1.8216         estimate D2E/DX2                !
 ! R27   R(24,25)                1.4849         estimate D2E/DX2                !
 ! R28   R(24,26)                1.0105         estimate D2E/DX2                !
 ! R29   R(24,27)                0.9693         estimate D2E/DX2                !
 ! R30   R(28,29)                0.9692         estimate D2E/DX2                !
 ! R31   R(28,30)                0.983          estimate D2E/DX2                !
 ! A1    A(6,1,25)             112.8477         estimate D2E/DX2                !
 ! A2    A(4,2,6)              113.4126         estimate D2E/DX2                !
 ! A3    A(4,2,9)              107.5232         estimate D2E/DX2                !
 ! A4    A(4,2,22)             106.837          estimate D2E/DX2                !
 ! A5    A(6,2,9)              109.0075         estimate D2E/DX2                !
 ! A6    A(6,2,22)             109.4773         estimate D2E/DX2                !
 ! A7    A(9,2,22)             110.5558         estimate D2E/DX2                !
 ! A8    A(4,3,5)              114.7528         estimate D2E/DX2                !
 ! A9    A(4,3,14)             106.0944         estimate D2E/DX2                !
 ! A10   A(4,3,18)             107.0489         estimate D2E/DX2                !
 ! A11   A(5,3,14)             105.2422         estimate D2E/DX2                !
 ! A12   A(5,3,18)             112.4905         estimate D2E/DX2                !
 ! A13   A(14,3,18)            111.0618         estimate D2E/DX2                !
 ! A14   A(2,4,3)              113.3953         estimate D2E/DX2                !
 ! A15   A(2,4,7)              106.2265         estimate D2E/DX2                !
 ! A16   A(2,4,20)             112.2725         estimate D2E/DX2                !
 ! A17   A(3,4,7)              105.1767         estimate D2E/DX2                !
 ! A18   A(3,4,20)             107.9513         estimate D2E/DX2                !
 ! A19   A(7,4,20)             111.6357         estimate D2E/DX2                !
 ! A20   A(3,5,10)             113.9732         estimate D2E/DX2                !
 ! A21   A(3,5,15)             119.8326         estimate D2E/DX2                !
 ! A22   A(10,5,15)            120.6275         estimate D2E/DX2                !
 ! A23   A(1,6,2)              112.0371         estimate D2E/DX2                !
 ! A24   A(1,6,8)              106.3497         estimate D2E/DX2                !
 ! A25   A(1,6,11)             106.4621         estimate D2E/DX2                !
 ! A26   A(2,6,8)              108.4179         estimate D2E/DX2                !
 ! A27   A(2,6,11)             113.6349         estimate D2E/DX2                !
 ! A28   A(8,6,11)             109.6821         estimate D2E/DX2                !
 ! A29   A(6,11,12)            109.973          estimate D2E/DX2                !
 ! A30   A(6,11,13)            109.0864         estimate D2E/DX2                !
 ! A31   A(6,11,16)            113.2134         estimate D2E/DX2                !
 ! A32   A(12,11,13)           107.8383         estimate D2E/DX2                !
 ! A33   A(12,11,16)           105.3129         estimate D2E/DX2                !
 ! A34   A(13,11,16)           111.2354         estimate D2E/DX2                !
 ! A35   A(5,15,26)            107.7306         estimate D2E/DX2                !
 ! A36   A(11,16,17)           107.902          estimate D2E/DX2                !
 ! A37   A(3,18,19)            108.2299         estimate D2E/DX2                !
 ! A38   A(4,20,21)            108.1469         estimate D2E/DX2                !
 ! A39   A(2,22,23)            107.7921         estimate D2E/DX2                !
 ! A40   A(2,22,30)            113.9068         estimate D2E/DX2                !
 ! A41   A(23,22,30)           124.1053         estimate D2E/DX2                !
 ! A42   A(25,24,26)            90.3659         estimate D2E/DX2                !
 ! A43   A(25,24,27)           113.8203         estimate D2E/DX2                !
 ! A44   A(26,24,27)           105.2242         estimate D2E/DX2                !
 ! A45   A(1,25,24)            157.2511         estimate D2E/DX2                !
 ! A46   A(15,26,24)           147.6179         estimate D2E/DX2                !
 ! A47   A(21,28,29)           107.4559         estimate D2E/DX2                !
 ! A48   A(21,28,30)            87.4233         estimate D2E/DX2                !
 ! A49   A(29,28,30)           104.3158         estimate D2E/DX2                !
 ! A50   A(22,30,28)           156.3392         estimate D2E/DX2                !
 ! A51   L(20,21,28,11,-1)     166.2155         estimate D2E/DX2                !
 ! A52   L(20,21,28,11,-2)     174.6256         estimate D2E/DX2                !
 ! D1    D(25,1,6,2)           -82.3478         estimate D2E/DX2                !
 ! D2    D(25,1,6,8)           159.3606         estimate D2E/DX2                !
 ! D3    D(25,1,6,11)           42.4445         estimate D2E/DX2                !
 ! D4    D(6,1,25,24)          133.9761         estimate D2E/DX2                !
 ! D5    D(6,2,4,3)             32.2039         estimate D2E/DX2                !
 ! D6    D(6,2,4,7)            -82.8197         estimate D2E/DX2                !
 ! D7    D(6,2,4,20)           154.8935         estimate D2E/DX2                !
 ! D8    D(9,2,4,3)            -88.3868         estimate D2E/DX2                !
 ! D9    D(9,2,4,7)            156.5896         estimate D2E/DX2                !
 ! D10   D(9,2,4,20)            34.3029         estimate D2E/DX2                !
 ! D11   D(22,2,4,3)           152.9116         estimate D2E/DX2                !
 ! D12   D(22,2,4,7)            37.8879         estimate D2E/DX2                !
 ! D13   D(22,2,4,20)          -84.3988         estimate D2E/DX2                !
 ! D14   D(4,2,6,1)            -61.5512         estimate D2E/DX2                !
 ! D15   D(4,2,6,8)             55.5057         estimate D2E/DX2                !
 ! D16   D(4,2,6,11)           177.7286         estimate D2E/DX2                !
 ! D17   D(9,2,6,1)             58.1967         estimate D2E/DX2                !
 ! D18   D(9,2,6,8)            175.2536         estimate D2E/DX2                !
 ! D19   D(9,2,6,11)           -62.5235         estimate D2E/DX2                !
 ! D20   D(22,2,6,1)           179.2437         estimate D2E/DX2                !
 ! D21   D(22,2,6,8)           -63.6994         estimate D2E/DX2                !
 ! D22   D(22,2,6,11)           58.5236         estimate D2E/DX2                !
 ! D23   D(4,2,22,23)         -166.958          estimate D2E/DX2                !
 ! D24   D(4,2,22,30)           51.1918         estimate D2E/DX2                !
 ! D25   D(6,2,22,23)          -43.7709         estimate D2E/DX2                !
 ! D26   D(6,2,22,30)          174.3789         estimate D2E/DX2                !
 ! D27   D(9,2,22,23)           76.3336         estimate D2E/DX2                !
 ! D28   D(9,2,22,30)          -65.5166         estimate D2E/DX2                !
 ! D29   D(5,3,4,2)             36.249          estimate D2E/DX2                !
 ! D30   D(5,3,4,7)            151.896          estimate D2E/DX2                !
 ! D31   D(5,3,4,20)           -88.7989         estimate D2E/DX2                !
 ! D32   D(14,3,4,2)           151.9923         estimate D2E/DX2                !
 ! D33   D(14,3,4,7)           -92.3607         estimate D2E/DX2                !
 ! D34   D(14,3,4,20)           26.9443         estimate D2E/DX2                !
 ! D35   D(18,3,4,2)           -89.3413         estimate D2E/DX2                !
 ! D36   D(18,3,4,7)            26.3057         estimate D2E/DX2                !
 ! D37   D(18,3,4,20)          145.6107         estimate D2E/DX2                !
 ! D38   D(4,3,5,10)          -154.0494         estimate D2E/DX2                !
 ! D39   D(4,3,5,15)            52.0902         estimate D2E/DX2                !
 ! D40   D(14,3,5,10)           89.717          estimate D2E/DX2                !
 ! D41   D(14,3,5,15)          -64.1434         estimate D2E/DX2                !
 ! D42   D(18,3,5,10)          -31.3442         estimate D2E/DX2                !
 ! D43   D(18,3,5,15)          174.7954         estimate D2E/DX2                !
 ! D44   D(4,3,18,19)          172.5511         estimate D2E/DX2                !
 ! D45   D(5,3,18,19)           45.612          estimate D2E/DX2                !
 ! D46   D(14,3,18,19)         -72.0563         estimate D2E/DX2                !
 ! D47   D(2,4,20,21)           65.1566         estimate D2E/DX2                !
 ! D48   D(3,4,20,21)         -169.1297         estimate D2E/DX2                !
 ! D49   D(7,4,20,21)          -54.007          estimate D2E/DX2                !
 ! D50   D(3,5,15,26)         -149.249          estimate D2E/DX2                !
 ! D51   D(10,5,15,26)          58.6437         estimate D2E/DX2                !
 ! D52   D(1,6,11,12)          -67.8582         estimate D2E/DX2                !
 ! D53   D(1,6,11,13)           50.2183         estimate D2E/DX2                !
 ! D54   D(1,6,11,16)          174.6504         estimate D2E/DX2                !
 ! D55   D(2,6,11,12)           55.9476         estimate D2E/DX2                !
 ! D56   D(2,6,11,13)          174.0242         estimate D2E/DX2                !
 ! D57   D(2,6,11,16)          -61.5437         estimate D2E/DX2                !
 ! D58   D(8,6,11,12)          177.4685         estimate D2E/DX2                !
 ! D59   D(8,6,11,13)          -64.455          estimate D2E/DX2                !
 ! D60   D(8,6,11,16)           59.9771         estimate D2E/DX2                !
 ! D61   D(6,11,16,17)         -67.4951         estimate D2E/DX2                !
 ! D62   D(12,11,16,17)        172.3208         estimate D2E/DX2                !
 ! D63   D(13,11,16,17)         55.7603         estimate D2E/DX2                !
 ! D64   D(5,15,26,24)          42.7653         estimate D2E/DX2                !
 ! D65   D(4,20,28,29)          74.7618         estimate D2E/DX2                !
 ! D66   D(4,20,28,30)         -27.934          estimate D2E/DX2                !
 ! D67   D(2,22,30,28)         -29.5382         estimate D2E/DX2                !
 ! D68   D(23,22,30,28)       -164.2749         estimate D2E/DX2                !
 ! D69   D(26,24,25,1)         -23.2693         estimate D2E/DX2                !
 ! D70   D(27,24,25,1)        -130.1197         estimate D2E/DX2                !
 ! D71   D(25,24,26,15)        -11.2533         estimate D2E/DX2                !
 ! D72   D(27,24,26,15)        103.6006         estimate D2E/DX2                !
 ! D73   D(21,28,30,22)         14.9632         estimate D2E/DX2                !
 ! D74   D(29,28,30,22)        -92.3992         estimate D2E/DX2                !
 --------------------------------------------------------------------------------
 Trust Radius=3.00D-01 FncErr=1.00D-07 GrdErr=1.00D-06
 Number of steps in this run=    167 maximum allowed number of steps=    180.
 GradGradGradGradGradGradGradGradGradGradGradGradGradGradGradGradGradGrad

                          Input orientation:                          
 ---------------------------------------------------------------------
 Center     Atomic      Atomic             Coordinates (Angstroms)
 Number     Number       Type             X           Y           Z
 ---------------------------------------------------------------------
      1          8           0       -1.722491    0.338940    0.467336
      2          6           0        0.655682    0.407261   -0.154141
      3          6           0       -0.248851   -1.798939    0.827541
      4          6           0        0.983750   -1.024942    0.323927
      5          6           0       -1.532394   -1.518514    0.063270
      6          6           0       -0.508259    1.060832    0.620519
      7          1           0        1.634728   -0.913572    1.206092
      8          1           0       -0.268501    1.038058    1.690092
      9          1           0        0.388413    0.347742   -1.218872
     10          1           0       -2.455536   -1.685869    0.655648
     11          6           0       -0.802159    2.502475    0.187626
     12          1           0       -0.998289    2.537114   -0.889834
     13          1           0       -1.703621    2.856011    0.705107
     14          1           0       -0.033501   -2.864448    0.650746
     15          8           0       -1.548462   -1.617244   -1.177247
     16          8           0        0.298706    3.390286    0.399849
     17          1           0        0.426667    3.483425    1.357975
     18          8           0       -0.373133   -1.525967    2.220160
     19          1           0       -1.209499   -1.907708    2.530897
     20          8           0        1.598800   -1.795055   -0.681021
     21          1           0        2.475971   -1.393809   -0.881432
     22          8           0        1.849148    1.189423    0.023890
     23          1           0        1.605773    2.132394   -0.072164
     24          8           0       -2.957454    0.316170   -1.660347
     25          1           0       -2.214209    0.568251   -0.399853
     26          1           0       -2.569857   -0.615684   -1.710135
     27          1           0       -2.595519    0.783777   -2.428449
     28          8           0        3.924297   -0.290526   -1.009785
     29          1           0        4.495466   -0.470689   -0.247747
     30          1           0        3.339282    0.439463   -0.707861
 ---------------------------------------------------------------------
                    Distance matrix (angstroms):
                    1          2          3          4          5
     1  O    0.000000
     2  C    2.458985   0.000000
     3  C    2.621429   2.578604   0.000000
     4  C    3.033889   1.545116   1.540131   0.000000
     5  C    1.910377   2.922936   1.519944   2.577312   0.000000
     6  C    1.420898   1.543377   2.878965   2.581571   2.830619
     7  H    3.658615   2.133861   2.115430   1.101994   3.420915
     8  H    2.024348   2.157131   2.965288   2.773177   3.283296
     9  H    2.701720   1.099376   3.033505   2.149166   2.969225
    10  H    2.161635   3.836226   2.216256   3.517890   1.109554
    11  C    2.367727   2.575272   4.383812   3.956099   4.088650
    12  H    2.682974   2.795199   4.723599   4.253227   4.200214
    13  H    2.528347   3.507277   4.878515   4.735933   4.424674
    14  H    3.626020   3.439025   1.101336   2.127297   2.098415
    15  O    2.561561   3.162850   2.396075   3.002739   1.244543
    16  O    3.660670   3.054959   5.235532   4.468701   5.250003
    17  H    3.911509   3.435364   5.351734   4.658859   5.525719
    18  O    2.893274   3.230037   1.424552   2.384923   2.448697
    19  H    3.093359   4.005922   1.958596   3.234244   2.518912
    20  O    4.111403   2.453012   2.385286   1.407580   3.230297
    21  H    4.738004   2.662003   3.241816   1.953376   4.120073
    22  O    3.698185   1.437996   3.738685   2.396320   4.332355
    23  H    3.819015   1.971161   4.438973   3.242310   4.816177
    24  O    2.460221   3.915572   4.242617   4.611834   2.892701
    25  H    1.022931   2.884886   3.312509   3.645417   2.243645
    26  H    2.524028   3.724464   3.636889   4.114975   2.244192
    27  H    3.057062   3.985543   4.772708   4.863970   3.555199
    28  O    5.870633   3.450055   4.802733   3.311340   5.695163
    29  H    6.311088   3.939987   5.042721   3.600855   6.126154
    30  H    5.197378   2.740320   4.499178   2.959324   5.306745
                    6          7          8          9         10
     6  C    0.000000
     7  H    2.972131   0.000000
     8  H    1.096353   2.768645   0.000000
     9  H    2.166997   3.004108   3.061069   0.000000
    10  H    3.367119   4.198773   3.643209   3.967045   0.000000
    11  C    1.533658   4.317994   2.164882   2.835238   4.527132
    12  H    2.168111   4.820054   3.071771   2.612386   4.727121
    13  H    2.158405   5.060170   2.516887   3.790741   4.603965
    14  H    3.954002   2.626274   4.045370   3.740541   2.693571
    15  O    3.389111   4.038336   4.112245   2.759418   2.046215
    16  O    2.475125   4.578010   2.742157   3.447518   5.780885
    17  H    2.699423   4.562462   2.563860   4.058831   5.960030
    18  O    3.044444   2.331280   2.620333   3.989697   2.609534
    19  H    3.599099   3.291359   3.204679   4.658449   2.262384
    20  O    3.780184   2.083146   4.139507   2.519107   4.270392
    21  H    4.145690   2.301320   4.478710   2.739482   5.173749
    22  O    2.435132   2.422017   2.698810   2.094429   5.215048
    23  H    2.469248   3.303435   2.795715   2.445790   5.621661
    24  O    3.428619   5.551295   4.356264   3.375015   3.102243
    25  H    2.047941   4.425966   2.893850   2.737345   2.500676
    26  H    3.534521   5.125588   4.426358   3.149744   2.599095
    27  H    3.705350   5.829740   4.737304   3.249162   3.953530
    28  O    4.912394   3.246602   5.160816   3.599108   6.739653
    29  H    5.304404   3.239385   5.359750   4.298930   7.114015
    30  H    4.117556   2.898176   4.373167   2.996193   6.321084
                   11         12         13         14         15
    11  C    0.000000
    12  H    1.095713   0.000000
    13  H    1.097911   1.772858   0.000000
    14  H    5.441432   5.699217   5.959522   0.000000
    15  O    4.403627   4.200475   4.855650   2.681825   0.000000
    16  O    1.430088   2.018262   2.094742   6.268573   5.565485
    17  H    1.960100   2.824650   2.314738   6.403704   6.028707
    18  O    4.532505   5.154756   4.823621   2.090441   3.596123
    19  H    5.010645   5.612705   5.125494   2.415221   3.734916
    20  O    4.998791   5.055310   5.870243   2.362543   3.191099
    21  H    5.202889   5.246209   6.168230   3.287522   4.041471
    22  O    2.963164   3.280101   3.982931   4.513445   4.567698
    23  H    2.450018   2.759261   3.475609   5.308319   5.022966
    24  O    3.583327   3.060165   3.690293   4.899692   2.440642
    25  H    2.465814   2.365368   2.591425   4.200318   2.413286
    26  H    4.055757   3.617023   4.316993   4.130835   1.526545
    27  H    3.607480   2.827131   3.861193   5.418018   2.902884
    28  O    5.619078   5.678185   6.671957   5.004658   5.633766
    29  H    6.090491   6.296070   7.099545   5.200857   6.221545
    30  H    4.712690   4.821595   5.767760   4.912973   5.323571
                   16         17         18         19         20
    16  O    0.000000
    17  H    0.971110   0.000000
    18  O    5.285304   5.145586   0.000000
    19  H    5.906335   5.754746   0.970460   0.000000
    20  O    5.454016   5.778733   3.518207   4.267980   0.000000
    21  H    5.410151   5.744737   4.213636   5.048839   0.985186
    22  O    2.718274   3.010927   4.139502   5.023209   3.076797
    23  H    1.874437   2.293659   4.749150   5.569929   3.974369
    24  O    4.929216   5.531189   5.013035   5.056432   5.116229
    25  H    3.862402   4.308413   3.826196   3.965994   4.494809
    26  H    5.359896   5.932550   4.593629   4.637483   4.452830
    27  H    4.813491   5.546054   5.646546   5.810358   5.224576
    28  O    5.355404   5.664134   5.516046   6.442637   2.789199
    29  H    5.739277   5.896481   5.559445   6.506344   3.214397
    30  H    4.379438   4.692197   5.120376   6.057241   2.832502
                   21         22         23         24         25
    21  H    0.000000
    22  O    2.808132   0.000000
    23  H    3.721057   0.978597   0.000000
    24  O    5.749160   5.167460   5.161786   0.000000
    25  H    5.106798   4.132346   4.140795   1.484858   0.000000
    26  H    5.172292   5.078667   5.260301   1.010476   1.801396
    27  H    5.731941   5.092502   5.002170   0.969347   2.075343
    28  O    1.825200   2.750450   3.482130   6.939006   6.228224
    29  H    2.309127   3.135723   3.893224   7.626310   6.791338
    30  H    2.033794   1.821647   2.505031   6.369562   5.563517
                   26         27         28         29         30
    26  H    0.000000
    27  H    1.573253   0.000000
    28  O    6.539897   6.758309   0.000000
    29  H    7.216536   7.524042   0.969224   0.000000
    30  H    6.085706   6.188767   0.982998   1.541701   0.000000
 Stoichiometry    C6H16O8
 Framework group  C1[X(C6H16O8)]
 Deg. of freedom    84
 Full point group                 C1      NOp   1
 Largest Abelian subgroup         C1      NOp   1
 Largest concise Abelian subgroup C1      NOp   1
                         Standard orientation:                         
 ---------------------------------------------------------------------
 Center     Atomic      Atomic             Coordinates (Angstroms)
 Number     Number       Type             X           Y           Z
 ---------------------------------------------------------------------
      1          8           0       -1.724099    0.311284    0.471625
      2          6           0        0.651761    0.392162   -0.157150
      3          6           0       -0.238073   -1.818758    0.827343
      4          6           0        0.988866   -1.038270    0.319934
      5          6           0       -1.525421   -1.545152    0.067010
      6          6           0       -0.513237    1.039594    0.621067
      7          1           0        1.641950   -0.923428    1.200095
      8          1           0       -0.270081    1.018125    1.689900
      9          1           0        0.381544    0.331194   -1.221054
     10          1           0       -2.445842   -1.717367    0.662222
     11          6           0       -0.816086    2.479647    0.189053
     12          1           0       -1.015702    2.513212   -0.887801
     13          1           0       -1.717812    2.828428    0.709292
     14          1           0       -0.017634   -2.883119    0.649907
     15          8           0       -1.544774   -1.644008   -1.173450
     16          8           0        0.280714    3.373276    0.397880
     17          1           0        0.411121    3.467123    1.355607
     18          8           0       -0.359522   -1.546400    2.220332
     19          1           0       -1.192900   -1.932549    2.533642
     20          8           0        1.604893   -1.805153   -0.686883
     21          1           0        2.479310   -1.399280   -0.889992
     22          8           0        1.841614    1.180631    0.017203
     23          1           0        1.592961    2.122299   -0.078120
     24          8           0       -2.965448    0.281911   -1.652257
     25          1           0       -2.219682    0.537962   -0.394055
     26          1           0       -2.573083   -0.647882   -1.703218
     27          1           0       -2.608351    0.751399   -2.421475
     28          8           0        3.921380   -0.288357   -1.022810
     29          1           0        4.495830   -0.465470   -0.262525
     30          1           0        3.333441    0.438538   -0.719105
 ---------------------------------------------------------------------
 Rotational constants (GHZ):      0.6478183      0.5507546      0.3995503
 Standard basis: 6-31G(d) (6D, 7F)
 There are   242 symmetry adapted cartesian basis functions of A   symmetry.
 There are   242 symmetry adapted basis functions of A   symmetry.
   242 basis functions,   456 primitive gaussians,   242 cartesian basis functions
    58 alpha electrons       58 beta electrons
       nuclear repulsion energy      1114.0700457253 Hartrees.
 NAtoms=   30 NActive=   30 NUniq=   30 SFac= 1.00D+00 NAtFMM=   60 NAOKFM=F Big=F
 Integral buffers will be    131072 words long.
 Raffenetti 2 integral format.
 Two-electron integral symmetry is turned on.
 One-electron integrals computed using PRISM.
 NBasis=   242 RedAO= T EigKep=  1.43D-03  NBF=   242
 NBsUse=   242 1.00D-06 EigRej= -1.00D+00 NBFU=   242
 ExpMin= 1.61D-01 ExpMax= 5.48D+03 ExpMxC= 8.25D+02 IAcc=1 IRadAn=         1 AccDes= 0.00D+00
 Harris functional with IExCor=  402 and IRadAn=       1 diagonalized for initial guess.
 HarFok:  IExCor=  402 AccDes= 0.00D+00 IRadAn=         1 IDoV= 1 UseB2=F ITyADJ=14
 ICtDFT=  3500011 ScaDFX=  1.000000  1.000000  1.000000  1.000000
 FoFCou: FMM=F IPFlag=           0 FMFlag=      100000 FMFlg1=           0
         NFxFlg=           0 DoJE=T BraDBF=F KetDBF=T FulRan=T
         wScrn=  0.000000 ICntrl=     500 IOpCl=  0 I1Cent=   200000004 NGrid=           0
         NMat0=    1 NMatS0=      1 NMatT0=    0 NMatD0=    1 NMtDS0=    0 NMtDT0=    0
 Petite list used in FoFCou.
 Requested convergence on RMS density matrix=1.00D-08 within 128 cycles.
 Requested convergence on MAX density matrix=1.00D-06.
 Requested convergence on             energy=1.00D-06.
 No special actions if energy rises.
 Integral accuracy reduced to 1.0D-05 until final iterations.
 Initial convergence to 1.0D-05 achieved.  Increase integral accuracy.
 SCF Done:  E(RB3LYP) =  -839.963095549     A.U. after   14 cycles
            NFock= 14  Conv=0.64D-08     -V/T= 2.0083

 **********************************************************************

            Population analysis using the SCF density.

 **********************************************************************

 Orbital symmetries:
       Occupied  (A) (A) (A) (A) (A) (A) (A) (A) (A) (A) (A) (A)
                 (A) (A) (A) (A) (A) (A) (A) (A) (A) (A) (A) (A)
                 (A) (A) (A) (A) (A) (A) (A) (A) (A) (A) (A) (A)
                 (A) (A) (A) (A) (A) (A) (A) (A) (A) (A) (A) (A)
                 (A) (A) (A) (A) (A) (A) (A) (A) (A) (A)
       Virtual   (A) (A) (A) (A) (A) (A) (A) (A) (A) (A) (A) (A)
                 (A) (A) (A) (A) (A) (A) (A) (A) (A) (A) (A) (A)
                 (A) (A) (A) (A) (A) (A) (A) (A) (A) (A) (A) (A)
                 (A) (A) (A) (A) (A) (A) (A) (A) (A) (A) (A) (A)
                 (A) (A) (A) (A) (A) (A) (A) (A) (A) (A) (A) (A)
                 (A) (A) (A) (A) (A) (A) (A) (A) (A) (A) (A) (A)
                 (A) (A) (A) (A) (A) (A) (A) (A) (A) (A) (A) (A)
                 (A) (A) (A) (A) (A) (A) (A) (A) (A) (A) (A) (A)
                 (A) (A) (A) (A) (A) (A) (A) (A) (A) (A) (A) (A)
                 (A) (A) (A) (A) (A) (A) (A) (A) (A) (A) (A) (A)
                 (A) (A) (A) (A) (A) (A) (A) (A) (A) (A) (A) (A)
                 (A) (A) (A) (A) (A) (A) (A) (A) (A) (A) (A) (A)
                 (A) (A) (A) (A) (A) (A) (A) (A) (A) (A) (A) (A)
                 (A) (A) (A) (A) (A) (A) (A) (A) (A) (A) (A) (A)
                 (A) (A) (A) (A) (A) (A) (A) (A) (A) (A) (A) (A)
                 (A) (A) (A) (A)
 The electronic state is 1-A.
 Alpha  occ. eigenvalues --  -19.19178 -19.17448 -19.16184 -19.15728 -19.15575
 Alpha  occ. eigenvalues --  -19.14099 -19.12032 -19.11499 -10.28213 -10.26207
 Alpha  occ. eigenvalues --  -10.25570 -10.24246 -10.23783 -10.23279  -1.07069
 Alpha  occ. eigenvalues --   -1.05908  -1.03337  -1.02888  -1.02043  -1.00624
 Alpha  occ. eigenvalues --   -1.00073  -0.98980  -0.78239  -0.75444  -0.69957
 Alpha  occ. eigenvalues --   -0.65014  -0.63086  -0.56949  -0.55487  -0.55373
 Alpha  occ. eigenvalues --   -0.54399  -0.52814  -0.51785  -0.51134  -0.48775
 Alpha  occ. eigenvalues --   -0.47922  -0.45245  -0.44924  -0.44304  -0.43379
 Alpha  occ. eigenvalues --   -0.42127  -0.40499  -0.39647  -0.39170  -0.38772
 Alpha  occ. eigenvalues --   -0.37402  -0.36763  -0.35632  -0.34582  -0.33029
 Alpha  occ. eigenvalues --   -0.31245  -0.30812  -0.29326  -0.29180  -0.27996
 Alpha  occ. eigenvalues --   -0.27039  -0.24844  -0.23811
 Alpha virt. eigenvalues --    0.01484   0.03615   0.05406   0.06487   0.07717
 Alpha virt. eigenvalues --    0.09707   0.11934   0.12485   0.13454   0.14351
 Alpha virt. eigenvalues --    0.15452   0.15977   0.17248   0.17821   0.19144
 Alpha virt. eigenvalues --    0.20288   0.21827   0.22483   0.23134   0.23666
 Alpha virt. eigenvalues --    0.25475   0.25933   0.26705   0.29472   0.29919
 Alpha virt. eigenvalues --    0.31187   0.33238   0.35934   0.51439   0.52505
 Alpha virt. eigenvalues --    0.54803   0.54968   0.55722   0.57471   0.60902
 Alpha virt. eigenvalues --    0.61771   0.62710   0.64060   0.65537   0.67024
 Alpha virt. eigenvalues --    0.70234   0.71172   0.72815   0.73464   0.74301
 Alpha virt. eigenvalues --    0.76614   0.77396   0.77915   0.79709   0.80442
 Alpha virt. eigenvalues --    0.81420   0.82172   0.83515   0.84602   0.85389
 Alpha virt. eigenvalues --    0.85836   0.86266   0.88080   0.88932   0.89763
 Alpha virt. eigenvalues --    0.90728   0.91987   0.92488   0.93244   0.94404
 Alpha virt. eigenvalues --    0.97006   0.98885   1.00130   1.01591   1.02791
 Alpha virt. eigenvalues --    1.04047   1.04854   1.06054   1.07434   1.08902
 Alpha virt. eigenvalues --    1.10415   1.11209   1.11734   1.13440   1.14785
 Alpha virt. eigenvalues --    1.18713   1.20560   1.22916   1.23739   1.25479
 Alpha virt. eigenvalues --    1.29006   1.31141   1.32424   1.36587   1.39017
 Alpha virt. eigenvalues --    1.41614   1.43541   1.43766   1.48190   1.48760
 Alpha virt. eigenvalues --    1.50129   1.53456   1.54605   1.57517   1.58491
 Alpha virt. eigenvalues --    1.60287   1.62846   1.64468   1.66355   1.66953
 Alpha virt. eigenvalues --    1.70488   1.71082   1.72540   1.72825   1.73860
 Alpha virt. eigenvalues --    1.75687   1.75966   1.77320   1.78615   1.80331
 Alpha virt. eigenvalues --    1.82473   1.82837   1.84492   1.86799   1.87246
 Alpha virt. eigenvalues --    1.89248   1.89586   1.91012   1.93929   1.95584
 Alpha virt. eigenvalues --    1.96898   1.99119   2.01183   2.03691   2.05459
 Alpha virt. eigenvalues --    2.06073   2.07807   2.10418   2.11598   2.14818
 Alpha virt. eigenvalues --    2.17059   2.20618   2.22369   2.23135   2.27097
 Alpha virt. eigenvalues --    2.30016   2.31216   2.33422   2.37140   2.40585
 Alpha virt. eigenvalues --    2.43399   2.44763   2.46622   2.49424   2.50855
 Alpha virt. eigenvalues --    2.53241   2.54288   2.56492   2.59939   2.60290
 Alpha virt. eigenvalues --    2.61073   2.64549   2.65495   2.66443   2.68799
 Alpha virt. eigenvalues --    2.72376   2.76331   2.80101   2.84017   2.87462
 Alpha virt. eigenvalues --    2.92656   2.96838   3.01647   3.03773   3.12779
 Alpha virt. eigenvalues --    3.73915   3.76241   3.79224   3.83584   3.89754
 Alpha virt. eigenvalues --    4.00899   4.07656   4.11097   4.24388   4.31062
 Alpha virt. eigenvalues --    4.49024   4.53458   4.60320   4.80607
          Condensed to atoms (all electrons):
               1          2          3          4          5          6
     1  O    8.523071  -0.039670  -0.006903  -0.007342   0.033427   0.180116
     2  C   -0.039670   5.051863  -0.034678   0.332523  -0.006257   0.273826
     3  C   -0.006903  -0.034678   5.149549   0.295622   0.279166  -0.008714
     4  C   -0.007342   0.332523   0.295622   4.845303  -0.019946  -0.018381
     5  C    0.033427  -0.006257   0.279166  -0.019946   4.799503  -0.012808
     6  C    0.180116   0.273826  -0.008714  -0.018381  -0.012808   5.006158
     7  H    0.000128  -0.058890  -0.055131   0.351668   0.004997  -0.001728
     8  H   -0.034604  -0.056082  -0.001386  -0.007679  -0.000929   0.361798
     9  H    0.001684   0.338038  -0.004244  -0.044415   0.001868  -0.043724
    10  H   -0.030525   0.000547  -0.099569   0.005049   0.343723   0.002191
    11  C   -0.031405  -0.028673   0.000290   0.003205   0.000465   0.327149
    12  H   -0.000305  -0.008171   0.000015  -0.000016  -0.000068  -0.039478
    13  H    0.005183   0.005065   0.000005  -0.000104  -0.000029  -0.046323
    14  H    0.001603   0.005201   0.352517  -0.037675  -0.049202   0.000282
    15  O   -0.039424   0.000630  -0.061385   0.004847   0.387285   0.000357
    16  O    0.001609  -0.000914   0.000009  -0.000046  -0.000010  -0.037275
    17  H   -0.000013  -0.001278   0.000001   0.000001  -0.000001  -0.001533
    18  O    0.000742  -0.000383   0.177874  -0.039393  -0.026449   0.001768
    19  H   -0.000045  -0.000297  -0.031600   0.007045  -0.003555   0.000090
    20  O    0.000013  -0.044067  -0.042672   0.245799  -0.000431   0.003803
    21  H   -0.000000  -0.001587   0.005351  -0.020475  -0.000063   0.000036
    22  O    0.001360   0.188436   0.002988  -0.042619   0.000120  -0.024750
    23  H    0.000030  -0.018022  -0.000210   0.004224  -0.000001  -0.010229
    24  O   -0.069711  -0.000907  -0.000437   0.000041   0.006181   0.004680
    25  H    0.151902   0.000803   0.001081  -0.000137  -0.008153  -0.015289
    26  H    0.006735   0.000167   0.002766  -0.000190  -0.011577  -0.000530
    27  H    0.002985  -0.000039  -0.000014  -0.000003  -0.000202  -0.000225
    28  O    0.000000   0.000073   0.000073   0.004721  -0.000000  -0.000008
    29  H   -0.000000  -0.000294   0.000015   0.000511  -0.000000  -0.000003
    30  H   -0.000005  -0.003836   0.000041  -0.000684  -0.000001   0.000564
               7          8          9         10         11         12
     1  O    0.000128  -0.034604   0.001684  -0.030525  -0.031405  -0.000305
     2  C   -0.058890  -0.056082   0.338038   0.000547  -0.028673  -0.008171
     3  C   -0.055131  -0.001386  -0.004244  -0.099569   0.000290   0.000015
     4  C    0.351668  -0.007679  -0.044415   0.005049   0.003205  -0.000016
     5  C    0.004997  -0.000929   0.001868   0.343723   0.000465  -0.000068
     6  C   -0.001728   0.361798  -0.043724   0.002191   0.327149  -0.039478
     7  H    0.646284   0.003783   0.007517  -0.000231  -0.000335   0.000005
     8  H    0.003783   0.599928   0.006754  -0.000139  -0.048279   0.005603
     9  H    0.007517   0.006754   0.629798   0.000219  -0.012225   0.005656
    10  H   -0.000231  -0.000139   0.000219   0.703897  -0.000092  -0.000010
    11  C   -0.000335  -0.048279  -0.012225  -0.000092   4.971577   0.363370
    12  H    0.000005   0.005603   0.005656  -0.000010   0.363370   0.580556
    13  H    0.000007  -0.006422  -0.000152   0.000003   0.366382  -0.039429
    14  H   -0.002278   0.000113  -0.000193   0.001845   0.000013  -0.000000
    15  O   -0.000026  -0.000061   0.006443  -0.046981  -0.000034  -0.000031
    16  O   -0.000003   0.000284   0.000071   0.000000   0.215813  -0.034829
    17  H    0.000003   0.005115   0.000101  -0.000000  -0.028521   0.007112
    18  O    0.005844   0.009501   0.000089   0.003066   0.000246  -0.000005
    19  H   -0.000007  -0.000212   0.000023   0.010237  -0.000020   0.000000
    20  O   -0.035552   0.000014   0.003665  -0.000097  -0.000045  -0.000002
    21  H   -0.004189   0.000001  -0.000028   0.000007   0.000000   0.000000
    22  O    0.001594   0.004604  -0.037138   0.000002   0.000742   0.000232
    23  H   -0.000025  -0.000388  -0.001468  -0.000000  -0.004457  -0.001190
    24  O   -0.000001  -0.000098   0.001090   0.001723  -0.001229   0.002245
    25  H    0.000005   0.002926   0.001609   0.001802  -0.005480   0.004919
    26  H    0.000006   0.000025  -0.000046  -0.004565   0.000060  -0.000117
    27  H    0.000000   0.000021   0.000569  -0.000045  -0.000024   0.001455
    28  O    0.001135   0.000000   0.000090  -0.000000  -0.000001   0.000000
    29  H    0.000264  -0.000000   0.000003  -0.000000   0.000000  -0.000000
    30  H    0.000205  -0.000027  -0.000415   0.000000  -0.000008  -0.000005
              13         14         15         16         17         18
     1  O    0.005183   0.001603  -0.039424   0.001609  -0.000013   0.000742
     2  C    0.005065   0.005201   0.000630  -0.000914  -0.001278  -0.000383
     3  C    0.000005   0.352517  -0.061385   0.000009   0.000001   0.177874
     4  C   -0.000104  -0.037675   0.004847  -0.000046   0.000001  -0.039393
     5  C   -0.000029  -0.049202   0.387285  -0.000010  -0.000001  -0.026449
     6  C   -0.046323   0.000282   0.000357  -0.037275  -0.001533   0.001768
     7  H    0.000007  -0.002278  -0.000026  -0.000003   0.000003   0.005844
     8  H   -0.006422   0.000113  -0.000061   0.000284   0.005115   0.009501
     9  H   -0.000152  -0.000193   0.006443   0.000071   0.000101   0.000089
    10  H    0.000003   0.001845  -0.046981   0.000000  -0.000000   0.003066
    11  C    0.366382   0.000013  -0.000034   0.215813  -0.028521   0.000246
    12  H   -0.039429  -0.000000  -0.000031  -0.034829   0.007112  -0.000005
    13  H    0.584028  -0.000000   0.000009  -0.026988  -0.007133   0.000001
    14  H   -0.000000   0.581613   0.001753  -0.000000  -0.000000  -0.031183
    15  O    0.000009   0.001753   8.247095   0.000000  -0.000000   0.001988
    16  O   -0.026988  -0.000000   0.000000   8.226615   0.236550  -0.000000
    17  H   -0.007133  -0.000000  -0.000000   0.236550   0.382119  -0.000002
    18  O    0.000001  -0.031183   0.001988  -0.000000  -0.000002   8.300096
    19  H    0.000001  -0.002380   0.000087   0.000000   0.000000   0.232324
    20  O    0.000000   0.008164   0.000232   0.000000  -0.000000   0.001006
    21  H   -0.000000   0.000082   0.000069   0.000000  -0.000000  -0.000088
    22  O   -0.000208  -0.000058   0.000025  -0.021146   0.002714  -0.000035
    23  H    0.000993   0.000005   0.000001   0.058691  -0.004054   0.000002
    24  O   -0.000014   0.000003  -0.063565   0.000002  -0.000001   0.000001
    25  H    0.000599  -0.000065   0.007427   0.000137   0.000022   0.000151
    26  H    0.000010  -0.000061   0.087417  -0.000000   0.000000  -0.000036
    27  H   -0.000022  -0.000000   0.003537   0.000001   0.000000  -0.000000
    28  O   -0.000000   0.000001  -0.000000  -0.000000   0.000000   0.000000
    29  H    0.000000  -0.000000  -0.000000   0.000000  -0.000000  -0.000000
    30  H    0.000001  -0.000005   0.000000   0.000030  -0.000006  -0.000001
              19         20         21         22         23         24
     1  O   -0.000045   0.000013  -0.000000   0.001360   0.000030  -0.069711
     2  C   -0.000297  -0.044067  -0.001587   0.188436  -0.018022  -0.000907
     3  C   -0.031600  -0.042672   0.005351   0.002988  -0.000210  -0.000437
     4  C    0.007045   0.245799  -0.020475  -0.042619   0.004224   0.000041
     5  C   -0.003555  -0.000431  -0.000063   0.000120  -0.000001   0.006181
     6  C    0.000090   0.003803   0.000036  -0.024750  -0.010229   0.004680
     7  H   -0.000007  -0.035552  -0.004189   0.001594  -0.000025  -0.000001
     8  H   -0.000212   0.000014   0.000001   0.004604  -0.000388  -0.000098
     9  H    0.000023   0.003665  -0.000028  -0.037138  -0.001468   0.001090
    10  H    0.010237  -0.000097   0.000007   0.000002  -0.000000   0.001723
    11  C   -0.000020  -0.000045   0.000000   0.000742  -0.004457  -0.001229
    12  H    0.000000  -0.000002   0.000000   0.000232  -0.001190   0.002245
    13  H    0.000001   0.000000  -0.000000  -0.000208   0.000993  -0.000014
    14  H   -0.002380   0.008164   0.000082  -0.000058   0.000005   0.000003
    15  O    0.000087   0.000232   0.000069   0.000025   0.000001  -0.063565
    16  O    0.000000   0.000000   0.000000  -0.021146   0.058691   0.000002
    17  H    0.000000  -0.000000  -0.000000   0.002714  -0.004054  -0.000001
    18  O    0.232324   0.001006  -0.000088  -0.000035   0.000002   0.000001
    19  H    0.393282  -0.000127   0.000008   0.000004  -0.000001   0.000002
    20  O   -0.000127   8.343597   0.204289   0.000529  -0.000126  -0.000000
    21  H    0.000008   0.204289   0.327631   0.001394  -0.000021   0.000000
    22  O    0.000004   0.000529   0.001394   8.368164   0.213250   0.000001
    23  H   -0.000001  -0.000126  -0.000021   0.213250   0.336827  -0.000000
    24  O    0.000002  -0.000000   0.000000   0.000001  -0.000000   8.417762
    25  H    0.000007  -0.000001  -0.000000  -0.000028   0.000004   0.106986
    26  H   -0.000012   0.000016  -0.000002  -0.000002  -0.000000   0.177508
    27  H   -0.000000  -0.000000  -0.000000  -0.000000   0.000000   0.235599
    28  O   -0.000000  -0.025297   0.076278  -0.021268   0.000432   0.000000
    29  H    0.000000   0.001345  -0.004125   0.001166  -0.000018  -0.000000
    30  H    0.000000   0.004512  -0.008986   0.055423  -0.001029  -0.000000
              25         26         27         28         29         30
     1  O    0.151902   0.006735   0.002985   0.000000  -0.000000  -0.000005
     2  C    0.000803   0.000167  -0.000039   0.000073  -0.000294  -0.003836
     3  C    0.001081   0.002766  -0.000014   0.000073   0.000015   0.000041
     4  C   -0.000137  -0.000190  -0.000003   0.004721   0.000511  -0.000684
     5  C   -0.008153  -0.011577  -0.000202  -0.000000  -0.000000  -0.000001
     6  C   -0.015289  -0.000530  -0.000225  -0.000008  -0.000003   0.000564
     7  H    0.000005   0.000006   0.000000   0.001135   0.000264   0.000205
     8  H    0.002926   0.000025   0.000021   0.000000  -0.000000  -0.000027
     9  H    0.001609  -0.000046   0.000569   0.000090   0.000003  -0.000415
    10  H    0.001802  -0.004565  -0.000045  -0.000000  -0.000000   0.000000
    11  C   -0.005480   0.000060  -0.000024  -0.000001   0.000000  -0.000008
    12  H    0.004919  -0.000117   0.001455   0.000000  -0.000000  -0.000005
    13  H    0.000599   0.000010  -0.000022  -0.000000   0.000000   0.000001
    14  H   -0.000065  -0.000061  -0.000000   0.000001  -0.000000  -0.000005
    15  O    0.007427   0.087417   0.003537  -0.000000  -0.000000   0.000000
    16  O    0.000137  -0.000000   0.000001  -0.000000   0.000000   0.000030
    17  H    0.000022   0.000000   0.000000   0.000000  -0.000000  -0.000006
    18  O    0.000151  -0.000036  -0.000000   0.000000  -0.000000  -0.000001
    19  H    0.000007  -0.000012  -0.000000  -0.000000   0.000000   0.000000
    20  O   -0.000001   0.000016  -0.000000  -0.025297   0.001345   0.004512
    21  H   -0.000000  -0.000002  -0.000000   0.076278  -0.004125  -0.008986
    22  O   -0.000028  -0.000002  -0.000000  -0.021268   0.001166   0.055423
    23  H    0.000004  -0.000000   0.000000   0.000432  -0.000018  -0.001029
    24  O    0.106986   0.177508   0.235599   0.000000  -0.000000  -0.000000
    25  H    0.307239  -0.015669  -0.005547  -0.000000   0.000000   0.000000
    26  H   -0.015669   0.318677  -0.008707   0.000000  -0.000000   0.000000
    27  H   -0.005547  -0.008707   0.370487  -0.000000   0.000000   0.000000
    28  O   -0.000000   0.000000  -0.000000   8.312972   0.240864   0.214184
    29  H    0.000000  -0.000000   0.000000   0.240864   0.384481  -0.016830
    30  H    0.000000   0.000000   0.000000   0.214184  -0.016830   0.327513
 Mulliken charges:
               1
     1  O   -0.650635
     2  C    0.106873
     3  C    0.079578
     4  C    0.138547
     5  C    0.282947
     6  C    0.098180
     7  H    0.134950
     8  H    0.155836
     9  H    0.138761
    10  H    0.107942
    11  C   -0.088485
    12  H    0.152487
    13  H    0.164540
    14  H    0.169904
    15  O   -0.537695
    16  O   -0.618604
    17  H    0.408803
    18  O   -0.637124
    19  H    0.395145
    20  O   -0.668569
    21  H    0.424417
    22  O   -0.695495
    23  H    0.426777
    24  O   -0.817862
    25  H    0.462750
    26  H    0.448126
    27  H    0.400173
    28  O   -0.804250
    29  H    0.392620
    30  H    0.429363
 Sum of Mulliken charges =  -0.00000
 Mulliken charges with hydrogens summed into heavy atoms:
               1
     1  O   -0.187885
     2  C    0.245635
     3  C    0.249482
     4  C    0.273497
     5  C    0.390888
     6  C    0.254015
    11  C    0.228542
    15  O   -0.537695
    16  O   -0.209801
    18  O   -0.241979
    20  O   -0.244151
    22  O   -0.268718
    24  O    0.030437
    28  O    0.017733
 Electronic spatial extent (au):  <R**2>=           3097.4651
 Charge=              0.0000 electrons
 Dipole moment (field-independent basis, Debye):
    X=             -0.9571    Y=              3.5988    Z=              3.0771  Tot=              4.8307
 Quadrupole moment (field-independent basis, Debye-Ang):
   XX=            -85.8351   YY=            -81.1768   ZZ=            -81.3235
   XY=              2.5863   XZ=              4.8152   YZ=             -4.0391
 Traceless Quadrupole moment (field-independent basis, Debye-Ang):
   XX=             -3.0566   YY=              1.6017   ZZ=              1.4550
   XY=              2.5863   XZ=              4.8152   YZ=             -4.0391
 Octapole moment (field-independent basis, Debye-Ang**2):
  XXX=             50.8190  YYY=              7.4736  ZZZ=            -12.6820  XYY=            -11.0023
  XXY=             -2.8788  XXZ=             35.8035  XZZ=            -23.8552  YZZ=             21.3433
  YYZ=             31.4014  XYZ=             11.6673
 Hexadecapole moment (field-independent basis, Debye-Ang**3):
 XXXX=          -1623.6252 YYYY=          -1411.9092 ZZZZ=           -506.5523 XXXY=             -1.9826
 XXXZ=             87.6058 YYYX=             26.0648 YYYZ=             30.7334 ZZZX=             29.2215
 ZZZY=             -8.7711 XXYY=           -476.1837 XXZZ=           -388.6077 YYZZ=           -276.1623
 XXYZ=            -32.0128 YYXZ=             -9.3525 ZZXY=             14.1769
 N-N= 1.114070045725D+03 E-N=-4.200730396110D+03  KE= 8.330340713242D+02
 Calling FoFJK, ICntrl=      2127 FMM=F ISym2X=0 I1Cent= 0 IOpClX= 0 NMat=1 NMatS=1 NMatT=0.
 ***** Axes restored to original set *****
 -------------------------------------------------------------------
 Center     Atomic                   Forces (Hartrees/Bohr)
 Number     Number              X              Y              Z
 -------------------------------------------------------------------
      1        8           0.000232108    0.011541108    0.014706863
      2        6          -0.000613379    0.000262541   -0.000136738
      3        6           0.002175068   -0.002861587    0.001503690
      4        6          -0.000360910    0.000457940   -0.000036542
      5        6           0.001788545   -0.020591813   -0.003250700
      6        6           0.001970398    0.003775963    0.001556264
      7        1          -0.000011097    0.000047015   -0.000014845
      8        1           0.000552382    0.000481944    0.000013444
      9        1          -0.000044065    0.000032918   -0.000006608
     10        1          -0.000026146   -0.000659185   -0.000274123
     11        6           0.001420237    0.002161455    0.000175363
     12        1           0.000013436    0.000088519    0.000029786
     13        1           0.000109694    0.000094004    0.000067702
     14        1           0.000843331   -0.000150339    0.000553679
     15        8           0.004754879   -0.009395607   -0.000038129
     16        8           0.001285770    0.002237294   -0.000473857
     17        1           0.000078461    0.000083662   -0.000024143
     18        8          -0.001196728    0.001256824    0.000133993
     19        1          -0.000087731    0.000125375    0.000001484
     20        8           0.000028551    0.000206897    0.000022806
     21        1           0.000000235    0.000023068    0.000002253
     22        8          -0.000006484   -0.000085373   -0.000193145
     23        1           0.000000403    0.000002341   -0.000038970
     24        8          -0.010928687    0.009974199   -0.013230820
     25        1           0.000770800    0.000402007    0.001172458
     26        1          -0.001685976    0.000638734   -0.000892385
     27        1          -0.001128898   -0.000129324   -0.001328007
     28        8           0.000069917   -0.000013189   -0.000004775
     29        1           0.000006412    0.000000710   -0.000003482
     30        1          -0.000010527   -0.000008102    0.000007485
 -------------------------------------------------------------------
 Cartesian Forces:  Max     0.020591813 RMS     0.003882824

 GradGradGradGradGradGradGradGradGradGradGradGradGradGradGradGradGradGrad
 Berny optimization.
 FormGI is forming the generalized inverse of G from B-inverse, IUseBI=4.
 Internal  Forces:  Max     0.019379714 RMS     0.005179321
 Search for a local minimum.
 Step number   1 out of a maximum of  167
 All quantities printed in internal units (Hartrees-Bohrs-Radians)
 Mixed Optimization -- RFO/linear search
 Second derivative matrix not updated -- first step.
 ITU=  0
     Eigenvalues ---    0.00321   0.00346   0.00409   0.00472   0.00658
     Eigenvalues ---    0.00744   0.00792   0.00924   0.01277   0.01294
     Eigenvalues ---    0.01367   0.01816   0.02085   0.02667   0.02961
     Eigenvalues ---    0.03805   0.04012   0.04349   0.04442   0.04695
     Eigenvalues ---    0.04697   0.05116   0.05245   0.05307   0.05791
     Eigenvalues ---    0.05987   0.06421   0.06682   0.06976   0.07336
     Eigenvalues ---    0.07611   0.07845   0.08338   0.08586   0.09315
     Eigenvalues ---    0.09689   0.09789   0.11025   0.11711   0.12290
     Eigenvalues ---    0.12668   0.13814   0.14006   0.15042   0.15688
     Eigenvalues ---    0.15960   0.16000   0.16000   0.16905   0.17402
     Eigenvalues ---    0.18592   0.19254   0.20209   0.20640   0.21001
     Eigenvalues ---    0.21559   0.22060   0.26927   0.27735   0.28284
     Eigenvalues ---    0.29087   0.29801   0.32647   0.33463   0.33535
     Eigenvalues ---    0.33751   0.33914   0.34089   0.34161   0.38403
     Eigenvalues ---    0.40977   0.41269   0.41782   0.42733   0.43072
     Eigenvalues ---    0.45119   0.48823   0.49813   0.51658   0.53151
     Eigenvalues ---    0.53283   0.53511   0.53536   0.82615
 RFO step:  Lambda=-3.02492622D-02 EMin= 3.20711284D-03
 Linear search not attempted -- first point.
 Maximum step size (   0.300) exceeded in Quadratic search.
    -- Step size scaled by   0.953
 Iteration  1 RMS(Cart)=  0.16080326 RMS(Int)=  0.00553551
 Iteration  2 RMS(Cart)=  0.01232081 RMS(Int)=  0.00083087
 Iteration  3 RMS(Cart)=  0.00013322 RMS(Int)=  0.00082902
 Iteration  4 RMS(Cart)=  0.00000023 RMS(Int)=  0.00082902
 Variable       Old X    -DE/DX   Delta X   Delta X   Delta X     New X
                                 (Linear)    (Quad)   (Total)
    R1        2.68511   0.00182   0.00000   0.00379   0.00365   2.68876
    R2        1.93306   0.01075   0.00000   0.02453   0.02493   1.95798
    R3        2.91985   0.01205   0.00000   0.03912   0.03897   2.95882
    R4        2.91656   0.00654   0.00000   0.01595   0.01564   2.93220
    R5        2.07752   0.00001   0.00000   0.00004   0.00004   2.07756
    R6        2.71742   0.00010   0.00000   0.00458   0.00437   2.72179
    R7        2.91043   0.00551   0.00000   0.01905   0.01936   2.92978
    R8        2.87228   0.00218   0.00000   0.00459   0.00442   2.87670
    R9        2.08122   0.00022   0.00000   0.00058   0.00058   2.08180
   R10        2.69201   0.00050   0.00000   0.00107   0.00107   2.69308
   R11        2.08247  -0.00001   0.00000  -0.00004  -0.00004   2.08243
   R12        2.65994  -0.00012   0.00000   0.00204   0.00201   2.66195
   R13        2.09675  -0.00003   0.00000  -0.00007  -0.00007   2.09668
   R14        2.35185   0.00146   0.00000  -0.00039  -0.00091   2.35093
   R15        2.07181   0.00012   0.00000   0.00032   0.00032   2.07213
   R16        2.89819   0.00384   0.00000   0.01152   0.01153   2.90972
   R17        2.07060  -0.00003   0.00000  -0.00008  -0.00008   2.07052
   R18        2.07475  -0.00003   0.00000  -0.00007  -0.00007   2.07468
   R19        2.70247   0.00242   0.00000   0.00523   0.00523   2.70771
   R20        2.88475   0.01872   0.00000   0.12839   0.12828   3.01303
   R21        1.83513  -0.00000   0.00000  -0.00000  -0.00000   1.83513
   R22        1.83390   0.00003   0.00000   0.00005   0.00005   1.83395
   R23        1.86173  -0.00037   0.00000  -0.00307  -0.00284   1.85889
   R24        3.44913  -0.00048   0.00000  -0.02319  -0.02293   3.42620
   R25        1.84928   0.00001   0.00000   0.00001   0.00001   1.84929
   R26        3.44241  -0.00029   0.00000  -0.00359  -0.00357   3.43885
   R27        2.80597   0.01550   0.00000   0.10905   0.10938   2.91536
   R28        1.90952   0.01938   0.00000   0.03854   0.03853   1.94805
   R29        1.83180   0.00057   0.00000   0.00096   0.00096   1.83277
   R30        1.83157   0.00000   0.00000   0.00001   0.00001   1.83157
   R31        1.85760  -0.00073   0.00000  -0.00234  -0.00217   1.85542
    A1        1.96956   0.01514   0.00000   0.05599   0.05653   2.02610
    A2        1.97942   0.01389   0.00000   0.09127   0.09110   2.07053
    A3        1.87663  -0.00509   0.00000  -0.02032  -0.02122   1.85542
    A4        1.86466  -0.00086   0.00000  -0.00405  -0.00312   1.86154
    A5        1.90254  -0.00003   0.00000   0.00065  -0.00103   1.90151
    A6        1.91074  -0.00993   0.00000  -0.06230  -0.06158   1.84916
    A7        1.92956   0.00214   0.00000  -0.00516  -0.00581   1.92375
    A8        2.00281   0.00031   0.00000   0.02276   0.02233   2.02515
    A9        1.85170  -0.00071   0.00000  -0.02150  -0.02121   1.83048
   A10        1.86836   0.00058   0.00000   0.00790   0.00790   1.87625
   A11        1.83682  -0.00041   0.00000  -0.01012  -0.00948   1.82734
   A12        1.96333  -0.00029   0.00000  -0.00403  -0.00457   1.95876
   A13        1.93839   0.00051   0.00000   0.00347   0.00338   1.94178
   A14        1.97912   0.01522   0.00000   0.09851   0.09817   2.07730
   A15        1.85400  -0.00506   0.00000  -0.01964  -0.02041   1.83359
   A16        1.95952  -0.00022   0.00000  -0.01189  -0.01156   1.94796
   A17        1.83568   0.00026   0.00000   0.00277   0.00139   1.83707
   A18        1.88411  -0.01143   0.00000  -0.06289  -0.06184   1.82227
   A19        1.94841   0.00169   0.00000  -0.00396  -0.00454   1.94387
   A20        1.98921  -0.00122   0.00000   0.00632   0.00379   1.99300
   A21        2.09147   0.01092   0.00000   0.04902   0.04678   2.13825
   A22        2.10535  -0.00605   0.00000  -0.00151  -0.00462   2.10073
   A23        1.95542   0.00116   0.00000   0.01802   0.01635   1.97176
   A24        1.85615  -0.00250   0.00000  -0.00629  -0.00592   1.85023
   A25        1.85811   0.00456   0.00000   0.01392   0.01479   1.87290
   A26        1.89225   0.00212   0.00000   0.00697   0.00688   1.89913
   A27        1.98330  -0.00533   0.00000  -0.02438  -0.02362   1.95969
   A28        1.91431   0.00010   0.00000  -0.00768  -0.00809   1.90623
   A29        1.91939  -0.00046   0.00000  -0.00212  -0.00211   1.91728
   A30        1.90392  -0.00050   0.00000  -0.00099  -0.00100   1.90292
   A31        1.97595   0.00229   0.00000   0.00910   0.00910   1.98505
   A32        1.88213   0.00021   0.00000  -0.00066  -0.00066   1.88147
   A33        1.83806  -0.00096   0.00000  -0.00458  -0.00457   1.83349
   A34        1.94142  -0.00068   0.00000  -0.00130  -0.00132   1.94011
   A35        1.88025   0.00293   0.00000   0.00658   0.00528   1.88554
   A36        1.88324   0.00021   0.00000   0.00105   0.00105   1.88429
   A37        1.88897   0.00004   0.00000   0.00020   0.00020   1.88917
   A38        1.88752  -0.00015   0.00000   0.02012   0.02026   1.90778
   A39        1.88133   0.00030   0.00000  -0.01016  -0.00998   1.87134
   A40        1.98805   0.00056   0.00000   0.03282   0.03234   2.02038
   A41        2.16605  -0.00170   0.00000  -0.01380  -0.01341   2.15264
   A42        1.57718   0.01086   0.00000   0.10557   0.10340   1.68058
   A43        1.98654  -0.00077   0.00000   0.01049   0.01068   1.99722
   A44        1.83651  -0.00522   0.00000  -0.01547  -0.01733   1.81917
   A45        2.74455  -0.00385   0.00000   0.00834   0.00720   2.75175
   A46        2.57642   0.01333   0.00000   0.07043   0.06781   2.64423
   A47        1.87546   0.00041   0.00000   0.00055   0.00056   1.87602
   A48        1.52582  -0.00026   0.00000  -0.01995  -0.01958   1.50625
   A49        1.82065   0.00055   0.00000   0.00197   0.00181   1.82246
   A50        2.72863   0.00169   0.00000   0.00094   0.00065   2.72929
   A51        2.90101   0.00267   0.00000   0.02861   0.02830   2.92931
   A52        3.04779  -0.00405   0.00000   0.00015   0.00107   3.04886
    D1       -1.43724   0.00607   0.00000   0.10010   0.09935  -1.33789
    D2        2.78137   0.00441   0.00000   0.08560   0.08560   2.86697
    D3        0.74080   0.00330   0.00000   0.09077   0.09070   0.83150
    D4        2.33832  -0.01075   0.00000  -0.10587  -0.10935   2.22898
    D5        0.56206   0.01004   0.00000   0.10363   0.10198   0.66405
    D6       -1.44548   0.00487   0.00000   0.06080   0.05976  -1.38572
    D7        2.70340   0.00630   0.00000   0.08599   0.08513   2.78853
    D8       -1.54264   0.00494   0.00000   0.05999   0.05927  -1.48337
    D9        2.73300  -0.00023   0.00000   0.01716   0.01705   2.75005
   D10        0.59870   0.00120   0.00000   0.04235   0.04242   0.64111
   D11        2.66881   0.00553   0.00000   0.07869   0.07829   2.74710
   D12        0.66127   0.00035   0.00000   0.03585   0.03607   0.69733
   D13       -1.47304   0.00178   0.00000   0.06104   0.06143  -1.41160
   D14       -1.07427   0.00249   0.00000   0.01701   0.01629  -1.05798
   D15        0.96876   0.00142   0.00000   0.02413   0.02307   0.99182
   D16        3.10195  -0.00048   0.00000   0.00303   0.00215   3.10410
   D17        1.01572   0.00497   0.00000   0.05053   0.05061   1.06633
   D18        3.05875   0.00390   0.00000   0.05765   0.05738   3.11614
   D19       -1.09124   0.00201   0.00000   0.03656   0.03647  -1.05477
   D20        3.12839   0.00147   0.00000   0.00629   0.00737   3.13577
   D21       -1.11176   0.00040   0.00000   0.01341   0.01415  -1.09761
   D22        1.02143  -0.00150   0.00000  -0.00769  -0.00677   1.01466
   D23       -2.91397  -0.00442   0.00000  -0.02057  -0.02090  -2.93487
   D24        0.89346  -0.00276   0.00000  -0.02345  -0.02414   0.86932
   D25       -0.76395   0.00604   0.00000   0.05089   0.05054  -0.71341
   D26        3.04349   0.00771   0.00000   0.04800   0.04730   3.09079
   D27        1.33227   0.00100   0.00000   0.00867   0.00896   1.34124
   D28       -1.14348   0.00267   0.00000   0.00579   0.00572  -1.13776
   D29        0.63266   0.00165   0.00000   0.02886   0.02711   0.65977
   D30        2.65109   0.00347   0.00000   0.05704   0.05663   2.70772
   D31       -1.54983  -0.00007   0.00000   0.02290   0.02331  -1.52652
   D32        2.65277   0.00085   0.00000   0.01479   0.01340   2.66617
   D33       -1.61200   0.00267   0.00000   0.04297   0.04293  -1.56907
   D34        0.47027  -0.00087   0.00000   0.00883   0.00961   0.47987
   D35       -1.55930   0.00137   0.00000   0.01182   0.01042  -1.54888
   D36        0.45912   0.00318   0.00000   0.04000   0.03995   0.49907
   D37        2.54139  -0.00036   0.00000   0.00586   0.00663   2.54801
   D38       -2.68867   0.00229   0.00000  -0.00315  -0.00226  -2.69093
   D39        0.90915  -0.00391   0.00000  -0.12015  -0.12058   0.78857
   D40        1.56586   0.00326   0.00000   0.01761   0.01823   1.58408
   D41       -1.11951  -0.00294   0.00000  -0.09939  -0.10009  -1.21960
   D42       -0.54706   0.00307   0.00000   0.02221   0.02273  -0.52433
   D43        3.05076  -0.00312   0.00000  -0.09479  -0.09559   2.95516
   D44        3.01158   0.00020   0.00000   0.01536   0.01504   3.02663
   D45        0.79608  -0.00042   0.00000  -0.01703  -0.01666   0.77942
   D46       -1.25762  -0.00004   0.00000  -0.00394  -0.00399  -1.26160
   D47        1.13720  -0.00291   0.00000  -0.02226  -0.02290   1.11430
   D48       -2.95187   0.00806   0.00000   0.04961   0.04894  -2.90293
   D49       -0.94260   0.00255   0.00000   0.01369   0.01361  -0.92900
   D50       -2.60489   0.01621   0.00000   0.16663   0.16833  -2.43655
   D51        1.02353   0.00792   0.00000   0.03847   0.03959   1.06311
   D52       -1.18435  -0.00034   0.00000  -0.00182  -0.00120  -1.18555
   D53        0.87647  -0.00065   0.00000  -0.00445  -0.00383   0.87264
   D54        3.04823  -0.00028   0.00000  -0.00040   0.00023   3.04845
   D55        0.97647   0.00098   0.00000   0.01533   0.01469   0.99116
   D56        3.03729   0.00066   0.00000   0.01270   0.01206   3.04935
   D57       -1.07414   0.00104   0.00000   0.01676   0.01612  -1.05802
   D58        3.09741   0.00012   0.00000   0.00192   0.00194   3.09935
   D59       -1.12495  -0.00020   0.00000  -0.00071  -0.00069  -1.12564
   D60        1.04680   0.00018   0.00000   0.00335   0.00337   1.05017
   D61       -1.17801  -0.00015   0.00000  -0.00183  -0.00184  -1.17985
   D62        3.00757  -0.00026   0.00000  -0.00139  -0.00138   3.00619
   D63        0.97320   0.00038   0.00000   0.00266   0.00265   0.97585
   D64        0.74640   0.01260   0.00000   0.14973   0.14933   0.89573
   D65        1.30484  -0.00051   0.00000  -0.01079  -0.01063   1.29421
   D66       -0.48754  -0.00127   0.00000  -0.00990  -0.00967  -0.49721
   D67       -0.51554   0.00099   0.00000   0.00969   0.00962  -0.50592
   D68       -2.86714   0.00188   0.00000  -0.00016  -0.00031  -2.86745
   D69       -0.40613  -0.00574   0.00000  -0.06239  -0.06406  -0.47018
   D70       -2.27102  -0.00490   0.00000  -0.09571  -0.09751  -2.36852
   D71       -0.19641   0.00120   0.00000  -0.02949  -0.03036  -0.22677
   D72        1.80817   0.00299   0.00000   0.01139   0.01076   1.81893
   D73        0.26116   0.00079   0.00000  -0.00170  -0.00159   0.25957
   D74       -1.61267   0.00042   0.00000   0.00272   0.00272  -1.60995
         Item               Value     Threshold  Converged?
 Maximum Force            0.019380     0.000450     NO 
 RMS     Force            0.005179     0.000300     NO 
 Maximum Displacement     0.809507     0.001800     NO 
 RMS     Displacement     0.166087     0.001200     NO 
 Predicted change in Energy=-1.959341D-02
 GradGradGradGradGradGradGradGradGradGradGradGradGradGradGradGradGradGrad

                          Input orientation:                          
 ---------------------------------------------------------------------
 Center     Atomic      Atomic             Coordinates (Angstroms)
 Number     Number       Type             X           Y           Z
 ---------------------------------------------------------------------
      1          8           0       -1.786868    0.595145    0.570931
      2          6           0        0.596966    0.441646   -0.099342
      3          6           0       -0.238516   -1.948400    0.795131
      4          6           0        0.923144   -1.020822    0.354895
      5          6           0       -1.533716   -1.817541    0.006026
      6          6           0       -0.512889    1.223519    0.652011
      7          1           0        1.558666   -0.908151    1.248071
      8          1           0       -0.260397    1.258802    1.718483
      9          1           0        0.332892    0.382290   -1.164899
     10          1           0       -2.441814   -2.114241    0.570254
     11          6           0       -0.676001    2.659942    0.121973
     12          1           0       -0.886152    2.638211   -0.953136
     13          1           0       -1.532510    3.130876    0.621915
     14          1           0        0.117461   -2.968695    0.580898
     15          8           0       -1.556681   -1.758405   -1.236416
     16          8           0        0.504618    3.461023    0.254205
     17          1           0        0.659762    3.611764    1.200915
     18          8           0       -0.436692   -1.753181    2.192835
     19          1           0       -1.227513   -2.248431    2.459617
     20          8           0        1.584114   -1.743334   -0.657712
     21          1           0        2.456274   -1.325935   -0.838689
     22          8           0        1.805294    1.206485    0.072287
     23          1           0        1.566626    2.150664   -0.023757
     24          8           0       -3.057804    0.269466   -1.594553
     25          1           0       -2.291556    0.702638   -0.327558
     26          1           0       -2.645876   -0.673330   -1.658869
     27          1           0       -2.769769    0.711523   -2.408337
     28          8           0        3.906347   -0.242784   -0.944934
     29          1           0        4.466508   -0.429788   -0.176396
     30          1           0        3.311031    0.477700   -0.644061
 ---------------------------------------------------------------------
                    Distance matrix (angstroms):
                    1          2          3          4          5
     1  O    0.000000
     2  C    2.481026   0.000000
     3  C    2.986181   2.685225   0.000000
     4  C    3.162623   1.565739   1.550374   0.000000
     5  C    2.490834   3.107223   1.522286   2.606267   0.000000
     6  C    1.422831   1.551656   3.186979   2.680958   3.272221
     7  H    3.729747   2.135965   2.125355   1.101974   3.454344
     8  H    2.021739   2.169632   3.337544   2.908062   3.744026
     9  H    2.748052   1.099396   3.098442   2.151023   3.113607
    10  H    2.787423   4.026798   2.220945   3.544698   1.109517
    11  C    2.387252   2.567150   4.677751   4.019893   4.560370
    12  H    2.703366   2.784511   4.951048   4.286376   4.603592
    13  H    2.548966   3.505258   5.244374   4.830955   4.986597
    14  H    4.040733   3.510424   1.101643   2.120002   2.093327
    15  O    2.976354   3.281975   2.429165   3.037405   1.244061
    16  O    3.682999   3.041408   5.486958   4.502471   5.663889
    17  H    3.934827   3.426989   5.646856   4.716564   5.976324
    18  O    3.157243   3.337633   1.425118   2.400735   2.447394
    19  H    3.459181   4.136848   1.959247   3.249954   2.509887
    20  O    4.282705   2.461783   2.339826   1.408644   3.188561
    21  H    4.866397   2.669832   3.212276   1.966780   4.107948
    22  O    3.677772   1.440310   3.827919   2.412251   4.505342
    23  H    3.744224   1.966391   4.553179   3.258185   5.035837
    24  O    2.531929   3.952549   4.310209   4.616615   3.039785
    25  H    1.036121   2.909253   3.536015   3.710842   2.652716
    26  H    2.705352   3.767137   3.666511   4.112651   2.306078
    27  H    3.139375   4.091356   4.872847   4.926873   3.708523
    28  O    5.950854   3.483601   4.807998   3.345804   5.742688
    29  H    6.380729   3.967203   5.038581   3.631395   6.161317
    30  H    5.242000   2.768423   4.533929   2.990901   5.400214
                    6          7          8          9         10
     6  C    0.000000
     7  H    3.031608   0.000000
     8  H    1.096522   2.868095   0.000000
     9  H    2.173517   2.998365   3.071508   0.000000
    10  H    3.855915   4.232958   4.177850   4.116117   0.000000
    11  C    1.539759   4.358110   2.164431   2.803855   5.109978
    12  H    2.171906   4.837266   3.071138   2.572954   5.227486
    13  H    2.162994   5.124566   2.515033   3.771889   5.323604
    14  H    4.239936   2.601544   4.394156   3.784616   2.698165
    15  O    3.680697   4.074432   4.417614   2.856252   2.043070
    16  O    2.489979   4.603094   2.753023   3.394399   6.313868
    17  H    2.716638   4.608675   2.578953   4.016643   6.542526
    18  O    3.352714   2.363919   3.054199   4.053009   2.604544
    19  H    3.979015   3.320691   3.712852   4.742645   2.249939
    20  O    3.861996   2.080910   4.249864   2.518149   4.225349
    21  H    4.187820   2.309721   4.538755   2.744667   5.157306
    22  O    2.389633   2.432073   2.641928   2.092342   5.414160
    23  H    2.375004   3.312697   2.677468   2.439559   5.883014
    24  O    3.526167   5.547891   4.447525   3.419670   3.278398
    25  H    2.096312   4.461105   2.936189   2.773353   2.960313
    26  H    3.672579   5.116993   4.564006   3.198656   2.662115
    27  H    3.836844   5.893048   4.860772   3.358725   4.118799
    28  O    4.922391   3.280791   5.168202   3.634376   6.789499
    29  H    5.311694   3.273146   5.365216   4.327054   7.149810
    30  H    4.105900   2.927717   4.352796   3.024845   6.425570
                   11         12         13         14         15
    11  C    0.000000
    12  H    1.095671   0.000000
    13  H    1.097874   1.772366   0.000000
    14  H    5.702784   5.898974   6.318927   0.000000
    15  O    4.705593   4.456466   5.230587   2.751397   0.000000
    16  O    1.432857   2.017160   2.096210   6.449643   5.806319
    17  H    1.963248   2.824462   2.317876   6.631813   6.300152
    18  O    4.880717   5.420653   5.246201   2.093538   3.607516
    19  H    5.464510   5.970149   5.692724   2.420191   3.742878
    20  O    5.010476   5.038594   5.925260   2.277441   3.193700
    21  H    5.159577   5.186460   6.156859   3.191227   4.055740
    22  O    2.876080   3.216398   3.891826   4.532062   4.669706
    23  H    2.304339   2.667877   3.313963   5.354766   5.148437
    24  O    3.786004   3.276956   3.927711   5.029968   2.548311
    25  H    2.577428   2.472438   2.715508   4.484121   2.724481
    26  H    4.261750   3.815887   4.573132   4.233354   1.594428
    27  H    3.818726   3.062311   4.070197   5.551182   2.990907
    28  O    5.528293   5.591802   6.589215   4.910642   5.676861
    29  H    6.006735   6.218273   7.021670   5.092519   6.258409
    30  H    4.609274   4.730717   5.665855   4.855620   5.389403
                   16         17         18         19         20
    16  O    0.000000
    17  H    0.971108   0.000000
    18  O    5.642010   5.564958   0.000000
    19  H    6.360974   6.283949   0.970486   0.000000
    20  O    5.392795   5.743343   3.494192   4.228252   0.000000
    21  H    5.283782   5.636339   4.212117   5.029921   0.983685
    22  O    2.609176   2.893340   4.275845   5.180126   3.046842
    23  H    1.709434   2.111170   4.915951   5.772902   3.945304
    24  O    5.127845   5.727643   5.030471   5.111366   5.145525
    25  H    3.970608   4.416958   3.977933   4.196348   4.594845
    26  H    5.538803   6.121081   4.569704   4.631913   4.476610
    27  H    5.036913   5.761924   5.717412   5.902276   5.295971
    28  O    5.169902   5.477456   5.566766   6.478434   2.779732
    29  H    5.569597   5.720354   5.604106   6.532833   3.203945
    30  H    4.193215   4.500613   5.202907   6.137018   2.813435
                   21         22         23         24         25
    21  H    0.000000
    22  O    2.768899   0.000000
    23  H    3.679990   0.978602   0.000000
    24  O    5.789791   5.225522   5.233704   0.000000
    25  H    5.188280   4.147037   4.132147   1.542742   0.000000
    26  H    5.208697   5.132594   5.328574   1.030866   1.947106
    27  H    5.824650   5.227780   5.153801   0.969857   2.135043
    28  O    1.813069   2.747643   3.471521   7.013116   6.299919
    29  H    2.298424   3.133894   3.884759   7.688654   6.853953
    30  H    2.005391   1.819759   2.495302   6.442736   5.616026
                   26         27         28         29         30
    26  H    0.000000
    27  H    1.579516   0.000000
    28  O    6.605051   6.900926   0.000000
    29  H    7.269323   7.658189   0.969227   0.000000
    30  H    6.151377   6.335887   0.981847   1.541874   0.000000
 Stoichiometry    C6H16O8
 Framework group  C1[X(C6H16O8)]
 Deg. of freedom    84
 Full point group                 C1      NOp   1
[...]
 09,0.00007716,-0.00075191,-0.00014345,-0.00009854,0.00001598,0.0005577
 3,0.00164589,0.00136409,0.00006119,-0.00157525,0.00009010,0.00044116,0
 .00060844,-0.00002299,-0.00026667,-0.00019724,0.00007953,-0.00015865,0
 .00091807,0.00000970,0.00045161,-0.00052985,-0.00012262,-0.06320063,0.
 59460057,-0.01273636,-0.00185577,-0.01687212,0.00028247,-0.00053383,-0
 .00082891,0.00060272,-0.00060442,-0.00060769,0.00058503,-0.00059582,-0
 .00003476,-0.00015210,-0.00033519,-0.00025977,0.00539828,0.00270753,-0
 .00227934,0.00001406,0.00005459,0.00003973,-0.00156048,-0.00074785,0.0
 0009535,-0.00032670,0.00008422,-0.00002840,0.00007417,-0.00013668,0.00
 001828,-0.00000730,0.00102344,-0.00020658,-0.00032462,-0.00043979,-0.0
 0013427,-0.00002001,0.00012915,-0.00000851,-0.00003894,0.00013574,0.00
 006192,-0.00132613,0.00157252,0.00308004,-0.00079747,-0.00121421,0.000
 35223,0.00007002,0.00030546,0.00004772,-0.00080521,0.00177500,0.000077
 84,0.00058923,-0.00248989,0.00114396,-0.00061584,0.00043965,0.00055938
 ,0.00027070,0.00002907,-0.00012040,-0.00126414,0.00006974,0.00085960,0
 .00024190,0.00005636,-0.00039554,-0.17351536,-0.11849554,0.39063252,-0
 .10884423,-0.01626806,-0.12155291,-0.00110893,0.00079642,-0.00102504,0
 .00000417,0.00043726,0.00040371,-0.00077594,0.00100725,-0.00007295,0.0
 0106699,0.00108445,0.00091887,-0.02557543,-0.00356046,-0.03299843,0.00
 012741,-0.00021284,0.00013294,-0.00340636,-0.00190927,0.00176731,-0.00
 045324,0.00017281,0.00091799,-0.00028511,-0.00009622,0.00013413,0.0015
 6685,-0.00146534,-0.00002405,0.00039604,-0.00072033,0.00016649,0.00005
 105,0.00003627,0.00040050,0.00005293,-0.00021537,-0.00004891,-0.001566
 56,0.00030813,-0.00136072,0.00057751,0.00184067,-0.00005569,0.00000679
 ,-0.00012287,-0.00014010,0.00071466,-0.00251467,-0.00031786,-0.0009701
 7,0.00471598,-0.00131138,0.00064501,-0.00059763,-0.00035834,-0.0003246
 8,-0.00000713,0.00006094,0.00243620,0.00033285,0.00004050,-0.00015937,
 -0.00042242,0.00011617,-0.00876509,-0.00373216,0.00075782,0.14019296,-
 0.00695893,-0.02480792,0.02417704,0.00132202,0.00090039,0.00142827,0.0
 0016295,0.00023175,0.00110686,0.00055237,-0.00001615,-0.00002517,0.001
 59683,-0.00261615,0.00274054,-0.00928215,-0.00235517,-0.01671054,-0.00
 018800,-0.00006525,-0.00004177,-0.00294788,-0.00147586,0.00043483,0.00
 016293,0.00036193,-0.00026246,0.00000514,-0.00003944,-0.00020009,-0.00
 347308,-0.00060476,-0.00312978,-0.00035502,-0.00054652,0.00127450,0.00
 014169,-0.00042726,-0.00030822,-0.00007509,-0.00011050,-0.00036567,-0.
 00130911,0.00215493,-0.00115898,0.00195205,0.00030276,0.00077090,0.000
 19029,0.00026338,-0.00006740,0.00076428,-0.00431958,-0.00024852,0.0005
 1928,0.00588755,0.00036266,-0.00029999,-0.00007622,-0.00004610,0.00019
 168,0.00010209,-0.00005041,-0.00024698,-0.00092580,-0.00025346,-0.0004
 7301,0.00072561,0.00012942,-0.00107357,-0.01165502,0.00137004,0.020003
 31,0.03827970,-0.15885348,0.00700401,-0.34178416,0.00124854,0.00280253
 ,0.00447842,-0.00038903,0.00111978,0.00106871,-0.00049987,0.00077781,-
 0.00025280,0.00115889,-0.00061433,0.00373604,-0.00073282,-0.00364506,0
 .00953131,-0.00021707,-0.00001201,-0.00013600,0.00352412,0.00166818,0.
 00123189,0.00032882,-0.00016258,-0.00117306,-0.00002165,0.00010926,-0.
 00025423,0.00200732,-0.00203795,0.00338366,0.00024840,0.00097706,-0.00
 106231,-0.00009815,-0.00049351,-0.00027610,-0.00004561,-0.00024976,-0.
 00016903,-0.00260928,0.00277825,-0.00336508,0.00112323,0.00244683,-0.0
 0141314,-0.00034622,-0.00048264,-0.00015988,0.00112003,-0.00357753,-0.
 00034638,-0.00095427,0.00419738,-0.00271740,0.00046274,-0.00070402,-0.
 00061930,-0.00012455,0.00003544,0.00007448,0.00207775,-0.00080970,-0.0
 0235003,-0.00042028,-0.00002988,0.00073436,0.00170743,-0.00091618,0.00
 343532,0.14814428,-0.00657008,0.32905938,-0.00151162,0.00159491,-0.000
 81505,-0.00088332,-0.00068417,-0.00104298,-0.00021319,-0.00084579,-0.0
 0029115,-0.00052662,-0.00007373,0.00011722,-0.00079975,0.00188204,-0.0
 0543291,0.00031831,-0.00058204,-0.00035391,0.00020145,0.00001105,0.000
 07495,-0.00011876,0.00012015,0.00010717,-0.00006003,-0.00032014,0.0003
 2958,-0.00037308,-0.00027891,0.00136528,0.00020382,-0.00031054,0.00063
 772,0.00029455,0.00020493,-0.00027980,-0.00004589,0.00012572,0.0000399
 7,0.00017911,0.00012613,0.00028400,-0.00201751,-0.00012406,0.00279457,
 -0.00033067,0.00032079,-0.00012279,-0.00002500,-0.00013796,-0.00001910
 ,0.00010056,0.00083563,0.00104945,0.00038142,-0.00067284,-0.00007360,0
 .00059007,0.00009175,-0.00003286,-0.00040435,-0.00010086,0.00009073,0.
 00073385,0.00089960,0.00031821,0.00018241,-0.00043907,-0.00010570,-0.0
 6739855,0.14973885,0.03974180,0.00265821,-0.00295594,0.00051359,0.0641
 4975,0.00209796,-0.00101683,0.00338849,-0.00068743,0.00026334,-0.00070
 762,0.00192079,0.00044162,-0.00063484,0.00047708,0.00110286,-0.0001036
 1,-0.00040300,-0.00503909,0.00931515,-0.00111152,-0.00030485,0.0000722
 1,-0.00014235,-0.00031521,0.00005705,0.00028997,0.00015409,0.00014132,
 -0.00018708,0.00030378,0.00033452,-0.00046380,0.00142985,0.00003229,-0
 .00046941,-0.00017249,-0.00073755,-0.00011066,-0.00032467,0.00023631,0
 .00006684,-0.00007335,0.00005796,-0.00017010,-0.00016634,-0.00018331,0
 .00005117,0.00277195,-0.00640683,0.00053819,0.00013088,0.00015554,0.00
 000074,0.00000165,-0.00001529,-0.00059488,-0.00201332,-0.00205106,-0.0
 0038958,0.00192618,-0.00037143,-0.00051694,-0.00072981,0.00013427,0.00
 026968,0.00022464,-0.00012317,0.00063465,-0.00055769,0.00015210,-0.000
 27758,0.00016692,0.00004307,0.11850768,-0.40248370,-0.04525980,-0.0021
 9842,-0.00065030,-0.00728574,-0.12825115,0.42676693,-0.00022779,0.0025
 1515,-0.00068506,-0.00020177,-0.00023853,-0.00000262,-0.00094744,0.000
 22993,0.00000516,-0.00050981,-0.00006935,0.00019864,-0.00206262,0.0023
 5710,-0.00474516,-0.00091096,-0.00060561,-0.00008847,0.00011014,0.0000
 4556,-0.00002209,0.00008492,0.00009474,0.00001201,-0.00011806,-0.00006
 636,0.00016809,0.00004859,0.00003615,0.00009452,0.00027153,-0.00028782
 ,0.00043209,0.00006703,0.00003428,-0.00021211,-0.00000990,0.00004499,0
 .00004432,0.00005337,0.00004850,0.00008749,0.00222336,-0.00222037,-0.0
 0043527,-0.00004665,0.00034880,-0.00016230,-0.00003419,-0.00009644,-0.
 00001606,0.00057153,0.00039520,0.00062290,-0.00016732,-0.00034290,-0.0
 0038790,0.00049951,0.00007406,-0.00035908,-0.00023325,-0.00009185,0.00
 011439,0.00041494,0.00039306,-0.00014129,0.00005301,-0.00016034,0.0000
 5905,0.04894302,-0.09592182,-0.06393759,0.00173898,-0.00695856,-0.0007
 0980,-0.03842602,0.05941833,0.06512188,-0.00186570,-0.00081388,-0.0018
 8315,-0.00078995,-0.00047323,-0.00113517,0.00028706,0.00001518,-0.0001
 0842,-0.00001021,0.00043309,0.00017292,-0.00003965,0.00021623,-0.00005
 022,0.00058934,0.00022957,-0.00056465,0.00007464,-0.00013619,0.0000854
 8,-0.00015150,-0.00005737,0.00017022,-0.00014945,0.00023486,0.00036456
 ,-0.00009028,-0.00008080,0.00010666,-0.00050512,-0.00002568,-0.0009429
 8,0.00008513,-0.00064329,0.00013758,0.00007429,0.00008349,0.00029831,-
 0.00002084,-0.00004561,0.00000767,-0.00060521,0.00016102,0.00018350,0.
 00013162,0.00023890,0.00029318,0.00005882,-0.00007659,-0.00001189,-0.0
 0018040,-0.00008124,0.00004105,0.00008575,0.00004463,-0.00003237,0.000
 12587,-0.00023844,0.00003477,-0.00013810,0.00004658,-0.00000986,0.0005
 5560,0.00022901,0.00037528,-0.00008593,-0.00015129,-0.00014708,-0.0669
 3587,-0.09230312,0.14473294,0.00190800,0.00215540,0.00189373,0.0046471
 9,0.01138275,-0.01122100,0.06302200,-0.00206071,-0.00091102,-0.0023278
 9,0.00030928,0.00014969,0.00039600,-0.00004321,0.00012459,0.00003503,0
 .00008220,0.00001909,-0.00002818,0.00028398,-0.00019740,0.00033053,0.0
 0069080,0.00080454,-0.00006728,-0.00004292,0.00000733,-0.00003336,-0.0
 0011564,-0.00027149,0.00001522,0.00006084,0.00007100,-0.00011912,0.000
 04927,0.00003720,-0.00015484,-0.00063135,0.00006071,-0.00104790,-0.000
 21667,0.00001798,0.00022064,0.00006740,-0.00003012,0.00005630,-0.00003
 573,-0.00001505,-0.00003680,0.00064658,-0.00028306,-0.00070784,0.00039
 691,-0.00021943,0.00030348,0.00004283,0.00007903,0.00000307,-0.0000757
 2,-0.00000862,-0.00010388,0.00004880,-0.00005765,0.00010031,-0.0001118
 3,-0.00006578,-0.00007213,0.00010527,0.00004206,0.00000208,-0.00033684
 ,-0.00042769,-0.00004226,-0.00016246,0.00030995,0.00002422,-0.06149142
 ,-0.17519317,0.16305173,0.00319950,0.00151665,0.00358533,-0.02025444,-
 0.02179153,0.04096375,0.07962844,0.19624872,-0.00165617,-0.00109206,-0
 .00044337,-0.00042587,-0.00035469,-0.00049560,0.00000711,0.00004883,-0
 .00004345,-0.00008565,0.00032355,0.00014700,0.00007361,0.00020367,-0.0
 0022122,0.00020057,0.00049522,-0.00086745,0.00005198,-0.00008213,0.000
 03098,-0.00018267,-0.00020112,0.00017469,-0.00018981,0.00020055,0.0003
 3053,-0.00005510,-0.00005894,0.00006592,-0.00081456,-0.00007032,-0.001
 29954,-0.00016268,-0.00052617,0.00053930,0.00007794,0.00003042,0.00015
 059,-0.00001335,-0.00003243,0.00001420,0.00050891,-0.00075741,0.000106
 17,0.00059127,0.00023023,0.00041192,0.00009991,-0.00001226,-0.00003109
 ,-0.00004830,-0.00003737,0.00013217,0.00008797,0.00003815,-0.00003303,
 0.00018051,-0.00018079,-0.00014173,-0.00010965,0.00000882,0.00004844,0
 .00044107,0.00004373,0.00008875,-0.00016160,0.00006425,0.00005145,0.13
 137850,0.21312831,-0.31466199,0.00351864,0.00259427,0.00000476,-0.0004
 5789,-0.00969394,0.00494923,-0.13279426,-0.20434491,0.31098272,-0.0014
 3912,0.00040047,0.00027969,0.00198053,0.00282572,0.00104658,0.00058016
 ,0.00109351,-0.00015387,0.00243297,-0.00403405,-0.00477007,0.00111537,
 0.00051923,0.00033550,0.00043534,-0.00063894,-0.00105428,0.00022504,0.
 00057357,0.00050768,0.00004229,0.00003724,0.00006284,-0.00036033,-0.00
 016322,-0.00010670,-0.00035794,-0.00021930,0.00000206,0.00021710,-0.00
 048370,0.00031123,0.00003697,-0.00001580,-0.00006275,-0.00014549,0.000
 22755,0.00001904,0.00002547,0.00004699,-0.00014528,-0.00080223,-0.0001
 9374,-0.00035708,-0.00061957,0.00180413,0.00027971,-0.00017967,-0.0004
 4540,-0.00008284,-0.00142881,-0.00032441,0.00109031,0.00035806,-0.0000
 8113,-0.00013522,-0.01719382,-0.00820174,0.00376352,0.00168671,0.00599
 965,0.00131752,-0.01004969,0.00941944,0.00235352,-0.00242119,-0.002503
 77,0.00097321,-0.00065830,0.00013589,-0.00043899,0.00052985,-0.0001383
 7,0.00040071,0.00041133,-0.00012578,0.00024883,0.00021661,-0.00009147,
 0.00017092,0.36141284,0.00110888,0.00051820,-0.00054342,-0.00302385,-0
 .00513185,-0.00011371,0.00004873,0.00077012,0.00009410,0.00264675,-0.0
 0496097,-0.00431532,0.00072656,-0.00000401,0.00035399,0.00025556,0.001
 31096,0.00028811,0.00022171,0.00034130,0.00049131,-0.00004542,-0.00005
 779,0.00002976,0.00062442,0.00023726,0.00009206,-0.00009500,-0.0000695
 2,-0.00005503,-0.00107911,-0.00029902,0.00018025,0.00001399,0.00002251
 ,0.00002905,0.00011053,0.00012629,-0.00006424,0.00021615,0.00036264,-0
 .00019583,-0.00048316,0.00043203,-0.00030409,0.00118145,-0.00044490,-0
 .00025110,-0.00015915,0.00013719,0.00012034,-0.00113896,0.00029424,0.0
 0068198,0.00026435,-0.00070257,0.00026875,-0.01513144,0.00039541,0.002
 55771,0.00771887,-0.00489491,0.00437762,0.01273952,0.00071533,-0.00211
 687,0.00040362,0.00134633,-0.00028904,0.00005895,0.00030345,0.00007247
 ,-0.00011730,-0.00013958,-0.00021812,0.00013842,-0.00032912,0.00008664
 ,-0.00006211,-0.00006940,-0.00003645,-0.23996784,0.29170260,0.00038188
 ,-0.00008839,0.00001959,-0.00026505,-0.00069205,-0.00009040,-0.0001858
 8,-0.00008904,0.00054738,-0.00164946,0.00000631,-0.00029321,-0.0002369
 7,0.00002081,-0.00052883,-0.00018128,0.00013652,0.00022747,-0.00024455
 ,0.00007342,0.00091662,-0.00003193,0.00002159,0.00006508,0.00044333,-0
 .00003442,0.00008030,0.00013729,0.00005798,0.00004631,-0.00012200,0.00
 011334,-0.00010741,0.00002504,-0.00000075,0.00003951,0.00003964,-0.000
 04789,0.00000112,-0.00001143,0.00002773,0.00003407,0.00017948,-0.00004
 511,0.00037774,0.00025590,-0.00049868,-0.00004494,-0.00003919,0.000149
 38,0.00001466,0.00027188,0.00004010,-0.00008171,-0.00012725,0.00002330
 ,0.00000418,0.00175080,-0.00005373,0.00451868,-0.00080949,0.00127996,-
 0.00970366,0.00221700,-0.00245073,0.00382325,0.00117444,0.00058232,-0.
 00043463,0.00016558,-0.00003829,0.00019354,-0.00016930,0.00003132,-0.0
 0018602,-0.00009604,0.00005751,-0.00011345,-0.00002233,0.00001113,-0.0
 0007026,0.16976220,0.04869514,0.44572554,0.00030061,-0.00007759,-0.000
 00038,-0.00042377,-0.00021770,0.00006336,-0.00010933,-0.00012433,0.000
 46955,-0.00093932,0.00010527,-0.00047705,-0.00018793,-0.00002198,-0.00
 028415,-0.00022464,0.00004943,0.00015792,-0.00012512,0.00003293,0.0006
 1260,-0.00001725,0.00001162,0.00002670,0.00018738,-0.00005298,0.000063
 25,0.00011898,0.00006383,0.00002518,-0.00003258,0.00010565,-0.00007065
 ,-0.00000242,0.00000177,0.00001970,0.00003391,-0.00005142,-0.00000822,
 -0.00001282,0.00001066,0.00001439,0.00015741,0.00000933,0.00017755,0.0
 0013257,-0.00032258,-0.00004349,-0.00000541,0.00013493,0.00001934,0.00
 026960,0.00003581,-0.00016514,-0.00010966,0.00002276,0.00002436,0.0004
 4576,-0.00068681,0.00115234,-0.00193762,0.00062081,-0.00396068,0.00025
 416,-0.00009761,0.00108023,0.00012922,0.00044319,0.00016457,0.00017052
 ,-0.00003338,0.00011723,-0.00013028,0.00003472,-0.00010213,-0.00010441
 ,0.00003337,-0.00006693,-0.00005538,0.00002102,-0.00004564,-0.13335476
 ,0.03718973,-0.18195599,0.15008848,-0.00011689,-0.00013240,0.00002967,
 0.00038004,0.00038999,-0.00018501,-0.00003360,0.00014612,0.00012128,-0
 .00046119,0.00002463,-0.00006232,-0.00002063,0.00004875,-0.00013784,0.
 00008159,-0.00000147,0.00002081,-0.00009031,0.00013044,0.00017116,0.00
 000114,0.00001493,-0.00002106,-0.00010299,-0.00009078,0.00001416,-0.00
 000593,-0.00000291,0.00001645,0.00019107,0.00010529,-0.00000816,-0.000
 01399,-0.00000962,-0.00000991,-0.00002485,-0.00001945,0.00001248,-0.00
 004252,-0.00005723,0.00001598,0.00001749,-0.00009100,0.00009465,-0.000
 23924,-0.00005645,0.00000950,0.00010997,-0.00003267,-0.00003149,0.0000
 3948,-0.00012774,0.00001363,-0.00002171,0.00010468,-0.00004198,-0.0007
 8206,-0.00146431,0.00145862,0.00042813,0.00247551,-0.00440384,-0.00018
 960,-0.00070875,-0.00108425,0.00022174,0.00000189,0.00006530,-0.000026
 81,-0.00005079,-0.00001813,0.00002165,0.00002353,0.00003305,-0.0000085
 4,0.00005055,-0.00001013,0.00001691,0.00001216,0.00001085,0.01764285,-
 0.03292960,-0.01227308,-0.03542961,0.03311364,0.00000637,0.00001093,-0
 .00005221,-0.00006169,-0.00024642,-0.00007179,-0.00001209,0.00001068,-
 0.00007487,0.00016086,0.00021042,0.00063105,0.00001130,-0.00002140,0.0
 0009761,0.00005284,0.00003531,0.00006682,0.00000854,-0.00004471,-0.000
 22303,0.00000315,-0.00001085,-0.00002541,0.00000042,0.00005005,-0.0000
 2342,-0.00001948,-0.00000963,-0.00000798,-0.00001960,-0.00002675,0.000
 00043,-0.00000377,0.00000350,-0.00000618,0.00000366,0.00000358,0.00000
 194,0.00001060,0.00000306,0.00000759,-0.00001345,0.00001928,-0.0000572
 4,0.00003081,0.00001204,-0.00002048,0.00001236,-0.00002577,0.00001461,
 -0.00002741,-0.00000598,-0.00005202,0.00002471,-0.00001381,0.00001335,
 0.00134158,0.00070813,-0.00051264,-0.00136835,-0.00131804,0.00020854,0
 .00091330,-0.00013282,-0.00055860,-0.00006340,-0.00004488,0.00003390,-
 0.00002049,0.00000713,-0.00001969,0.00001193,-0.00000423,0.00001766,0.
 00001366,-0.00000772,0.00001090,0.00000604,-0.00000354,0.00000589,-0.2
 2367280,0.02692546,-0.38599888,0.21569820,-0.01998926,0.38479209,0.002
 33613,0.00004475,-0.00075021,-0.00666639,-0.00703300,-0.00057431,-0.00
 058716,0.00012349,0.00038483,0.00099294,-0.00220817,0.00027988,-0.0002
 0328,-0.00041829,-0.00000254,-0.00020419,0.00168566,0.00118005,-0.0000
 0879,-0.00007637,-0.00001935,-0.00007952,-0.00009300,-0.00004529,0.000
 93649,0.00046219,0.00022400,0.00019397,0.00010836,-0.00005047,-0.00102
 755,0.00037409,-0.00014647,-0.00003926,0.00002856,0.00007720,0.0001950
 0,-0.00013488,-0.00005589,0.00020012,0.00033915,-0.00008061,0.00022119
 ,0.00055460,0.00006434,0.00140774,-0.00231717,-0.00049158,0.00017922,0
 .00055715,0.00014530,0.00004885,0.00043514,-0.00021878,-0.00006859,-0.
 00055600,0.00036406,-0.00420498,0.00174915,0.00015691,0.00689739,-0.00
 462255,0.00028561,-0.00146372,0.00079837,0.00004215,0.00291293,0.00444
 503,-0.00107102,0.00063306,0.00012325,0.00045128,-0.00056921,0.0000221
 8,-0.00054514,-0.00023927,-0.00017120,-0.00014504,-0.00023830,0.000037
 30,-0.00018571,-0.20269575,0.19563514,0.00934365,-0.01451589,0.0184584
 0,0.00697220,0.21565681,-0.00128902,-0.00025354,0.00058207,0.00212619,
 0.00644050,0.00141777,0.00010729,-0.00038893,0.00022727,-0.00330766,0.
 00257633,0.00234375,-0.00034632,0.00016014,-0.00028253,-0.00042912,-0.
 00155008,-0.00055653,0.00010811,-0.00021303,0.00004260,0.00006195,0.00
 005603,-0.00000017,-0.00076643,-0.00029288,-0.00013827,0.00005853,0.00
 004203,0.00005964,0.00079610,0.00010833,-0.00006159,-0.00000266,-0.000
 01521,-0.00003008,-0.00010944,-0.00005680,0.00004473,-0.00014050,-0.00
 026314,0.00011802,0.00023994,-0.00037472,0.00015900,-0.00081223,0.0002
 7143,0.00014986,0.00011569,-0.00018313,-0.00012585,0.00068472,-0.00029
 819,-0.00036909,-0.00016447,0.00055209,-0.00024921,0.00516400,0.001581
 54,-0.00216328,-0.00651619,-0.01121576,0.00013705,-0.00427917,-0.01162
 810,0.00080095,0.00188304,-0.00157333,-0.00103907,-0.00014947,-0.00021
 210,-0.00014977,0.00020392,0.00008121,0.00027418,-0.00004983,0.0002330
 6,-0.00001618,0.00007279,0.00004069,0.00006015,0.21690242,-0.24898263,
 -0.03501569,-0.00181085,-0.00086697,-0.00609377,-0.20835133,0.26622514
 ,-0.00057555,0.00002124,0.00013191,0.00062057,0.00206862,-0.00048060,0
 .00012230,0.00006402,-0.00043239,0.00029259,0.00081834,0.00109444,0.00
 011809,-0.00003966,0.00039260,0.00017390,-0.00036347,-0.00035273,-0.00
 008242,0.00003521,-0.00059597,0.00002919,0.00000893,-0.00006273,-0.000
 90323,-0.00017115,-0.00003492,-0.00011119,-0.00003714,-0.00002692,0.00
 030438,-0.00010054,0.00008063,-0.00003478,-0.00000557,-0.00004535,-0.0
 0005236,0.00003665,-0.00000141,-0.00003737,-0.00009199,0.00001601,-0.0
 0009574,-0.00001806,-0.00029694,-0.00048339,0.00069421,0.00010850,0.00
 007054,-0.00018802,-0.00003616,-0.00014256,-0.00010924,0.00003431,0.00
 008209,0.00008544,-0.00005110,0.00021521,-0.00005220,-0.00146430,0.000
 13214,0.00000197,0.00280521,0.00247752,-0.00102290,-0.00536119,-0.0020
 0761,-0.00081721,0.00085723,-0.00016790,0.00000344,-0.00020186,0.00020
 446,-0.00001921,0.00021872,0.00007188,-0.00001423,0.00009759,0.0000194
 8,-0.00000890,0.00007402,0.04805480,-0.07684153,-0.05898163,-0.0327060
 0,0.03618887,0.00180208,-0.01558905,0.03987406,0.06071295\\-0.00000248
 ,-0.00000604,-0.00000154,0.00000352,0.00000546,0.00000358,0.00001630,-
 0.00001020,-0.00001209,-0.00001070,0.00000723,0.00000416,-0.00000242,-
 0.00000940,-0.00000706,-0.00000326,0.00000087,-0.00000284,-0.00000069,
 -0.00000038,-0.00000142,-0.00000366,-0.00000171,0.00000169,0.00000003,
 -0.00000210,0.00000200,-0.00000036,-0.00000112,-0.00000783,-0.00001194
 ,-0.00000575,0.00000182,-0.00000289,0.00000262,0.00000355,-0.00000218,
 -0.00000397,0.00000397,0.00000285,0.00000406,-0.00000090,0.00000496,0.
 00001165,0.00000026,0.00000753,-0.00000180,0.00000870,-0.00000813,0.00
 000446,0.00000362,-0.00000326,-0.00001027,0.00000189,-0.00000259,0.000
 00184,-0.00000139,0.00000655,-0.00000140,-0.00000631,0.00000346,0.0000
 0585,-0.00000077,0.00000427,-0.00000052,-0.00000939,-0.00000617,0.0000
 0398,0.00000961,-0.00001061,-0.00000478,-0.00001683,0.00001367,0.00000
 277,0.00000121,0.00000475,-0.00000377,0.00000839,0.00000223,0.00000255
 ,0.00000134,-0.00000611,0.00000185,-0.00000076,0.00000356,0.00000659,0
 .00000103,0.00000375,0.00000145,0.00001230\\\@


 THE WORLD OF CHEMICAL REACTIONS IS LIKE A STAGE,
 ON WHICH SCENE AFTER SCENE IS CEASELESSLY PLAYED.
 THE ACTORS ON IT ARE THE ELEMENTS.
   -- CLEMENS WINKLER   BER. 30,13(1897)
 (DISCOVERER OF GERMANIUM, FEB 6, 1886)
 Job cpu time:       0 days  0 hours 30 minutes 38.3 seconds.
 File lengths (MBytes):  RWF=    221 Int=      0 D2E=      0 Chk=      6 Scr=      1
 Normal termination of Gaussian 09 at Mon Jan 16 00:10:57 2017.
