 Entering Gaussian System, Link 0=g09
 Initial command:
 /global/software/gaussian/g09.e01/l1.exe "/scratch/10447804.yak.local/Gau-20433.inp" -scrdir="/scratch/10447804.yak.local/"
 Entering Link 1 = /global/software/gaussian/g09.e01/l1.exe PID=     20434.
  
 Copyright (c) 1988,1990,1992,1993,1995,1998,2003,2009,2015,
            Gaussian, Inc.  All Rights Reserved.
  
 This is part of the Gaussian(R) 09 program.  It is based on
 the Gaussian(R) 03 system (copyright 2003, Gaussian, Inc.),
 the Gaussian(R) 98 system (copyright 1998, Gaussian, Inc.),
 the Gaussian(R) 94 system (copyright 1995, Gaussian, Inc.),
 the Gaussian 92(TM) system (copyright 1992, Gaussian, Inc.),
 the Gaussian 90(TM) system (copyright 1990, Gaussian, Inc.),
 the Gaussian 88(TM) system (copyright 1988, Gaussian, Inc.),
 the Gaussian 86(TM) system (copyright 1986, Carnegie Mellon
 University), and the Gaussian 82(TM) system (copyright 1983,
 Carnegie Mellon University). Gaussian is a federally registered
 trademark of Gaussian, Inc.
  
 This software contains proprietary and confidential information,
 including trade secrets, belonging to Gaussian, Inc.
  
 This software is provided under written license and may be
 used, copied, transmitted, or stored only in accord with that
 written license.
  
 The following legend is applicable only to US Government
 contracts under FAR:
  
                    RESTRICTED RIGHTS LEGEND
  
 Use, reproduction and disclosure by the US Government is
 subject to restrictions as set forth in subparagraphs (a)
 and (c) of the Commercial Computer Software - Restricted
 Rights clause in FAR 52.227-19.
  
 Gaussian, Inc.
 340 Quinnipiac St., Bldg. 40, Wallingford CT 06492
  
  
 ---------------------------------------------------------------
 Warning -- This program may not be used in any manner that
 competes with the business of Gaussian, Inc. or will provide
 assistance to any competitor of Gaussian, Inc.  The licensee
 of this program is prohibited from giving any competitor of
 Gaussian, Inc. access to this program.  By using this program,
 the user acknowledges that Gaussian, Inc. is engaged in the
 business of creating and licensing software in the field of
 computational chemistry and represents and warrants to the
 licensee that it is not a competitor of Gaussian, Inc. and that
 it will not use this program in any manner prohibited above.
 ---------------------------------------------------------------
  

 Cite this work as:
 Gaussian 09, Revision E.01,
 M. J. Frisch, G. W. Trucks, H. B. Schlegel, G. E. Scuseria, 
 M. A. Robb, J. R. Cheeseman, G. Scalmani, V. Barone, B. Mennucci, 
 G. A. Petersson, H. Nakatsuji, M. Caricato, X. Li, H. P. Hratchian, 
 A. F. Izmaylov, J. Bloino, G. Zheng, J. L. Sonnenberg, M. Hada, 
 M. Ehara, K. Toyota, R. Fukuda, J. Hasegawa, M. Ishida, T. Nakajima, 
 Y. Honda, O. Kitao, H. Nakai, T. Vreven, J. A. Montgomery, Jr., 
 J. E. Peralta, F. Ogliaro, M. Bearpark, J. J. Heyd, E. Brothers, 
 K. N. Kudin, V. N. Staroverov, T. Keith, R. Kobayashi, J. Normand, 
 K. Raghavachari, A. Rendell, J. C. Burant, S. S. Iyengar, J. Tomasi, 
 M. Cossi, N. Rega, J. M. Millam, M. Klene, J. E. Knox, J. B. Cross, 
 V. Bakken, C. Adamo, J. Jaramillo, R. Gomperts, R. E. Stratmann, 
 O. Yazyev, A. J. Austin, R. Cammi, C. Pomelli, J. W. Ochterski, 
 R. L. Martin, K. Morokuma, V. G. Zakrzewski, G. A. Voth, 
 P. Salvador, J. J. Dannenberg, S. Dapprich, A. D. Daniels, 
 O. Farkas, J. B. Foresman, J. V. Ortiz, J. Cioslowski, 
 and D. J. Fox, Gaussian, Inc., Wallingford CT, 2013.
 
 ******************************************
 Gaussian 09:  ES64L-G09RevE.01 30-Nov-2015
                 8-Jan-2017 
 ******************************************
 %nprocshared=12
 Will use up to   12 processors via shared memory.
 ---------------------------------------------------------------
 # IRC=(CalcFC,Reverse,MaxCycle=500,MaxPoints=10) B3LYP/6-31G(d)
 ---------------------------------------------------------------
 1/6=500,10=4,14=-1,18=10,22=2,26=3,38=1,42=10,44=3/1,23;
 2/12=2,17=6,18=5,29=1,40=1/2;
 3/5=1,6=6,7=1,11=2,16=1,25=1,30=1,71=2,74=-5,140=1/1,2,3;
 4//1;
 5/5=2,38=5/2;
 8/6=4,10=90,11=11/1;
 11/6=1,8=1,9=11,15=111,16=1/1,2,10;
 10/6=1,13=1/2;
 6/7=2,8=2,9=2,10=2,28=1/1;
 7/10=1,18=20,25=1/1,2,3,16;
 1/6=500,10=4,14=-1,18=10,22=2,26=3,42=10,44=3/23(2);
 2/29=1/2;
 99/5=20/99;
 2/29=1/2;
 3/5=1,6=6,7=1,11=2,16=1,25=1,30=1,71=2,74=-5,140=1/1,2,3;
 4/5=5,16=3,69=1/1;
 5/5=2,38=5/2;
 8/6=4,10=90,11=11/1;
 11/6=1,8=1,9=11,15=111,16=1/1,2,10;
 10/6=1,13=1/2;
 7/10=1,18=20,25=1/1,2,3,16;
 1/6=500,14=-1,18=10,22=2,26=3,42=10,44=3/23(-8);
 2/29=1/2;
 6/7=2,8=2,9=2,10=2,19=2,28=1/1;
 99/5=20,9=1/99;
 -------------------------------------
 glo_2w_beta_ts_chair2_B3LYP_631Gd.out
 -------------------------------------
 Symbolic Z-matrix:
 Charge =  0 Multiplicity = 1
 C                     0.47791  -1.23546   0.29165 
 O                     0.46024  -0.3372   -0.99986 
 C                    -0.99407  -1.53666   0.61521 
 C                    -1.76995  -0.21745   0.80047 
 C                    -1.7434    0.62667  -0.49302 
 C                    -0.30518   0.91608  -0.95627 
 H                    -0.99565  -2.08825   1.56571 
 H                    -2.20703   1.59353  -0.28426 
 H                    -0.38712   1.20099  -2.00945 
 H                    -2.81606  -0.44958   1.02679 
 O                    -1.64937  -2.29565  -0.40274 
 O                    -1.22414   0.51166   1.90298 
 O                    -2.51101   0.03133  -1.52455 
 H                    -0.28512   0.21399   1.99545 
 H                    -1.08743  -3.05269  -0.63223 
 H                    -2.25796  -0.90986  -1.55085 
 C                     0.44822   2.02498  -0.15104 
 O                    -0.40801   2.89057   0.56448 
 H                     0.99967   2.66181  -0.85365 
 H                     1.17651   1.5453    0.5111 
 H                    -0.80339   2.33723   1.26981 
 O                     1.10838  -0.68749   1.31666 
 H                     2.48199  -0.56519   1.10558 
 H                     0.97736  -2.11479  -0.16453 
 H                     1.65316  -0.16462  -1.36488 
 O                     3.49368  -0.41962   0.74026 
 H                     3.99255  -1.23372   0.90958 
 O                     2.80647  -0.0737   -1.56837 
 H                     3.01775   0.83154  -1.85013 
 H                     3.24959  -0.23391  -0.54707 
 
 IRC-IRC-IRC-IRC-IRC-IRC-IRC-IRC-IRC-IRC-IRC-IRC-IRC-IRC-IRC-IRC-IRC-IRC
 ------------------------------------------------------------------------
 INPUT DATA FOR L123
 ------------------------------------------------------------------------
 GENERAL PARAMETERS:
 Rxn path following direction = Reverse
 Maximum points per path      =  10
 Step size                    =   0.100 bohr
 Integration scheme           = HPC                                 
    Redo corrector integration= Yes                                 
    DWI Weight Power          =  2
    DWI will use Hessian update vectors when possible.
    Max correction cycles     = 500
 Initial Hessian              = CalcFC
 Hessian evaluation           = All updating
 Hessian updating method      = Bofill                              
 ------------------------------------------------------------------------
 IRC-IRC-IRC-IRC-IRC-IRC-IRC-IRC-IRC-IRC-IRC-IRC-IRC-IRC-IRC-IRC-IRC-IRC
                          Input orientation:                          
 ---------------------------------------------------------------------
 Center     Atomic      Atomic             Coordinates (Angstroms)
 Number     Number       Type             X           Y           Z
 ---------------------------------------------------------------------
      1          6           0        0.477910   -1.235460    0.291650
      2          8           0        0.460240   -0.337200   -0.999860
      3          6           0       -0.994070   -1.536660    0.615210
      4          6           0       -1.769950   -0.217450    0.800470
      5          6           0       -1.743400    0.626670   -0.493020
      6          6           0       -0.305180    0.916080   -0.956270
      7          1           0       -0.995650   -2.088250    1.565710
      8          1           0       -2.207030    1.593530   -0.284260
      9          1           0       -0.387120    1.200990   -2.009450
     10          1           0       -2.816060   -0.449580    1.026790
     11          8           0       -1.649370   -2.295650   -0.402740
     12          8           0       -1.224140    0.511660    1.902980
     13          8           0       -2.511010    0.031330   -1.524550
     14          1           0       -0.285120    0.213990    1.995450
     15          1           0       -1.087430   -3.052690   -0.632230
     16          1           0       -2.257960   -0.909860   -1.550850
     17          6           0        0.448220    2.024980   -0.151040
     18          8           0       -0.408010    2.890570    0.564480
     19          1           0        0.999670    2.661810   -0.853650
     20          1           0        1.176510    1.545300    0.511100
     21          1           0       -0.803390    2.337230    1.269810
     22          8           0        1.108380   -0.687490    1.316660
     23          1           0        2.481990   -0.565190    1.105580
     24          1           0        0.977360   -2.114790   -0.164530
     25          1           0        1.653160   -0.164620   -1.364880
     26          8           0        3.493680   -0.419620    0.740260
     27          1           0        3.992550   -1.233720    0.909580
     28          8           0        2.806470   -0.073700   -1.568370
     29          1           0        3.017750    0.831540   -1.850130
     30          1           0        3.249590   -0.233910   -0.547070
 ---------------------------------------------------------------------
                    Distance matrix (angstroms):
                    1          2          3          4          5
     1  C    0.000000
     2  O    1.573271   0.000000
     3  C    1.536925   2.482372   0.000000
     4  C    2.519547   2.868671   1.541631   0.000000
     5  C    3.002907   2.458040   2.543554   1.544785   0.000000
     6  C    2.607616   1.469176   2.993335   2.552759   1.538452
     7  H    2.126466   3.430443   1.098956   2.164492   3.488308
     8  H    3.942557   3.369589   3.475400   2.155766   1.092406
     9  H    3.461160   2.025665   3.840828   3.438000   2.113977
    10  H    3.465296   3.854099   2.161201   1.095195   2.149124
    11  O    2.476187   2.939819   1.428883   2.404406   2.925226
    12  O    2.923318   3.461817   2.430411   1.430048   2.454317
    13  O    3.719809   3.039645   3.055859   2.452912   1.416936
    14  H    2.363484   3.135483   2.339326   1.954185   2.913652
    15  H    2.570247   3.147113   1.965495   3.249161   3.739969
    16  H    3.314484   2.831985   2.584978   2.499258   1.935123
    17  C    3.290490   2.510086   3.918242   3.294562   2.622102
    18  O    4.228879   3.690463   4.466140   3.401523   2.833164
    19  H    4.095444   3.050643   4.874392   4.324008   3.434572
    20  H    2.875557   2.517906   3.771039   3.445671   3.221492
    21  H    3.919520   3.728369   3.933432   2.771445   2.630058
    22  O    1.322274   2.430854   2.373482   2.961785   3.624170
    23  H    2.264527   2.927854   3.642418   4.277033   4.672256
    24  H    1.109402   2.031013   2.197445   3.475462   3.876344
    25  H    2.296084   1.259397   3.579256   4.050829   3.594843
    26  O    3.156218   3.498081   4.626372   5.267855   5.481123
    27  H    3.568548   4.114234   5.004479   5.852445   6.191079
    28  O    3.198680   2.428463   4.620863   5.155161   4.727390
    29  H    3.912863   2.937647   5.270766   5.572085   4.955025
    30  H    3.064109   2.827748   4.588758   5.197299   5.066899
                    6          7          8          9         10
     6  C    0.000000
     7  H    3.982855   0.000000
     8  H    2.127809   4.294803   0.000000
     9  H    1.094110   4.896037   2.538196   0.000000
    10  H    3.478803   2.507901   2.502812   4.224084   0.000000
    11  O    3.525401   2.084505   3.930743   4.049850   2.610114
    12  O    3.030405   2.631633   2.630691   4.059912   2.055700
    13  O    2.443647   4.042109   2.017719   2.472679   2.614128
    14  H    3.034136   2.447415   3.285414   4.125990   2.790033
    15  H    4.058085   2.401980   4.791863   4.525590   3.537894
    16  H    2.738783   3.563001   2.806030   2.857629   2.677230
    17  C    1.563863   4.685152   2.693371   2.197826   4.262189
    18  O    2.494367   5.112380   2.374688   3.078999   4.143554
    19  H    2.181911   5.691896   3.427587   2.322295   5.270351
    20  H    2.178187   4.362702   3.476099   2.986078   4.492894
    21  H    2.687622   4.439526   2.222258   3.495407   3.446188
    22  O    3.120224   2.539901   4.331044   4.106810   3.942316
    23  H    3.770106   3.824318   5.345899   4.588529   5.299897
    24  H    3.384957   2.624348   4.889408   4.032361   4.310708
    25  H    2.273757   4.393735   4.377202   2.538327   5.076930
    26  O    4.369628   4.860018   6.131925   5.024728   6.316313
    27  H    5.154951   5.103221   6.917614   5.799143   6.854618
    28  O    3.322152   5.323250   5.437258   3.466757   6.203949
    29  H    3.442092   6.024991   5.507350   3.428559   6.629576
    30  H    3.758499   5.091609   5.760495   4.174105   6.270220
                   11         12         13         14         15
    11  O    0.000000
    12  O    3.657616   0.000000
    13  O    2.723181   3.692521   0.000000
    14  H    3.729717   0.989402   4.168735   0.000000
    15  H    0.970336   4.376136   3.511979   4.268443   0.000000
    16  H    1.899724   3.875364   0.974969   4.210865   2.608778
    17  C    4.809478   3.050561   3.823377   2.902566   5.326584
    18  O    5.419720   2.849011   4.118484   3.037574   6.100497
    19  H    5.638895   4.143366   4.437838   3.969871   6.087735
    20  H    4.855265   2.961226   4.475911   2.472255   5.251108
    21  H    4.997668   1.977534   4.005195   2.302891   5.722733
    22  O    3.625976   2.687449   4.657162   1.793116   3.770136
    23  H    4.726273   3.940920   5.674810   3.009300   4.684912
    24  H    2.643703   4.002429   4.315578   3.417980   2.315547
    25  H    4.046444   4.406259   4.171834   3.897704   4.048278
    26  O    5.592576   4.947426   6.433430   4.031909   5.459245
    27  H    5.889070   5.589906   7.058444   4.644722   5.611776
    28  O    5.113733   5.351517   5.318698   4.726680   4.991312
    29  H    5.801402   5.672899   5.595849   5.106741   5.781265
    30  H    5.317087   5.154889   5.848960   4.377122   5.173250
                   16         17         18         19         20
    16  H    0.000000
    17  C    4.230386   0.000000
    18  O    4.726543   1.412213   0.000000
    19  H    4.884165   1.096955   2.011215   0.000000
    20  H    4.698407   1.094956   2.079256   1.772120   0.000000
    21  H    4.540428   1.919073   0.979796   2.804543   2.263360
    22  O    4.427675   3.153958   3.958248   3.992477   2.374641
    23  H    5.444497   3.524811   4.537308   4.055784   2.551833
    24  H    3.720354   4.173472   5.244457   4.826105   3.727250
    25  H    3.985828   2.778423   4.159932   2.945694   2.582697
    26  O    6.210546   4.005660   5.119711   4.272686   3.046753
    27  H    6.725138   4.930144   6.041009   5.219336   3.976408
    28  O    5.133023   3.460437   4.865062   3.355349   3.098730
    29  H    5.563736   3.303587   4.669666   2.900949   3.078153
    30  H    5.638935   3.620373   4.937201   3.679854   2.929671
                   21         22         23         24         25
    21  H    0.000000
    22  O    3.578546   0.000000
    23  H    4.386882   1.395104   0.000000
    24  H    5.004886   2.061134   2.505664   0.000000
    25  H    4.385827   2.785828   2.636397   2.387616   0.000000
    26  O    5.132782   2.468531   1.085434   3.166088   2.807873
    27  H    5.990199   2.963531   1.663472   3.319844   3.433495
    28  O    5.186419   3.403476   2.738039   3.079360   1.174648
    29  H    5.157736   3.997712   3.312720   3.960467   1.757813
    30  H    5.132101   2.874718   1.852082   2.974403   1.795050
                   26         27         28         29         30
    26  O    0.000000
    27  H    0.969690   0.000000
    28  O    2.433452   2.982058   0.000000
    29  H    2.915824   3.582113   0.971333   0.000000
    30  H    1.323362   1.916622   1.124756   1.699088   0.000000
 Symmetry turned off by external request.
 Stoichiometry    C6H16O8
 Framework group  C1[X(C6H16O8)]
 Deg. of freedom    84
 Full point group                 C1      NOp   1
 Rotational constants (GHZ):      0.7976700      0.5473320      0.4752415
 Standard basis: 6-31G(d) (6D, 7F)
   242 basis functions,   456 primitive gaussians,   242 cartesian basis functions
    58 alpha electrons       58 beta electrons
       nuclear repulsion energy      1153.1679772629 Hartrees.
 NAtoms=   30 NActive=   30 NUniq=   30 SFac= 1.00D+00 NAtFMM=   60 NAOKFM=F Big=F
 Integral buffers will be    131072 words long.
 Raffenetti 2 integral format.
 Two-electron integral symmetry is turned off.
 One-electron integrals computed using PRISM.
 NBasis=   242 RedAO= T EigKep=  1.75D-03  NBF=   242
 NBsUse=   242 1.00D-06 EigRej= -1.00D+00 NBFU=   242
 ExpMin= 1.61D-01 ExpMax= 5.48D+03 ExpMxC= 8.25D+02 IAcc=1 IRadAn=         1 AccDes= 0.00D+00
 Harris functional with IExCor=  402 and IRadAn=       1 diagonalized for initial guess.
 HarFok:  IExCor=  402 AccDes= 0.00D+00 IRadAn=         1 IDoV= 1 UseB2=F ITyADJ=14
 ICtDFT=  3500011 ScaDFX=  1.000000  1.000000  1.000000  1.000000
 FoFCou: FMM=F IPFlag=           0 FMFlag=      100000 FMFlg1=           0
         NFxFlg=           0 DoJE=T BraDBF=F KetDBF=T FulRan=T
         wScrn=  0.000000 ICntrl=     500 IOpCl=  0 I1Cent=   200000004 NGrid=           0
         NMat0=    1 NMatS0=      1 NMatT0=    0 NMatD0=    1 NMtDS0=    0 NMtDT0=    0
 Symmetry not used in FoFCou.
 Requested convergence on RMS density matrix=1.00D-08 within 128 cycles.
 Requested convergence on MAX density matrix=1.00D-06.
 Requested convergence on             energy=1.00D-06.
 No special actions if energy rises.
 Integral accuracy reduced to 1.0D-05 until final iterations.
 Initial convergence to 1.0D-05 achieved.  Increase integral accuracy.
 SCF Done:  E(RB3LYP) =  -839.970321962     A.U. after   14 cycles
            NFock= 14  Conv=0.96D-08     -V/T= 2.0087
 DoSCS=F DFT=T ScalE2(SS,OS)=  1.000000  1.000000
 Range of M.O.s used for correlation:     1   242
 NBasis=   242 NAE=    58 NBE=    58 NFC=     0 NFV=     0
 NROrb=    242 NOA=    58 NOB=    58 NVA=   184 NVB=   184
 Symmetrizing basis deriv contribution to polar:
 IMax=3 JMax=2 DiffMx= 0.00D+00
 G2DrvN: will do    31 centers at a time, making    1 passes.
 Calling FoFCou, ICntrl=  3107 FMM=F I1Cent=   0 AccDes= 0.00D+00.
 End of G2Drv F.D. properties file   721 does not exist.
 End of G2Drv F.D. properties file   722 does not exist.
 End of G2Drv F.D. properties file   788 does not exist.
          IDoAtm=111111111111111111111111111111
          Differentiating once with respect to nuclear coordinates.
          There are    93 degrees of freedom in the 1st order CPHF.  IDoFFX=6 NUNeed=     0.
     87 vectors produced by pass  0 Test12= 1.15D-14 1.08D-09 XBig12= 1.52D-01 6.46D-02.
 AX will form    87 AO Fock derivatives at one time.
     87 vectors produced by pass  1 Test12= 1.15D-14 1.08D-09 XBig12= 1.53D-02 1.56D-02.
     87 vectors produced by pass  2 Test12= 1.15D-14 1.08D-09 XBig12= 1.25D-04 1.24D-03.
     87 vectors produced by pass  3 Test12= 1.15D-14 1.08D-09 XBig12= 3.11D-07 7.80D-05.
     87 vectors produced by pass  4 Test12= 1.15D-14 1.08D-09 XBig12= 3.39D-10 1.65D-06.
     67 vectors produced by pass  5 Test12= 1.15D-14 1.08D-09 XBig12= 2.79D-13 4.48D-08.
      3 vectors produced by pass  6 Test12= 1.15D-14 1.08D-09 XBig12= 2.27D-16 1.42D-09.
 InvSVY:  IOpt=1 It=  1 EMax= 6.66D-16
 Solved reduced A of dimension   505 with    93 vectors.
 End of Minotr F.D. properties file   721 does not exist.
 End of Minotr F.D. properties file   722 does not exist.
 End of Minotr F.D. properties file   788 does not exist.

 **********************************************************************

            Population analysis using the SCF density.

 **********************************************************************

 Alpha  occ. eigenvalues --  -19.20375 -19.19389 -19.17820 -19.17095 -19.14479
 Alpha  occ. eigenvalues --  -19.12876 -19.12680 -19.11519 -10.29908 -10.25242
 Alpha  occ. eigenvalues --  -10.24596 -10.24119 -10.23029 -10.22994  -1.08127
 Alpha  occ. eigenvalues --   -1.05864  -1.04026  -1.02420  -1.01849  -1.00489
 Alpha  occ. eigenvalues --   -1.00302  -0.97839  -0.77234  -0.75895  -0.68516
 Alpha  occ. eigenvalues --   -0.65062  -0.63508  -0.58937  -0.57356  -0.56202
 Alpha  occ. eigenvalues --   -0.54959  -0.53597  -0.52172  -0.50891  -0.47958
 Alpha  occ. eigenvalues --   -0.47629  -0.46185  -0.45912  -0.44646  -0.43634
 Alpha  occ. eigenvalues --   -0.41888  -0.41619  -0.41170  -0.38814  -0.38526
 Alpha  occ. eigenvalues --   -0.38349  -0.36177  -0.35341  -0.34208  -0.33482
 Alpha  occ. eigenvalues --   -0.32727  -0.31014  -0.29720  -0.28876  -0.26986
 Alpha  occ. eigenvalues --   -0.25661  -0.25166  -0.24425
 Alpha virt. eigenvalues --    0.02892   0.04405   0.05868   0.07375   0.08807
 Alpha virt. eigenvalues --    0.11656   0.12404   0.12766   0.14481   0.15594
 Alpha virt. eigenvalues --    0.16302   0.17199   0.18247   0.18642   0.19937
 Alpha virt. eigenvalues --    0.21540   0.22881   0.23871   0.24381   0.24945
 Alpha virt. eigenvalues --    0.25830   0.26442   0.28192   0.28470   0.29542
 Alpha virt. eigenvalues --    0.31934   0.33237   0.34206   0.50582   0.52460
 Alpha virt. eigenvalues --    0.54410   0.55660   0.56451   0.58028   0.58774
 Alpha virt. eigenvalues --    0.58896   0.59851   0.61920   0.62485   0.64693
 Alpha virt. eigenvalues --    0.65015   0.66630   0.70048   0.71438   0.72870
 Alpha virt. eigenvalues --    0.73108   0.75224   0.78393   0.78914   0.79254
 Alpha virt. eigenvalues --    0.80772   0.82233   0.82884   0.83635   0.85181
 Alpha virt. eigenvalues --    0.86103   0.87133   0.88251   0.89304   0.90554
 Alpha virt. eigenvalues --    0.90959   0.91628   0.93249   0.95172   0.96439
 Alpha virt. eigenvalues --    0.97239   0.98523   1.00058   1.02442   1.04773
 Alpha virt. eigenvalues --    1.05640   1.06881   1.07809   1.10192   1.11090
 Alpha virt. eigenvalues --    1.11967   1.15147   1.16329   1.17321   1.18996
 Alpha virt. eigenvalues --    1.21126   1.22470   1.23912   1.26587   1.29397
 Alpha virt. eigenvalues --    1.30440   1.33046   1.34042   1.36292   1.38651
 Alpha virt. eigenvalues --    1.39360   1.43890   1.46343   1.48971   1.50818
 Alpha virt. eigenvalues --    1.53420   1.56163   1.57098   1.57779   1.59791
 Alpha virt. eigenvalues --    1.60439   1.62522   1.65321   1.66130   1.66979
 Alpha virt. eigenvalues --    1.70004   1.70642   1.71020   1.71960   1.72956
 Alpha virt. eigenvalues --    1.73549   1.76677   1.76881   1.77953   1.79493
 Alpha virt. eigenvalues --    1.80562   1.81314   1.82699   1.84486   1.86139
 Alpha virt. eigenvalues --    1.88131   1.89544   1.92432   1.93586   1.95101
 Alpha virt. eigenvalues --    1.98049   1.98767   2.02874   2.05231   2.06707
 Alpha virt. eigenvalues --    2.08252   2.12491   2.13000   2.15833   2.16736
 Alpha virt. eigenvalues --    2.19710   2.21846   2.24051   2.26627   2.31540
 Alpha virt. eigenvalues --    2.33685   2.34659   2.36628   2.38307   2.39471
 Alpha virt. eigenvalues --    2.41997   2.44944   2.45938   2.49493   2.52291
 Alpha virt. eigenvalues --    2.55451   2.57113   2.58584   2.61287   2.61741
 Alpha virt. eigenvalues --    2.63110   2.66374   2.69705   2.70209   2.74633
 Alpha virt. eigenvalues --    2.78033   2.80574   2.82840   2.89462   2.91529
 Alpha virt. eigenvalues --    2.93278   2.93890   2.98751   3.05966   3.11461
 Alpha virt. eigenvalues --    3.74340   3.78891   3.84441   3.86037   3.95720
 Alpha virt. eigenvalues --    4.01621   4.13467   4.15171   4.28573   4.33081
 Alpha virt. eigenvalues --    4.46860   4.61136   4.76123   4.83691
          Condensed to atoms (all electrons):
               1          2          3          4          5          6
     1  C    4.829553   0.082248   0.306595  -0.008356  -0.029699  -0.005538
     2  O    0.082248   8.587887  -0.023648  -0.013290  -0.026119   0.138230
     3  C    0.306595  -0.023648   5.021662   0.332421  -0.018934  -0.027716
     4  C   -0.008356  -0.013290   0.332421   4.890631   0.297590  -0.018135
     5  C   -0.029699  -0.026119  -0.018934   0.297590   4.943504   0.307657
     6  C   -0.005538   0.138230  -0.027716  -0.018135   0.307657   5.166229
     7  H   -0.064531   0.003226   0.374910  -0.045939   0.006139  -0.000131
     8  H    0.000180   0.002831   0.005316  -0.038884   0.371529  -0.058990
     9  H    0.001902  -0.036940   0.000295   0.005224  -0.037938   0.361025
    10  H    0.006025  -0.000078  -0.047697   0.377527  -0.060683   0.007044
    11  O   -0.033220   0.002262   0.178824  -0.040161   0.006391  -0.000817
    12  O    0.004903  -0.000332  -0.026101   0.224364  -0.048415   0.001262
    13  O   -0.000114   0.001026  -0.000105  -0.030839   0.244376  -0.045851
    14  H   -0.011261   0.000416  -0.014691  -0.023552   0.001316   0.000560
    15  H   -0.004386   0.000002  -0.025191   0.005542  -0.000075  -0.000063
    16  H   -0.000083   0.003285  -0.001341  -0.012020  -0.028843  -0.004733
    17  C   -0.002496  -0.024447   0.000021  -0.002862  -0.031909   0.244849
    18  O   -0.000044   0.001113   0.000010  -0.001547  -0.003250  -0.052686
    19  H    0.000162   0.003099  -0.000054  -0.000114   0.002971  -0.038068
    20  H    0.001643  -0.005092  -0.000388   0.000312  -0.001764  -0.053821
    21  H    0.000275   0.000025   0.000346  -0.005446   0.002848  -0.002130
    22  O    0.250807  -0.056785  -0.049202   0.000647  -0.000449   0.005169
    23  H   -0.011278   0.003007   0.001964  -0.000043  -0.000018  -0.000320
    24  H    0.360586  -0.055313  -0.069000   0.004413   0.000145   0.004444
    25  H   -0.005972   0.122115   0.001793  -0.000023   0.001473  -0.009422
    26  O    0.010942  -0.001173   0.000018  -0.000005   0.000001   0.000054
    27  H    0.000047  -0.000012   0.000022   0.000000   0.000000  -0.000004
    28  O    0.006417  -0.096106  -0.000046  -0.000011  -0.000022   0.005033
    29  H   -0.000125   0.004319   0.000002   0.000001   0.000027  -0.000803
    30  H   -0.000069   0.004696   0.000089   0.000001   0.000003  -0.000368
               7          8          9         10         11         12
     1  C   -0.064531   0.000180   0.001902   0.006025  -0.033220   0.004903
     2  O    0.003226   0.002831  -0.036940  -0.000078   0.002262  -0.000332
     3  C    0.374910   0.005316   0.000295  -0.047697   0.178824  -0.026101
     4  C   -0.045939  -0.038884   0.005224   0.377527  -0.040161   0.224364
     5  C    0.006139   0.371529  -0.037938  -0.060683   0.006391  -0.048415
     6  C   -0.000131  -0.058990   0.361025   0.007044  -0.000817   0.001262
     7  H    0.605010  -0.000114   0.000026  -0.008327  -0.032720   0.002218
     8  H   -0.000114   0.570729   0.000638  -0.006925  -0.000087   0.000419
     9  H    0.000026   0.000638   0.581151  -0.000209   0.000046  -0.000080
    10  H   -0.008327  -0.006925  -0.000209   0.599159   0.002136  -0.035723
    11  O   -0.032720  -0.000087   0.000046   0.002136   8.294805   0.001169
    12  O    0.002218   0.000419  -0.000080  -0.035723   0.001169   8.337264
    13  O   -0.000259  -0.035333   0.004611   0.007145  -0.018653   0.001433
    14  H    0.001871  -0.000266   0.000033   0.003015   0.000245   0.204138
    15  H   -0.002376   0.000021  -0.000015  -0.000360   0.231552  -0.000093
    16  H    0.000618   0.005666  -0.000217  -0.000703   0.044448   0.000013
    17  C    0.000014  -0.004002  -0.036890  -0.000005   0.000016   0.009238
    18  O    0.000002   0.019688   0.003500  -0.000080   0.000000  -0.017126
    19  H   -0.000001  -0.000236  -0.009582   0.000008   0.000000   0.000168
    20  H   -0.000003   0.000950   0.004496   0.000001  -0.000002   0.000322
    21  H   -0.000025  -0.000237  -0.000412   0.000372  -0.000007   0.050975
    22  O    0.005976  -0.000007  -0.000155  -0.000249   0.001719  -0.029690
    23  H   -0.000051  -0.000001  -0.000000   0.000004  -0.000020   0.000178
    24  H   -0.001525   0.000015  -0.000245  -0.000195   0.000104  -0.000302
    25  H   -0.000063  -0.000053  -0.002243   0.000007  -0.000055  -0.000011
    26  O    0.000003   0.000000   0.000002  -0.000000   0.000000  -0.000003
    27  H   -0.000001   0.000000  -0.000000   0.000000  -0.000000   0.000000
    28  O    0.000003   0.000002   0.000281  -0.000000   0.000000   0.000000
    29  H   -0.000000  -0.000001   0.000054   0.000000  -0.000000  -0.000000
    30  H   -0.000002  -0.000000  -0.000002   0.000000  -0.000000   0.000000
              13         14         15         16         17         18
     1  C   -0.000114  -0.011261  -0.004386  -0.000083  -0.002496  -0.000044
     2  O    0.001026   0.000416   0.000002   0.003285  -0.024447   0.001113
     3  C   -0.000105  -0.014691  -0.025191  -0.001341   0.000021   0.000010
     4  C   -0.030839  -0.023552   0.005542  -0.012020  -0.002862  -0.001547
     5  C    0.244376   0.001316  -0.000075  -0.028843  -0.031909  -0.003250
     6  C   -0.045851   0.000560  -0.000063  -0.004733   0.244849  -0.052686
     7  H   -0.000259   0.001871  -0.002376   0.000618   0.000014   0.000002
     8  H   -0.035333  -0.000266   0.000021   0.005666  -0.004002   0.019688
     9  H    0.004611   0.000033  -0.000015  -0.000217  -0.036890   0.003500
    10  H    0.007145   0.003015  -0.000360  -0.000703  -0.000005  -0.000080
    11  O   -0.018653   0.000245   0.231552   0.044448   0.000016   0.000000
    12  O    0.001433   0.204138  -0.000093   0.000013   0.009238  -0.017126
    13  O    8.292528  -0.000089   0.000780   0.230085   0.003577   0.000146
    14  H   -0.000089   0.323951   0.000018   0.000009  -0.000238   0.001388
    15  H    0.000780   0.000018   0.382545  -0.001145  -0.000000  -0.000000
    16  H    0.230085   0.000009  -0.001145   0.344955   0.000046  -0.000006
    17  C    0.003577  -0.000238  -0.000000   0.000046   4.972332   0.267805
    18  O    0.000146   0.001388  -0.000000  -0.000006   0.267805   8.262347
    19  H   -0.000056   0.000072  -0.000000  -0.000001   0.359800  -0.039199
    20  H   -0.000027   0.000704   0.000001   0.000005   0.356745  -0.028434
    21  H    0.000019  -0.001804   0.000001  -0.000000  -0.033270   0.219872
    22  O    0.000000   0.074370   0.000052   0.000008  -0.008650  -0.000019
    23  H   -0.000000  -0.000550  -0.000011   0.000000   0.000266   0.000002
    24  H    0.000020   0.001636   0.009468  -0.000043  -0.000224  -0.000000
    25  H   -0.000059  -0.000046  -0.000029  -0.000014  -0.000643  -0.000040
    26  O    0.000000   0.000139   0.000000  -0.000000  -0.000458   0.000000
    27  H   -0.000000  -0.000008  -0.000000   0.000000   0.000023  -0.000000
    28  O    0.000000  -0.000001   0.000001   0.000001   0.001625   0.000008
    29  H   -0.000000   0.000001  -0.000000  -0.000000   0.000722  -0.000001
    30  H   -0.000000  -0.000014  -0.000001  -0.000000   0.000015  -0.000001
              19         20         21         22         23         24
     1  C    0.000162   0.001643   0.000275   0.250807  -0.011278   0.360586
     2  O    0.003099  -0.005092   0.000025  -0.056785   0.003007  -0.055313
     3  C   -0.000054  -0.000388   0.000346  -0.049202   0.001964  -0.069000
     4  C   -0.000114   0.000312  -0.005446   0.000647  -0.000043   0.004413
     5  C    0.002971  -0.001764   0.002848  -0.000449  -0.000018   0.000145
     6  C   -0.038068  -0.053821  -0.002130   0.005169  -0.000320   0.004444
     7  H   -0.000001  -0.000003  -0.000025   0.005976  -0.000051  -0.001525
     8  H   -0.000236   0.000950  -0.000237  -0.000007  -0.000001   0.000015
     9  H   -0.009582   0.004496  -0.000412  -0.000155  -0.000000  -0.000245
    10  H    0.000008   0.000001   0.000372  -0.000249   0.000004  -0.000195
    11  O    0.000000  -0.000002  -0.000007   0.001719  -0.000020   0.000104
    12  O    0.000168   0.000322   0.050975  -0.029690   0.000178  -0.000302
    13  O   -0.000056  -0.000027   0.000019   0.000000  -0.000000   0.000020
    14  H    0.000072   0.000704  -0.001804   0.074370  -0.000550   0.001636
    15  H   -0.000000   0.000001   0.000001   0.000052  -0.000011   0.009468
    16  H   -0.000001   0.000005  -0.000000   0.000008   0.000000  -0.000043
    17  C    0.359800   0.356745  -0.033270  -0.008650   0.000266  -0.000224
    18  O   -0.039199  -0.028434   0.219872  -0.000019   0.000002  -0.000000
    19  H    0.627998  -0.040858   0.007147   0.000287  -0.000013   0.000016
    20  H   -0.040858   0.600486  -0.006796   0.015431   0.000479   0.000187
    21  H    0.007147  -0.006796   0.349442   0.000107  -0.000013   0.000005
    22  O    0.000287   0.015431   0.000107   8.461206   0.119268  -0.045352
    23  H   -0.000013   0.000479  -0.000013   0.119268   0.294222  -0.005962
    24  H    0.000016   0.000187   0.000005  -0.045352  -0.005962   0.701486
    25  H    0.000455   0.001235   0.000002   0.004162  -0.000380  -0.002256
    26  O    0.000001   0.001815   0.000001  -0.083027   0.140498   0.003337
    27  H    0.000000  -0.000048  -0.000000   0.003737  -0.004262  -0.000147
    28  O    0.000065   0.000597   0.000000  -0.001558   0.006291   0.000705
    29  H    0.001280   0.000292   0.000001   0.000029  -0.000179  -0.000014
    30  H    0.000005   0.000538  -0.000000   0.004075  -0.010548  -0.000491
              25         26         27         28         29         30
     1  C   -0.005972   0.010942   0.000047   0.006417  -0.000125  -0.000069
     2  O    0.122115  -0.001173  -0.000012  -0.096106   0.004319   0.004696
     3  C    0.001793   0.000018   0.000022  -0.000046   0.000002   0.000089
     4  C   -0.000023  -0.000005   0.000000  -0.000011   0.000001   0.000001
     5  C    0.001473   0.000001   0.000000  -0.000022   0.000027   0.000003
     6  C   -0.009422   0.000054  -0.000004   0.005033  -0.000803  -0.000368
     7  H   -0.000063   0.000003  -0.000001   0.000003  -0.000000  -0.000002
     8  H   -0.000053   0.000000   0.000000   0.000002  -0.000001  -0.000000
     9  H   -0.002243   0.000002  -0.000000   0.000281   0.000054  -0.000002
    10  H    0.000007  -0.000000   0.000000  -0.000000   0.000000   0.000000
    11  O   -0.000055   0.000000  -0.000000   0.000000  -0.000000  -0.000000
    12  O   -0.000011  -0.000003   0.000000   0.000000  -0.000000   0.000000
    13  O   -0.000059   0.000000  -0.000000   0.000000  -0.000000  -0.000000
    14  H   -0.000046   0.000139  -0.000008  -0.000001   0.000001  -0.000014
    15  H   -0.000029   0.000000  -0.000000   0.000001  -0.000000  -0.000001
    16  H   -0.000014  -0.000000   0.000000   0.000001  -0.000000  -0.000000
    17  C   -0.000643  -0.000458   0.000023   0.001625   0.000722   0.000015
    18  O   -0.000040   0.000000  -0.000000   0.000008  -0.000001  -0.000001
    19  H    0.000455   0.000001   0.000000   0.000065   0.001280   0.000005
    20  H    0.001235   0.001815  -0.000048   0.000597   0.000292   0.000538
    21  H    0.000002   0.000001  -0.000000   0.000000   0.000001  -0.000000
    22  O    0.004162  -0.083027   0.003737  -0.001558   0.000029   0.004075
    23  H   -0.000380   0.140498  -0.004262   0.006291  -0.000179  -0.010548
    24  H   -0.002256   0.003337  -0.000147   0.000705  -0.000014  -0.000491
    25  H    0.270088   0.004046  -0.000081   0.133679  -0.005786  -0.006457
    26  O    0.004046   8.486797   0.232738  -0.093651   0.003721   0.133534
    27  H   -0.000081   0.232738   0.363817   0.003776  -0.000106  -0.006484
    28  O    0.133679  -0.093651   0.003776   8.485572   0.237579   0.136480
    29  H   -0.005786   0.003721  -0.000106   0.237579   0.339011  -0.005256
    30  H   -0.006457   0.133534  -0.006484   0.136480  -0.005256   0.281487
 Mulliken charges:
               1
     1  C    0.314885
     2  O   -0.620452
     3  C    0.079828
     4  C    0.102553
     5  C    0.102148
     6  C    0.078041
     7  H    0.156052
     8  H    0.167153
     9  H    0.161644
    10  H    0.158791
    11  O   -0.637975
    12  O   -0.680189
    13  O   -0.654362
    14  H    0.438636
    15  H    0.403761
    16  H    0.420011
    17  C   -0.071002
    18  O   -0.633448
    19  H    0.124647
    20  H    0.150993
    21  H    0.418701
    22  O   -0.671907
    23  H    0.467470
    24  H    0.094501
    25  H    0.494577
    26  O   -0.839331
    27  H    0.406994
    28  O   -0.826723
    29  H    0.425234
    30  H    0.468769
 Sum of Mulliken charges =  -0.00000
 Mulliken charges with hydrogens summed into heavy atoms:
               1
     1  C    0.409386
     2  O   -0.620452
     3  C    0.235880
     4  C    0.261344
     5  C    0.269301
     6  C    0.239685
    11  O   -0.234215
    12  O   -0.241553
    13  O   -0.234351
    17  C    0.204638
    18  O   -0.214746
    22  O   -0.671907
    26  O    0.035133
    28  O    0.561857
 APT charges:
               1
     1  C   -0.238379
     2  O   -0.358181
     3  C   -0.351281
     4  C   -0.457971
     5  C   -0.370726
     6  C   -0.325066
     7  H    0.505341
     8  H    0.508018
     9  H    0.503795
    10  H    0.596209
    11  O   -0.821305
    12  O   -0.550702
    13  O   -0.577723
    14  H    0.383152
    15  H    0.697660
    16  H    0.455397
    17  C   -0.626241
    18  O   -0.520174
    19  H    0.515212
    20  H    0.241682
    21  H    0.394505
    22  O   -0.540500
    23  H    0.296934
    24  H    0.399325
    25  H    0.392169
    26  O   -1.176969
    27  H    0.897417
    28  O   -1.003232
    29  H    0.732089
    30  H    0.399541
 Sum of APT charges =  -0.00000
 APT charges with hydrogens summed into heavy atoms:
               1
     1  C    0.160946
     2  O   -0.358181
     3  C    0.154060
     4  C    0.138238
     5  C    0.137293
     6  C    0.178730
    11  O   -0.123645
    12  O   -0.167549
    13  O   -0.122325
    17  C    0.130653
    18  O   -0.125669
    22  O   -0.540500
    26  O    0.017382
    28  O    0.520568
 Electronic spatial extent (au):  <R**2>=           2765.0980
 Charge=              0.0000 electrons
 Dipole moment (field-independent basis, Debye):
    X=              4.7283    Y=             -3.8353    Z=             -1.7295  Tot=              6.3291
 Quadrupole moment (field-independent basis, Debye-Ang):
   XX=            -82.2986   YY=            -80.9596   ZZ=            -88.3362
   XY=              0.4750   XZ=             -6.2426   YZ=             -5.0341
 Traceless Quadrupole moment (field-independent basis, Debye-Ang):
   XX=              1.5662   YY=              2.9052   ZZ=             -4.4714
   XY=              0.4750   XZ=             -6.2426   YZ=             -5.0341
 Octapole moment (field-independent basis, Debye-Ang**2):
  XXX=             72.8150  YYY=            -67.4570  ZZZ=             -7.7837  XYY=             20.8934
  XXY=            -10.6130  XXZ=              6.7430  XZZ=             17.0601  YZZ=              2.8914
  YYZ=            -12.5787  XYZ=            -16.9975
 Hexadecapole moment (field-independent basis, Debye-Ang**3):
 XXXX=          -1504.4795 YYYY=          -1012.7123 ZZZZ=           -647.2861 XXXY=            -78.9377
 XXXZ=            -46.8954 YYYX=              7.0710 YYYZ=              3.8915 ZZZX=              0.4649
 ZZZY=              0.9437 XXYY=           -384.6477 XXZZ=           -392.9511 YYZZ=           -246.3907
 XXYZ=            -46.9310 YYXZ=              3.2585 ZZXY=             29.1940
 N-N= 1.153167977263D+03 E-N=-4.278459747442D+03  KE= 8.327652804298D+02
  Exact polarizability:   0.000   0.000   0.000   0.000   0.000   0.000
 Approx polarizability: 135.572  -2.660 132.782   3.367   0.817 133.237
 Calling FoFJK, ICntrl=    100147 FMM=F ISym2X=0 I1Cent= 0 IOpClX= 0 NMat=1 NMatS=1 NMatT=0.
 -------------------------------------------------------------------
 Center     Atomic                   Forces (Hartrees/Bohr)
 Number     Number              X              Y              Z
 -------------------------------------------------------------------
      1        6          -0.000011331    0.000008309    0.000002347
      2        8           0.000002582   -0.000016934    0.000006036
      3        6          -0.000004750    0.000003545    0.000005207
      4        6           0.000002018    0.000003676   -0.000007712
      5        6          -0.000003798    0.000016999   -0.000007418
      6        6          -0.000002359   -0.000004630    0.000010161
      7        1          -0.000009633    0.000002704    0.000006466
      8        1           0.000008166   -0.000007133   -0.000003613
      9        1           0.000004351    0.000000236   -0.000013962
     10        1          -0.000006623    0.000003723   -0.000004318
     11        8          -0.000015663    0.000014776    0.000010288
     12        8          -0.000015606    0.000018026   -0.000006113
     13        8           0.000004762    0.000006700   -0.000004666
     14        1          -0.000002338    0.000000437    0.000001494
     15        1           0.000010266   -0.000014503   -0.000002276
     16        1           0.000002559    0.000001064   -0.000006431
     17        6           0.000004935    0.000000215   -0.000003130
     18        8           0.000010409    0.000014796   -0.000014821
     19        1           0.000004811    0.000005121   -0.000001937
     20        1           0.000000395   -0.000002296   -0.000002467
     21        1          -0.000005102   -0.000002582    0.000001856
     22        8          -0.000013086    0.000004891    0.000007789
     23        1           0.000001338   -0.000012807   -0.000009739
     24        1           0.000003178   -0.000005747    0.000004891
     25        1          -0.000006537   -0.000004005    0.000000648
     26        8           0.000009251    0.000056757    0.000005605
     27        1           0.000025936   -0.000051605    0.000017239
     28        8           0.000011777   -0.000021407    0.000006093
     29        1          -0.000000405   -0.000000740    0.000009339
     30        1          -0.000009505   -0.000017587   -0.000006856
 -------------------------------------------------------------------
 Cartesian Forces:  Max     0.000056757 RMS     0.000011940
 IRC-IRC-IRC-IRC-IRC-IRC-IRC-IRC-IRC-IRC-IRC-IRC-IRC-IRC-IRC-IRC-IRC-IRC
          ******** Start new reaction path calculation ********
 Supplied step size of   0.1000 bohr.
    Integration on MW PES will use step size of   0.1094 sqrt(amu)*bohr.
 Point Number:   0          Path Number:   1
 Calculating another point on the path.
 IRC-IRC-IRC-IRC-IRC-IRC-IRC-IRC-IRC-IRC-IRC-IRC-IRC-IRC-IRC-IRC-IRC-IRC
                          Input orientation:                          
 ---------------------------------------------------------------------
 Center     Atomic      Atomic             Coordinates (Angstroms)
 Number     Number       Type             X           Y           Z
 ---------------------------------------------------------------------
      1          6           0        0.507941   -1.235536    0.283917
      2          8           0        0.489927   -0.340043   -1.001978
      3          6           0       -0.963017   -1.538567    0.611542
      4          6           0       -1.739173   -0.219461    0.796377
      5          6           0       -1.712753    0.625054   -0.496915
      6          6           0       -0.274237    0.912803   -0.959616
      7          1           0       -0.964684   -2.090252    1.562024
      8          1           0       -2.177253    1.591461   -0.287954
      9          1           0       -0.355575    1.197674   -2.013021
     10          1           0       -2.785177   -0.451622    1.023140
     11          8           0       -1.618445   -2.297624   -0.406569
     12          8           0       -1.193280    0.509699    1.899062
     13          8           0       -2.480231    0.029335   -1.528526
     14          1           0       -0.254461    0.212919    1.991901
     15          1           0       -1.056275   -3.054371   -0.636382
     16          1           0       -2.226053   -0.911497   -1.555188
     17          6           0        0.478875    2.022861   -0.155147
     18          8           0       -0.377105    2.888716    0.560535
     19          1           0        1.030273    2.659785   -0.857893
     20          1           0        1.207384    1.543563    0.507104
     21          1           0       -0.772923    2.335188    1.265400
     22          8           0        1.141452   -0.689209    1.312846
     23          1           0        2.493399   -0.568605    1.101556
     24          1           0        1.007134   -2.116900   -0.168041
     25          1           0        1.720023   -0.163211   -1.380763
     26          8           0        3.522601   -0.421270    0.734154
     27          1           0        4.022777   -1.235462    0.901003
     28          8           0        2.837776   -0.075945   -1.571466
     29          1           0        3.045621    0.829942   -1.854175
     30          1           0        3.286333   -0.241393   -0.522333
 ---------------------------------------------------------------------
                    Distance matrix (angstroms):
                    1          2          3          4          5
     1  C    0.000000
     2  O    1.567086   0.000000
     3  C    1.537167   2.480111   0.000000
     4  C    2.518839   2.866620   1.541631   0.000000
     5  C    3.000496   2.457295   2.544020   1.544833   0.000000
     6  C    2.602602   1.468116   2.992017   2.551778   1.538252
     7  H    2.129018   3.428298   1.098988   2.164696   3.488799
     8  H    3.940712   3.369627   3.475707   2.155719   1.092413
     9  H    3.455734   2.025255   3.839835   3.437344   2.113859
    10  H    3.464910   3.852254   2.161280   1.095191   2.149394
    11  O    2.475140   2.938004   1.429091   2.404250   2.925594
    12  O    2.923815   3.459954   2.430252   1.430241   2.454357
    13  O    3.716722   3.039002   3.056165   2.452803   1.417083
    14  H    2.365690   3.134197   2.339904   1.954636   2.913877
    15  H    2.569413   3.145152   1.965622   3.248979   3.740131
    16  H    3.310896   2.830044   2.585188   2.499165   1.935047
    17  C    3.287974   2.510092   3.917988   3.294411   2.621812
    18  O    4.227207   3.690268   4.466176   3.401707   2.833076
    19  H    4.092687   3.051508   4.874280   4.323945   3.434330
    20  H    2.874444   2.517944   3.771084   3.445886   3.221632
    21  H    3.918417   3.727285   3.933147   2.771254   2.629371
    22  O    1.326086   2.429982   2.375295   2.964019   3.626156
    23  H    2.248416   2.913931   3.623224   4.257899   4.655281
    24  H    1.109172   2.029821   2.196295   3.474562   3.876113
    25  H    2.321677   1.299185   3.613804   4.087682   3.631321
    26  O    3.154983   3.495406   4.624300   5.266011   5.478983
    27  H    3.568595   4.111464   5.003379   5.851776   6.189669
    28  O    3.196127   2.430320   4.620693   5.155167   4.727935
    29  H    3.908639   2.937120   5.268659   5.569643   4.952398
    30  H    3.059056   2.838957   4.585336   5.195690   5.073681
                    6          7          8          9         10
     6  C    0.000000
     7  H    3.981673   0.000000
     8  H    2.129125   4.295084   0.000000
     9  H    1.094271   4.895142   2.539573   0.000000
    10  H    3.478188   2.507927   2.502544   4.223910   0.000000
    11  O    3.524144   2.084649   3.930816   4.048782   2.610183
    12  O    3.029715   2.631653   2.630865   4.059489   2.055606
    13  O    2.443477   4.042404   2.017685   2.472633   2.614443
    14  H    3.033428   2.448226   3.285612   4.125454   2.790097
    15  H    4.056419   2.402270   4.791842   4.523937   3.537996
    16  H    2.737218   3.563358   2.805898   2.856029   2.678037
    17  C    1.564154   4.685108   2.694208   2.197483   4.262096
    18  O    2.495130   5.112568   2.375570   3.079493   4.143751
    19  H    2.182669   5.691985   3.428464   2.322211   5.270370
    20  H    2.178148   4.362952   3.477093   2.985550   4.493061
    21  H    2.687483   4.439513   2.222202   3.495162   3.445891
    22  O    3.120048   2.541815   4.333338   4.106435   3.944464
    23  H    3.755371   3.806018   5.330254   4.575695   5.280455
    24  H    3.383430   2.623337   4.889441   4.030797   4.309720
    25  H    2.304830   4.425057   4.411560   2.561224   5.114563
    26  O    4.366302   4.858662   6.130589   5.020777   6.314468
    27  H    5.151823   5.103174   6.917043   5.794968   6.854018
    28  O    3.322139   5.323052   5.438581   3.466204   6.204088
    29  H    3.439267   6.023328   5.505576   3.424704   6.627183
    30  H    3.768428   5.082713   5.767587   4.190056   6.268646
                   11         12         13         14         15
    11  O    0.000000
    12  O    3.657562   0.000000
    13  O    2.723270   3.692608   0.000000
    14  H    3.730407   0.988979   4.169073   0.000000
    15  H    0.970317   4.376054   3.511811   4.269188   0.000000
    16  H    1.899963   3.875341   0.974927   4.211096   2.608542
    17  C    4.809215   3.050498   3.823169   2.902325   5.326026
    18  O    5.419809   2.849126   4.118662   3.037061   6.100341
    19  H    5.638732   4.143411   4.437641   3.969763   6.087227
    20  H    4.855391   2.961353   4.476068   2.472292   5.250973
    21  H    4.997332   1.977533   4.004733   2.302310   5.722273
    22  O    3.627729   2.689239   4.659001   1.795417   3.771404
    23  H    4.708631   3.923055   5.657903   2.992362   4.669009
    24  H    2.642578   4.001720   4.314969   3.418337   2.314271
    25  H    4.080458   4.438174   4.207260   3.926184   4.076855
    26  O    5.590376   4.946034   6.430922   4.031169   5.456895
    27  H    5.887387   5.590077   7.056305   4.645711   5.609702
    28  O    5.113780   5.351351   5.319222   4.726833   4.990896
    29  H    5.799202   5.670769   5.593036   5.105248   5.778967
    30  H    5.319618   5.147255   5.859947   4.366348   5.175336
                   16         17         18         19         20
    16  H    0.000000
    17  C    4.229327   0.000000
    18  O    4.726152   1.412306   0.000000
    19  H    4.883025   1.097071   2.011234   0.000000
    20  H    4.697750   1.095002   2.079158   1.772155   0.000000
    21  H    4.539633   1.918984   0.979745   2.804506   2.263470
    22  O    4.428897   3.154257   3.958981   3.992521   2.374624
    23  H    5.426702   3.514728   4.526099   4.050023   2.543318
    24  H    3.718961   4.173349   5.244343   4.826298   3.727588
    25  H    4.020183   2.796693   4.181009   2.952703   2.596135
    26  O    6.207128   4.003611   5.117994   4.270739   3.045054
    27  H    6.722032   4.928627   6.040176   5.217446   3.975497
    28  O    5.132327   3.460543   4.865193   3.355663   3.098619
    29  H    5.559905   3.301202   4.667379   2.898712   3.076362
    30  H    5.648206   3.625396   4.938722   3.690426   2.927087
                   21         22         23         24         25
    21  H    0.000000
    22  O    3.579673   0.000000
    23  H    4.373525   1.373662   0.000000
    24  H    5.004442   2.061401   2.493608   0.000000
    25  H    4.411230   2.804808   2.631418   2.407448   0.000000
    26  O    5.131453   2.465065   1.102701   3.164916   2.790834
    27  H    5.990081   2.961425   1.680451   3.318719   3.414507
    28  O    5.186378   3.401891   2.739773   3.079991   1.137258
    29  H    5.155462   3.995460   3.316207   3.960095   1.722696
    30  H    5.129554   2.858135   1.836526   2.972844   1.787832
                   26         27         28         29         30
    26  O    0.000000
    27  H    0.970012   0.000000
    28  O    2.429838   2.976879   0.000000
    29  H    2.914187   3.579348   0.971471   0.000000
    30  H    1.291099   1.885844   1.152934   1.726124   0.000000
 Symmetry turned off by external request.
 Stoichiometry    C6H16O8
 Framework group  C1[X(C6H16O8)]
 Deg. of freedom    84
 Full point group                 C1      NOp   1
 Rotational constants (GHZ):      0.7980039      0.5474948      0.4753111
 Standard basis: 6-31G(d) (6D, 7F)
   242 basis functions,   456 primitive gaussians,   242 cartesian basis functions
    58 alpha electrons       58 beta electrons
       nuclear repulsion energy      1153.2541931968 Hartrees.
 NAtoms=   30 NActive=   30 NUniq=   30 SFac= 1.00D+00 NAtFMM=   60 NAOKFM=F Big=F
 Integral buffers will be    131072 words long.
 Raffenetti 2 integral format.
 Two-electron integral symmetry is turned off.
 One-electron integrals computed using PRISM.
 NBasis=   242 RedAO= T EigKep=  1.75D-03  NBF=   242
 NBsUse=   242 1.00D-06 EigRej= -1.00D+00 NBFU=   242
 Initial guess from the checkpoint file:  "/scratch/10447804.yak.local/Gau-20434.chk"
 B after Tr=     0.058451   -0.003755   -0.007462
         Rot=    1.000000    0.000001    0.000062    0.000006 Ang=   0.01 deg.
 ExpMin= 1.61D-01 ExpMax= 5.48D+03 ExpMxC= 8.25D+02 IAcc=1 IRadAn=         1 AccDes= 0.00D+00
 Harris functional with IExCor=  402 and IRadAn=       1 diagonalized for initial guess.
 HarFok:  IExCor=  402 AccDes= 0.00D+00 IRadAn=         1 IDoV= 1 UseB2=F ITyADJ=14
 ICtDFT=  3500011 ScaDFX=  1.000000  1.000000  1.000000  1.000000
 FoFCou: FMM=F IPFlag=           0 FMFlag=      100000 FMFlg1=           0
         NFxFlg=           0 DoJE=T BraDBF=F KetDBF=T FulRan=T
         wScrn=  0.000000 ICntrl=     500 IOpCl=  0 I1Cent=   200000004 NGrid=           0
         NMat0=    1 NMatS0=      1 NMatT0=    0 NMatD0=    1 NMtDS0=    0 NMtDT0=    0
 Symmetry not used in FoFCou.
 Requested convergence on RMS density matrix=1.00D-08 within 128 cycles.
 Requested convergence on MAX density matrix=1.00D-06.
 Requested convergence on             energy=1.00D-06.
 No special actions if energy rises.
 Integral accuracy reduced to 1.0D-05 until final iterations.
 Initial convergence to 1.0D-05 achieved.  Increase integral accuracy.
 SCF Done:  E(RB3LYP) =  -839.970545681     A.U. after   11 cycles
            NFock= 11  Conv=0.88D-08     -V/T= 2.0087
 DoSCS=F DFT=T ScalE2(SS,OS)=  1.000000  1.000000
 Range of M.O.s used for correlation:     1   242
 NBasis=   242 NAE=    58 NBE=    58 NFC=     0 NFV=     0
 NROrb=    242 NOA=    58 NOB=    58 NVA=   184 NVB=   184
 Symmetrizing basis deriv contribution to polar:
 IMax=3 JMax=2 DiffMx= 0.00D+00
 Calling FoFJK, ICntrl=      2147 FMM=F ISym2X=0 I1Cent= 0 IOpClX= 0 NMat=1 NMatS=1 NMatT=0.
 -------------------------------------------------------------------
 Center     Atomic                   Forces (Hartrees/Bohr)
 Number     Number              X              Y              Z
 -------------------------------------------------------------------
      1        6          -0.000720018    0.001511542   -0.003059160
      2        8          -0.001603865   -0.001010508    0.002174036
      3        6           0.000156488    0.000061640    0.000290018
      4        6          -0.000067278   -0.000028864   -0.000081822
      5        6          -0.000173291    0.000311046    0.000082133
      6        6           0.000055886   -0.001057911    0.000553022
      7        1          -0.000004437   -0.000000577    0.000029315
      8        1          -0.000065087   -0.000013534    0.000017908
      9        1           0.000054986   -0.000095460    0.000018291
     10        1          -0.000003850   -0.000000697    0.000020719
     11        8           0.000071090    0.000020159    0.000206667
     12        8           0.000000753    0.000026212    0.000093167
     13        8          -0.000076206   -0.000014477    0.000029796
     14        1          -0.000029668    0.000072688    0.000038063
     15        1           0.000030558    0.000004035   -0.000013831
     16        1           0.000074483    0.000025440   -0.000031088
     17        6          -0.000152289   -0.000118278   -0.000086253
     18        8           0.000063100    0.000142317    0.000057037
     19        1          -0.000012943   -0.000001232   -0.000015438
     20        1           0.000005683    0.000016174   -0.000003316
     21        1          -0.000031988   -0.000003986   -0.000026361
     22        8           0.002524136    0.000295175    0.000210610
     23        1          -0.001930884   -0.000174723    0.000188305
     24        1          -0.000069748   -0.000001586    0.000043468
     25        1           0.001723931    0.000173332   -0.000761388
     26        8          -0.001637309    0.000439438   -0.002423931
     27        1          -0.000008288   -0.000016443   -0.000311482
     28        8           0.001267763    0.000016483    0.000025586
     29        1          -0.000192021   -0.000032894   -0.000010788
     30        1           0.000750312   -0.000544513    0.002746718
 -------------------------------------------------------------------
 Cartesian Forces:  Max     0.003059160 RMS     0.000782613
 IRC-IRC-IRC-IRC-IRC-IRC-IRC-IRC-IRC-IRC-IRC-IRC-IRC-IRC-IRC-IRC-IRC-IRC
 Pt  1 Step number   1 out of a maximum of 500
 Modified Bulirsch-Stoer Extrapolation Cycles:
    EPS =    0.000010000000000
 Maximum DWI energy   std dev =  0.000001898 at pt    36
 Maximum DWI gradient std dev =  0.160452431 at pt     2
 CORRECTOR INTEGRATION CONVERGENCE:
   Recorrection delta-x convergence threshold:    0.010000
   Delta-x Convergence Met
 Point Number:   1          Path Number:   1
   CHANGE IN THE REACTION COORDINATE =    0.10908
   NET REACTION COORDINATE UP TO THIS POINT =    0.10908
  # OF POINTS ALONG THE PATH =   1
  # OF STEPS =   1

 Calculating another point on the path.
 IRC-IRC-IRC-IRC-IRC-IRC-IRC-IRC-IRC-IRC-IRC-IRC-IRC-IRC-IRC-IRC-IRC-IRC
                          Input orientation:                          
 ---------------------------------------------------------------------
 Center     Atomic      Atomic             Coordinates (Angstroms)
 Number     Number       Type             X           Y           Z
 ---------------------------------------------------------------------
      1          6           0        0.507146   -1.233954    0.280409
      2          8           0        0.488450   -0.340951   -1.000120
      3          6           0       -0.962852   -1.538510    0.611896
      4          6           0       -1.739246   -0.219484    0.796282
      5          6           0       -1.712942    0.625383   -0.496842
      6          6           0       -0.274234    0.911752   -0.959023
      7          1           0       -0.964713   -2.090228    1.562405
      8          1           0       -2.178182    1.591380   -0.287693
      9          1           0       -0.354768    1.196321   -2.012696
     10          1           0       -2.785148   -0.451647    1.023440
     11          8           0       -1.618340   -2.297600   -0.406387
     12          8           0       -1.193305    0.509719    1.899144
     13          8           0       -2.480300    0.029328   -1.528490
     14          1           0       -0.254826    0.214124    1.992684
     15          1           0       -1.056125   -3.054233   -0.636486
     16          1           0       -2.225088   -0.911152   -1.555686
     17          6           0        0.478730    2.022747   -0.155248
     18          8           0       -0.377064    2.888821    0.560579
     19          1           0        1.030099    2.659668   -0.858089
     20          1           0        1.207548    1.543868    0.507000
     21          1           0       -0.773323    2.335277    1.265060
     22          8           0        1.143778   -0.688933    1.313044
     23          1           0        2.469530   -0.570622    1.102157
     24          1           0        1.006308   -2.116901   -0.167388
     25          1           0        1.749099   -0.160305   -1.391725
     26          8           0        3.520834   -0.420957    0.732212
     27          1           0        4.022457   -1.235318    0.896124
     28          8           0        2.838799   -0.076070   -1.571131
     29          1           0        3.043492    0.830240   -1.854451
     30          1           0        3.294486   -0.247810   -0.488559
 ---------------------------------------------------------------------
                    Distance matrix (angstroms):
                    1          2          3          4          5
     1  C    0.000000
     2  O    1.561269   0.000000
     3  C    1.537378   2.477705   0.000000
     4  C    2.518243   2.864340   1.541627   0.000000
     5  C    2.998340   2.456261   2.544478   1.544882   0.000000
     6  C    2.598230   1.467188   2.990948   2.550892   1.538018
     7  H    2.131452   3.426104   1.099028   2.164840   3.489253
     8  H    3.939065   3.369329   3.475989   2.155665   1.092402
     9  H    3.450720   2.024730   3.838953   3.436807   2.113864
    10  H    3.464577   3.850129   2.161342   1.095176   2.149622
    11  O    2.474009   2.935909   1.429260   2.404079   2.925912
    12  O    2.924420   3.457986   2.430094   1.430417   2.454414
    13  O    3.713870   3.038052   3.056471   2.452679   1.417187
    14  H    2.368421   3.133280   2.340855   1.955223   2.914271
    15  H    2.568643   3.143222   1.965852   3.248889   3.740386
    16  H    3.307649   2.827909   2.585581   2.499239   1.935041
    17  C    3.285834   2.510174   3.917808   3.294302   2.621591
    18  O    4.225825   3.690031   4.466212   3.401861   2.832995
    19  H    4.090227   3.052421   4.874158   4.323856   3.434107
    20  H    2.873709   2.518145   3.771299   3.446257   3.221890
    21  H    3.917722   3.726300   3.933036   2.771202   2.628863
    22  O    1.329919   2.429254   2.377242   2.966354   3.628217
    23  H    2.228505   2.897757   3.599780   4.234461   4.634684
    24  H    1.108729   2.028699   2.195316   3.473747   3.875949
    25  H    2.343332   1.332375   3.642613   4.118182   3.661127
    26  O    3.153952   3.493241   4.622429   5.264327   5.477026
    27  H    3.568827   4.109117   5.002602   5.851420   6.188486
    28  O    3.194605   2.433178   4.621352   5.155939   4.729109
    29  H    3.905327   2.937654   5.267318   5.568024   4.950630
    30  H    3.055006   2.853806   4.582776   5.195197   5.082998
                    6          7          8          9         10
     6  C    0.000000
     7  H    3.980735   0.000000
     8  H    2.130163   4.295301   0.000000
     9  H    1.094391   4.894363   2.540974   0.000000
    10  H    3.477600   2.507871   2.502286   4.223822   0.000000
    11  O    3.523062   2.084796   3.930862   4.047757   2.610247
    12  O    3.029099   2.631611   2.631012   4.059194   2.055491
    13  O    2.443295   4.042667   2.017638   2.472694   2.614693
    14  H    3.033091   2.449310   3.285765   4.125260   2.790200
    15  H    4.055172   2.402662   4.791909   4.522507   3.538126
    16  H    2.735839   3.563882   2.805829   2.854541   2.678937
    17  C    1.564392   4.685128   2.694958   2.197229   4.262022
    18  O    2.495711   5.112722   2.376330   3.080065   4.143891
    19  H    2.183274   5.692063   3.429236   2.322145   5.270346
    20  H    2.178181   4.363399   3.478068   2.985044   4.493374
    21  H    2.687389   4.439610   2.222173   3.495153   3.445687
    22  O    3.120135   2.543922   4.335620   4.106139   3.946724
    23  H    3.738200   3.783525   5.311042   4.560818   5.256614
    24  H    3.382191   2.622559   4.889458   4.029285   4.308860
    25  H    2.330325   4.451546   4.439687   2.579205   5.145610
    26  O    4.363363   4.857553   6.129314   5.017011   6.312778
    27  H    5.149081   5.103593   6.916615   5.790873   6.853746
    28  O    3.322867   5.323775   5.440377   3.465953   6.204968
    29  H    3.437404   6.022437   5.504538   3.421583   6.625597
    30  H    3.781757   5.073631   5.776942   4.210174   6.268145
                   11         12         13         14         15
    11  O    0.000000
    12  O    3.657481   0.000000
    13  O    2.723359   3.692669   0.000000
    14  H    3.731417   0.988367   4.169599   0.000000
    15  H    0.970322   4.376071   3.511737   4.270454   0.000000
    16  H    1.900334   3.875474   0.974872   4.211782   2.608486
    17  C    4.808968   3.050488   3.823006   2.902212   5.325702
    18  O    5.419849   2.849233   4.118801   3.036424   6.100327
    19  H    5.638508   4.143445   4.437458   3.969714   6.086880
    20  H    4.855595   2.961693   4.476301   2.472653   5.251125
    21  H    4.997133   1.977651   4.004385   2.301644   5.722121
    22  O    3.629538   2.691141   4.660918   1.798198   3.772914
    23  H    4.687093   3.901114   5.637470   2.971697   4.649887
    24  H    2.641694   4.000998   4.314549   3.419071   2.313498
    25  H    4.108354   4.465030   4.235857   3.950967   4.100547
    26  O    5.588319   4.944795   6.428619   4.030847   5.454909
    27  H    5.885879   5.590651   7.054356   4.647416   5.607971
    28  O    5.114481   5.351992   5.320314   4.728161   4.991337
    29  H    5.797668   5.669449   5.591063   5.104797   5.777494
    30  H    5.323932   5.139576   5.874216   4.355177   5.179354
                   16         17         18         19         20
    16  H    0.000000
    17  C    4.228430   0.000000
    18  O    4.725841   1.412401   0.000000
    19  H    4.881971   1.097116   2.011278   0.000000
    20  H    4.697317   1.095022   2.079126   1.771995   0.000000
    21  H    4.539111   1.919007   0.979657   2.804519   2.263810
    22  O    4.430378   3.154581   3.959734   3.992478   2.374695
    23  H    5.405509   3.502844   4.512666   4.043427   2.533354
    24  H    3.717945   4.173149   5.244131   4.826308   3.727805
    25  H    4.047817   2.812193   4.198718   2.958712   2.608187
    26  O    6.204062   4.001709   5.116415   4.268849   3.043444
    27  H    6.719246   4.927309   6.039611   5.215591   3.974796
    28  O    5.132304   3.461168   4.865855   3.356202   3.099001
    29  H    5.556946   3.299601   4.665869   2.897119   3.075127
    30  H    5.660784   3.632493   4.941602   3.703705   2.925160
                   21         22         23         24         25
    21  H    0.000000
    22  O    3.580981   0.000000
    23  H    4.357394   1.347624   0.000000
    24  H    5.004087   2.061473   2.478658   0.000000
    25  H    4.432725   2.821637   2.628084   2.424667   0.000000
    26  O    5.130355   2.461620   1.124499   3.163598   2.778145
    27  H    5.990390   2.959587   1.701720   3.317440   3.399715
    28  O    5.187100   3.401054   2.743612   3.081154   1.107577
    29  H    5.154083   3.993724   3.321653   3.960043   1.694328
    30  H    5.127825   2.840055   1.820752   2.971938   1.792089
                   26         27         28         29         30
    26  O    0.000000
    27  H    0.970400   0.000000
    28  O    2.426831   2.971910   0.000000
    29  H    2.912761   3.576390   0.971374   0.000000
    30  H    1.253593   1.849990   1.187058   1.758081   0.000000
 Symmetry turned off by external request.
 Stoichiometry    C6H16O8
 Framework group  C1[X(C6H16O8)]
 Deg. of freedom    84
 Full point group                 C1      NOp   1
 Rotational constants (GHZ):      0.7982738      0.5476057      0.4753511
 Standard basis: 6-31G(d) (6D, 7F)
   242 basis functions,   456 primitive gaussians,   242 cartesian basis functions
    58 alpha electrons       58 beta electrons
       nuclear repulsion energy      1153.3287867251 Hartrees.
 NAtoms=   30 NActive=   30 NUniq=   30 SFac= 1.00D+00 NAtFMM=   60 NAOKFM=F Big=F
 Integral buffers will be    131072 words long.
 Raffenetti 2 integral format.
 Two-electron integral symmetry is turned off.
 One-electron integrals computed using PRISM.
 NBasis=   242 RedAO= T EigKep=  1.75D-03  NBF=   242
 NBsUse=   242 1.00D-06 EigRej= -1.00D+00 NBFU=   242
 Initial guess from the checkpoint file:  "/scratch/10447804.yak.local/Gau-20434.chk"
 B after Tr=     0.000086   -0.000036    0.000153
         Rot=    1.000000    0.000005    0.000074    0.000012 Ang=   0.01 deg.
 ExpMin= 1.61D-01 ExpMax= 5.48D+03 ExpMxC= 8.25D+02 IAcc=1 IRadAn=         1 AccDes= 0.00D+00
 Harris functional with IExCor=  402 and IRadAn=       1 diagonalized for initial guess.
 HarFok:  IExCor=  402 AccDes= 0.00D+00 IRadAn=         1 IDoV= 1 UseB2=F ITyADJ=14
 ICtDFT=  3500011 ScaDFX=  1.000000  1.000000  1.000000  1.000000
 FoFCou: FMM=F IPFlag=           0 FMFlag=      100000 FMFlg1=           0
         NFxFlg=           0 DoJE=T BraDBF=F KetDBF=T FulRan=T
         wScrn=  0.000000 ICntrl=     500 IOpCl=  0 I1Cent=   200000004 NGrid=           0
         NMat0=    1 NMatS0=      1 NMatT0=    0 NMatD0=    1 NMtDS0=    0 NMtDT0=    0
 Symmetry not used in FoFCou.
 Requested convergence on RMS density matrix=1.00D-08 within 128 cycles.
 Requested convergence on MAX density matrix=1.00D-06.
 Requested convergence on             energy=1.00D-06.
 No special actions if energy rises.
 Integral accuracy reduced to 1.0D-05 until final iterations.
 Initial convergence to 1.0D-05 achieved.  Increase integral accuracy.
 SCF Done:  E(RB3LYP) =  -839.971273543     A.U. after   11 cycles
            NFock= 11  Conv=0.88D-08     -V/T= 2.0087
 DoSCS=F DFT=T ScalE2(SS,OS)=  1.000000  1.000000
 Range of M.O.s used for correlation:     1   242
 NBasis=   242 NAE=    58 NBE=    58 NFC=     0 NFV=     0
 NROrb=    242 NOA=    58 NOB=    58 NVA=   184 NVB=   184
 Symmetrizing basis deriv contribution to polar:
 IMax=3 JMax=2 DiffMx= 0.00D+00
 Calling FoFJK, ICntrl=      2147 FMM=F ISym2X=0 I1Cent= 0 IOpClX= 0 NMat=1 NMatS=1 NMatT=0.
 -------------------------------------------------------------------
 Center     Atomic                   Forces (Hartrees/Bohr)
 Number     Number              X              Y              Z
 -------------------------------------------------------------------
      1        6          -0.001450990    0.002799639   -0.006214298
      2        8          -0.003405116   -0.002113535    0.004379855
      3        6           0.000300291    0.000102419    0.000629006
      4        6          -0.000131746   -0.000050036   -0.000170005
      5        6          -0.000334846    0.000584168    0.000139129
      6        6           0.000036758   -0.001907878    0.001054917
      7        1           0.000002278   -0.000006687    0.000050581
      8        1          -0.000140016   -0.000014285    0.000043824
      9        1           0.000108554   -0.000190831    0.000059144
     10        1           0.000009459   -0.000010999    0.000049366
     11        8           0.000247761    0.000054158    0.000422626
     12        8          -0.000026858    0.000031305    0.000199250
     13        8          -0.000158140   -0.000027657    0.000077367
     14        1          -0.000069258    0.000175872    0.000108111
     15        1           0.000027094    0.000019682   -0.000020014
     16        1           0.000137320    0.000049275   -0.000063642
     17        6          -0.000264549   -0.000208864   -0.000177687
     18        8           0.000097790    0.000244138    0.000113785
     19        1          -0.000033955   -0.000019327   -0.000020429
     20        1           0.000023062    0.000046147   -0.000012141
     21        1          -0.000056146    0.000009206   -0.000045245
     22        8           0.005548949    0.000635142    0.000439764
     23        1          -0.004646423   -0.000411243    0.000570359
     24        1          -0.000119678    0.000018663    0.000090268
     25        1           0.003028950    0.000327954   -0.001427202
     26        8          -0.002993627    0.000730447   -0.004680810
     27        1          -0.000044044    0.000094155   -0.000708517
     28        8           0.002847602    0.000225921   -0.000828254
     29        1          -0.000327352   -0.000060470   -0.000079565
     30        1           0.001786873   -0.001126478    0.006020456
 -------------------------------------------------------------------
 Cartesian Forces:  Max     0.006214298 RMS     0.001621680
 IRC-IRC-IRC-IRC-IRC-IRC-IRC-IRC-IRC-IRC-IRC-IRC-IRC-IRC-IRC-IRC-IRC-IRC
 Pt  2 Step number   1 out of a maximum of 500
 Modified Bulirsch-Stoer Extrapolation Cycles:
    EPS =    0.000010000000000
 Maximum DWI energy   std dev =  0.000010592 at pt    64
 Maximum DWI gradient std dev =  0.114301780 at pt    55
 CORRECTOR INTEGRATION CONVERGENCE:
   Recorrection delta-x convergence threshold:    0.010000
   Delta-x Convergence NOT Met
 IRC-IRC-IRC-IRC-IRC-IRC-IRC-IRC-IRC-IRC-IRC-IRC-IRC-IRC-IRC-IRC-IRC-IRC
                          Input orientation:                          
 ---------------------------------------------------------------------
 Center     Atomic      Atomic             Coordinates (Angstroms)
 Number     Number       Type             X           Y           Z
 ---------------------------------------------------------------------
      1          6           0        0.507161   -1.234052    0.280510
      2          8           0        0.488451   -0.340936   -1.000163
      3          6           0       -0.962864   -1.538509    0.611889
      4          6           0       -1.739248   -0.219481    0.796280
      5          6           0       -1.712932    0.625367   -0.496852
      6          6           0       -0.274243    0.911818   -0.959048
      7          1           0       -0.964711   -2.090238    1.562393
      8          1           0       -2.178126    1.591381   -0.287697
      9          1           0       -0.354769    1.196342   -2.012701
     10          1           0       -2.785138   -0.451660    1.023435
     11          8           0       -1.618335   -2.297596   -0.406392
     12          8           0       -1.193306    0.509718    1.899138
     13          8           0       -2.480292    0.029330   -1.528495
     14          1           0       -0.254895    0.214178    1.992746
     15          1           0       -1.056149   -3.054260   -0.636500
     16          1           0       -2.225138   -0.911162   -1.555698
     17          6           0        0.478745    2.022752   -0.155244
     18          8           0       -0.377066    2.888814    0.560575
     19          1           0        1.030103    2.659644   -0.858056
     20          1           0        1.207576    1.543888    0.506981
     21          1           0       -0.773314    2.335314    1.265087
     22          8           0        1.143756   -0.688934    1.313048
     23          1           0        2.467250   -0.570850    1.102932
     24          1           0        1.006381   -2.116811   -0.167362
     25          1           0        1.745314   -0.160596   -1.391014
     26          8           0        3.521023   -0.420967    0.732292
     27          1           0        4.022615   -1.235284    0.896180
     28          8           0        2.838900   -0.075997   -1.571410
     29          1           0        3.043663    0.830165   -1.854598
     30          1           0        3.295699   -0.248170   -0.486488
 ---------------------------------------------------------------------
                    Distance matrix (angstroms):
                    1          2          3          4          5
     1  C    0.000000
     2  O    1.561451   0.000000
     3  C    1.537361   2.477743   0.000000
     4  C    2.518279   2.864368   1.541625   0.000000
     5  C    2.998423   2.456247   2.544458   1.544879   0.000000
     6  C    2.598433   1.467237   2.991011   2.550933   1.538020
     7  H    2.131357   3.426139   1.099029   2.164848   3.489245
     8  H    3.939124   3.369286   3.475964   2.155653   1.092399
     9  H    3.450878   2.024717   3.838967   3.436818   2.113864
    10  H    3.464579   3.850143   2.161318   1.095167   2.149624
    11  O    2.474003   2.935921   1.429248   2.404080   2.925892
    12  O    2.924428   3.458015   2.430092   1.430412   2.454415
    13  O    3.713961   3.038037   3.056460   2.452678   1.417176
    14  H    2.368513   3.133404   2.340918   1.955223   2.914283
    15  H    2.568658   3.143274   1.965878   3.248916   3.740390
    16  H    3.307775   2.827958   2.585601   2.499262   1.935053
    17  C    3.285949   2.510180   3.917820   3.294314   2.621608
    18  O    4.225911   3.690028   4.466205   3.401852   2.832999
    19  H    4.090314   3.052386   4.874130   4.323829   3.434092
    20  H    2.873817   2.518171   3.771338   3.446294   3.221914
    21  H    3.917828   3.726355   3.933078   2.771243   2.628921
    22  O    1.329866   2.429295   2.377236   2.966336   3.628193
    23  H    2.226693   2.896810   3.597661   4.232272   4.632943
    24  H    1.108636   2.028680   2.195357   3.473751   3.875921
    25  H    2.340796   1.328530   3.639298   4.114596   3.657421
    26  O    3.154137   3.493465   4.622622   5.264518   5.477216
    27  H    3.568958   4.109292   5.002775   5.851572   6.188622
    28  O    3.194950   2.433336   4.621595   5.156160   4.729245
    29  H    3.905576   2.937796   5.267489   5.568228   4.950820
    30  H    3.055518   2.855364   4.583313   5.195865   5.084245
                    6          7          8          9         10
     6  C    0.000000
     7  H    3.980798   0.000000
     8  H    2.130091   4.295291   0.000000
     9  H    1.094360   4.894378   2.540930   0.000000
    10  H    3.477630   2.507862   2.502308   4.223829   0.000000
    11  O    3.523117   2.084786   3.930852   4.047769   2.610233
    12  O    3.029124   2.631620   2.630990   4.059197   2.055488
    13  O    2.443299   4.042665   2.017644   2.472695   2.614694
    14  H    3.033178   2.449362   3.285715   4.125316   2.790167
    15  H    4.055268   2.402671   4.791918   4.522553   3.538124
    16  H    2.735917   3.563900   2.805843   2.854594   2.678930
    17  C    1.564374   4.685139   2.694919   2.197236   4.262034
    18  O    2.495664   5.112722   2.376282   3.080051   4.143889
    19  H    2.183211   5.692032   3.429173   2.322139   5.270321
    20  H    2.178197   4.363439   3.478038   2.985048   4.493407
    21  H    2.687413   4.439654   2.222177   3.495187   3.445730
    22  O    3.120184   2.543906   4.335564   4.106148   3.946693
    23  H    3.737091   3.781269   5.309294   4.560036   5.254342
    24  H    3.382212   2.622587   4.889402   4.029267   4.308868
    25  H    2.327075   4.448636   4.436228   2.576456   5.141914
    26  O    4.363598   4.857709   6.129455   5.017215   6.312953
    27  H    5.149262   5.103744   6.916703   5.791017   6.853887
    28  O    3.323014   5.324034   5.440461   3.465992   6.205171
    29  H    3.437612   6.022594   5.504699   3.421757   6.625789
    30  H    3.783301   5.073678   5.778081   4.212108   6.268800
                   11         12         13         14         15
    11  O    0.000000
    12  O    3.657476   0.000000
    13  O    2.723356   3.692664   0.000000
    14  H    3.731466   0.988293   4.169616   0.000000
    15  H    0.970332   4.376096   3.511747   4.270554   0.000000
    16  H    1.900346   3.875495   0.974868   4.211852   2.608512
    17  C    4.808974   3.050494   3.823016   2.902246   5.325745
    18  O    5.419836   2.849227   4.118789   3.036399   6.100351
    19  H    5.638480   4.143410   4.437444   3.969710   6.086891
    20  H    4.855618   2.961730   4.476318   2.472742   5.251188
    21  H    4.997175   1.977679   4.004427   2.301622   5.722197
[...]
 Alpha  occ. eigenvalues --  -19.15606 -19.13003 -19.12912 -10.31487 -10.26449
 Alpha  occ. eigenvalues --  -10.24831 -10.24393 -10.23189 -10.22982  -1.08517
 Alpha  occ. eigenvalues --   -1.05556  -1.03624  -1.02919  -1.02714  -1.00692
 Alpha  occ. eigenvalues --   -1.00475  -0.99348  -0.78035  -0.76957  -0.69327
 Alpha  occ. eigenvalues --   -0.66260  -0.63950  -0.58178  -0.57041  -0.55926
 Alpha  occ. eigenvalues --   -0.55663  -0.54137  -0.52524  -0.51124  -0.48831
 Alpha  occ. eigenvalues --   -0.48375  -0.46600  -0.45553  -0.44746  -0.43345
 Alpha  occ. eigenvalues --   -0.42219  -0.42183  -0.40828  -0.39019  -0.38483
 Alpha  occ. eigenvalues --   -0.37801  -0.36631  -0.35519  -0.33625  -0.32587
 Alpha  occ. eigenvalues --   -0.32022  -0.31107  -0.30538  -0.30295  -0.29259
 Alpha  occ. eigenvalues --   -0.28475  -0.25809  -0.24514
 Alpha virt. eigenvalues --    0.03673   0.04286   0.06438   0.07956   0.08562
 Alpha virt. eigenvalues --    0.11609   0.12011   0.12510   0.14023   0.15598
 Alpha virt. eigenvalues --    0.15962   0.16915   0.18133   0.18559   0.19749
 Alpha virt. eigenvalues --    0.20576   0.22768   0.23175   0.23753   0.24224
 Alpha virt. eigenvalues --    0.25746   0.26998   0.27939   0.29069   0.30726
 Alpha virt. eigenvalues --    0.31913   0.33159   0.33603   0.49715   0.51886
 Alpha virt. eigenvalues --    0.54007   0.55205   0.56312   0.57220   0.57991
 Alpha virt. eigenvalues --    0.59123   0.60129   0.61597   0.62785   0.64439
 Alpha virt. eigenvalues --    0.66649   0.68082   0.70252   0.72470   0.73042
 Alpha virt. eigenvalues --    0.74126   0.75598   0.78043   0.78874   0.79803
 Alpha virt. eigenvalues --    0.80478   0.82592   0.82977   0.84158   0.85294
 Alpha virt. eigenvalues --    0.85786   0.87525   0.87914   0.89246   0.90501
 Alpha virt. eigenvalues --    0.91085   0.91342   0.92591   0.94879   0.96669
 Alpha virt. eigenvalues --    0.97094   0.98176   1.00533   1.03321   1.04833
 Alpha virt. eigenvalues --    1.07540   1.07818   1.08672   1.09892   1.10674
 Alpha virt. eigenvalues --    1.12341   1.14357   1.15727   1.16239   1.19939
 Alpha virt. eigenvalues --    1.21199   1.21562   1.23464   1.26040   1.28986
 Alpha virt. eigenvalues --    1.30366   1.32466   1.33440   1.36077   1.38427
 Alpha virt. eigenvalues --    1.39532   1.43688   1.45977   1.47852   1.51553
 Alpha virt. eigenvalues --    1.52976   1.55322   1.57286   1.57568   1.59311
 Alpha virt. eigenvalues --    1.60822   1.61736   1.65318   1.68143   1.68857
 Alpha virt. eigenvalues --    1.69759   1.70987   1.71389   1.72373   1.72593
 Alpha virt. eigenvalues --    1.74581   1.74941   1.76647   1.77166   1.80469
 Alpha virt. eigenvalues --    1.80969   1.81295   1.81616   1.84267   1.84607
 Alpha virt. eigenvalues --    1.87361   1.88610   1.92321   1.93319   1.94455
 Alpha virt. eigenvalues --    1.97262   1.97770   2.01388   2.03720   2.06911
 Alpha virt. eigenvalues --    2.07446   2.12317   2.12553   2.15296   2.15701
 Alpha virt. eigenvalues --    2.16973   2.21879   2.23838   2.24616   2.31527
 Alpha virt. eigenvalues --    2.33509   2.35512   2.37392   2.38329   2.40509
 Alpha virt. eigenvalues --    2.42441   2.43886   2.45327   2.47948   2.51893
 Alpha virt. eigenvalues --    2.53637   2.56300   2.58194   2.60227   2.62707
 Alpha virt. eigenvalues --    2.66229   2.67253   2.70214   2.71749   2.74139
 Alpha virt. eigenvalues --    2.77500   2.81529   2.85462   2.89328   2.91097
 Alpha virt. eigenvalues --    2.93167   2.93702   2.99645   3.05171   3.11593
 Alpha virt. eigenvalues --    3.75349   3.79055   3.84690   3.86392   3.95330
 Alpha virt. eigenvalues --    4.00749   4.11555   4.14415   4.28045   4.33563
 Alpha virt. eigenvalues --    4.46829   4.60853   4.75929   4.83237
          Condensed to atoms (all electrons):
               1          2          3          4          5          6
     1  C    4.802193   0.151900   0.303390  -0.010190  -0.030490  -0.010775
     2  O    0.151900   8.493033  -0.029231  -0.015204  -0.026903   0.152095
     3  C    0.303390  -0.029231   4.996260   0.329270  -0.017037  -0.027789
     4  C   -0.010190  -0.015204   0.329270   4.907084   0.296894  -0.017511
     5  C   -0.030490  -0.026903  -0.017037   0.296894   4.942564   0.307892
     6  C   -0.010775   0.152095  -0.027789  -0.017511   0.307892   5.148727
     7  H   -0.063399   0.003308   0.371463  -0.047508   0.006071  -0.000100
     8  H    0.000236   0.002931   0.005367  -0.040049   0.370337  -0.058019
     9  H    0.002744  -0.037435   0.000293   0.005232  -0.038322   0.362846
    10  H    0.006075  -0.000064  -0.048124   0.378828  -0.059116   0.006869
    11  O   -0.033216   0.001120   0.192211  -0.040167   0.005899  -0.000835
    12  O    0.005194  -0.000487  -0.027331   0.220838  -0.048002   0.001371
    13  O   -0.000156   0.000597  -0.000312  -0.031007   0.245612  -0.045303
    14  H   -0.008494   0.000491  -0.012742  -0.022881   0.001270   0.000363
    15  H   -0.004030   0.000140  -0.022473   0.005397  -0.000066  -0.000066
    16  H   -0.000125   0.003814  -0.001093  -0.012221  -0.028545  -0.004847
    17  C   -0.002896  -0.026279   0.000074  -0.003127  -0.033974   0.246216
    18  O   -0.000030   0.001090   0.000009  -0.001432  -0.002632  -0.052227
    19  H    0.000081   0.003190  -0.000048  -0.000117   0.002961  -0.036173
    20  H    0.001450  -0.004095  -0.000291   0.000205  -0.001285  -0.054593
    21  H    0.000245   0.000035   0.000347  -0.005368   0.003071  -0.002124
    22  O    0.218321  -0.052532  -0.044178   0.000497  -0.000349   0.003882
    23  H   -0.011475   0.004449   0.002943  -0.000168  -0.000024  -0.000407
    24  H    0.374962  -0.052520  -0.055534   0.004330  -0.000010   0.004311
    25  H   -0.006822   0.082467   0.001091   0.000019   0.001040  -0.006914
    26  O    0.008139  -0.001080   0.000077  -0.000004   0.000000   0.000024
    27  H    0.000122   0.000009   0.000018   0.000000   0.000000  -0.000004
    28  O    0.007170  -0.072877  -0.000019  -0.000012  -0.000004   0.004743
    29  H   -0.000176   0.003390  -0.000002   0.000001   0.000029  -0.000547
    30  H    0.000059   0.002124   0.000079   0.000001  -0.000002  -0.000244
               7          8          9         10         11         12
     1  C   -0.063399   0.000236   0.002744   0.006075  -0.033216   0.005194
     2  O    0.003308   0.002931  -0.037435  -0.000064   0.001120  -0.000487
     3  C    0.371463   0.005367   0.000293  -0.048124   0.192211  -0.027331
     4  C   -0.047508  -0.040049   0.005232   0.378828  -0.040167   0.220838
     5  C    0.006071   0.370337  -0.038322  -0.059116   0.005899  -0.048002
     6  C   -0.000100  -0.058019   0.362846   0.006869  -0.000835   0.001371
     7  H    0.608201  -0.000101   0.000027  -0.008199  -0.032545   0.002315
     8  H   -0.000101   0.572805   0.000751  -0.006943  -0.000100   0.000370
     9  H    0.000027   0.000751   0.576163  -0.000203   0.000040  -0.000083
    10  H   -0.008199  -0.006943  -0.000203   0.590529   0.002556  -0.035211
    11  O   -0.032545  -0.000100   0.000040   0.002556   8.282136   0.001210
    12  O    0.002315   0.000370  -0.000083  -0.035211   0.001210   8.317682
    13  O   -0.000266  -0.035573   0.004345   0.007253  -0.018049   0.001428
    14  H    0.001660  -0.000288   0.000032   0.003311   0.000150   0.218393
    15  H   -0.002452   0.000021  -0.000015  -0.000332   0.230803  -0.000089
    16  H    0.000607   0.005778  -0.000211  -0.000806   0.042519   0.000013
    17  C    0.000018  -0.003303  -0.036428  -0.000027   0.000016   0.009017
    18  O    0.000002   0.019171   0.003408  -0.000076   0.000000  -0.016638
    19  H   -0.000001  -0.000233  -0.009221   0.000008   0.000000   0.000170
    20  H   -0.000003   0.000932   0.004469  -0.000003  -0.000001   0.000323
    21  H   -0.000025  -0.000289  -0.000401   0.000352  -0.000007   0.048839
    22  O    0.006441  -0.000007  -0.000150  -0.000196   0.001473  -0.023097
    23  H   -0.000080  -0.000001   0.000004   0.000009  -0.000017   0.000247
    24  H   -0.001844   0.000017  -0.000230  -0.000170  -0.001441  -0.000192
    25  H   -0.000044  -0.000037  -0.001704   0.000004  -0.000029  -0.000004
    26  O    0.000003   0.000000   0.000001  -0.000000   0.000000  -0.000002
    27  H   -0.000001   0.000000  -0.000000   0.000000  -0.000000   0.000000
    28  O    0.000002   0.000002   0.000339  -0.000000   0.000000   0.000000
    29  H   -0.000000  -0.000000   0.000084   0.000000   0.000000  -0.000000
    30  H   -0.000002  -0.000000  -0.000006   0.000000  -0.000000   0.000001
              13         14         15         16         17         18
     1  C   -0.000156  -0.008494  -0.004030  -0.000125  -0.002896  -0.000030
     2  O    0.000597   0.000491   0.000140   0.003814  -0.026279   0.001090
     3  C   -0.000312  -0.012742  -0.022473  -0.001093   0.000074   0.000009
     4  C   -0.031007  -0.022881   0.005397  -0.012221  -0.003127  -0.001432
     5  C    0.245612   0.001270  -0.000066  -0.028545  -0.033974  -0.002632
     6  C   -0.045303   0.000363  -0.000066  -0.004847   0.246216  -0.052227
     7  H   -0.000266   0.001660  -0.002452   0.000607   0.000018   0.000002
     8  H   -0.035573  -0.000288   0.000021   0.005778  -0.003303   0.019171
     9  H    0.004345   0.000032  -0.000015  -0.000211  -0.036428   0.003408
    10  H    0.007253   0.003311  -0.000332  -0.000806  -0.000027  -0.000076
    11  O   -0.018049   0.000150   0.230803   0.042519   0.000016   0.000000
    12  O    0.001428   0.218393  -0.000089   0.000013   0.009017  -0.016638
    13  O    8.289437  -0.000090   0.000767   0.230549   0.003568   0.000145
    14  H   -0.000090   0.319468   0.000004   0.000011   0.000232   0.001487
    15  H    0.000767   0.000004   0.379502  -0.001003   0.000000  -0.000000
    16  H    0.230549   0.000011  -0.001003   0.345754   0.000063  -0.000006
    17  C    0.003568   0.000232   0.000000   0.000063   4.971897   0.264457
    18  O    0.000145   0.001487  -0.000000  -0.000006   0.264457   8.263137
    19  H   -0.000054   0.000057  -0.000000  -0.000002   0.363367  -0.038845
    20  H   -0.000029   0.000385   0.000001   0.000004   0.357553  -0.029584
    21  H    0.000015  -0.001971   0.000001  -0.000000  -0.033616   0.221375
    22  O   -0.000000   0.054434   0.000025   0.000013  -0.007535  -0.000018
    23  H    0.000000   0.000047  -0.000014  -0.000000   0.000242   0.000002
    24  H    0.000020   0.001012   0.008007  -0.000040  -0.000195  -0.000000
    25  H   -0.000033  -0.000022  -0.000020  -0.000015  -0.000867  -0.000034
    26  O    0.000000   0.000070   0.000000  -0.000000  -0.000449   0.000000
    27  H   -0.000000  -0.000002  -0.000000   0.000000   0.000023  -0.000000
    28  O    0.000000  -0.000001   0.000001   0.000001   0.001665   0.000008
    29  H   -0.000000   0.000001  -0.000000  -0.000000   0.000566   0.000000
    30  H   -0.000000  -0.000017  -0.000001   0.000000   0.000162  -0.000001
              19         20         21         22         23         24
     1  C    0.000081   0.001450   0.000245   0.218321  -0.011475   0.374962
     2  O    0.003190  -0.004095   0.000035  -0.052532   0.004449  -0.052520
     3  C   -0.000048  -0.000291   0.000347  -0.044178   0.002943  -0.055534
     4  C   -0.000117   0.000205  -0.005368   0.000497  -0.000168   0.004330
     5  C    0.002961  -0.001285   0.003071  -0.000349  -0.000024  -0.000010
     6  C   -0.036173  -0.054593  -0.002124   0.003882  -0.000407   0.004311
     7  H   -0.000001  -0.000003  -0.000025   0.006441  -0.000080  -0.001844
     8  H   -0.000233   0.000932  -0.000289  -0.000007  -0.000001   0.000017
     9  H   -0.009221   0.004469  -0.000401  -0.000150   0.000004  -0.000230
    10  H    0.000008  -0.000003   0.000352  -0.000196   0.000009  -0.000170
    11  O    0.000000  -0.000001  -0.000007   0.001473  -0.000017  -0.001441
    12  O    0.000170   0.000323   0.048839  -0.023097   0.000247  -0.000192
    13  O   -0.000054  -0.000029   0.000015  -0.000000   0.000000   0.000020
    14  H    0.000057   0.000385  -0.001971   0.054434   0.000047   0.001012
    15  H   -0.000000   0.000001   0.000001   0.000025  -0.000014   0.008007
    16  H   -0.000002   0.000004  -0.000000   0.000013  -0.000000  -0.000040
    17  C    0.363367   0.357553  -0.033616  -0.007535   0.000242  -0.000195
    18  O   -0.038845  -0.029584   0.221375  -0.000018   0.000002  -0.000000
    19  H    0.615010  -0.040782   0.007095   0.000240  -0.000019   0.000014
    20  H   -0.040782   0.610047  -0.006722   0.013534   0.000859   0.000129
    21  H    0.007095  -0.006722   0.351870   0.000096  -0.000020   0.000004
    22  O    0.000240   0.013534   0.000096   8.445988   0.160910  -0.041547
    23  H   -0.000019   0.000859  -0.000020   0.160910   0.273023  -0.004076
    24  H    0.000014   0.000129   0.000004  -0.041547  -0.004076   0.641049
    25  H    0.000424   0.000324   0.000002   0.002506  -0.000476  -0.002475
    26  O    0.000001   0.001644   0.000001  -0.083404   0.122193   0.002494
    27  H    0.000000  -0.000041  -0.000000   0.003647  -0.006476   0.000044
    28  O    0.000107   0.001164   0.000000  -0.001412   0.003223   0.001011
    29  H    0.001261   0.000243   0.000001  -0.000000  -0.000020  -0.000031
    30  H   -0.000007   0.000351  -0.000000   0.007230  -0.011126  -0.000524
              25         26         27         28         29         30
     1  C   -0.006822   0.008139   0.000122   0.007170  -0.000176   0.000059
     2  O    0.082467  -0.001080   0.000009  -0.072877   0.003390   0.002124
     3  C    0.001091   0.000077   0.000018  -0.000019  -0.000002   0.000079
     4  C    0.000019  -0.000004   0.000000  -0.000012   0.000001   0.000001
     5  C    0.001040   0.000000   0.000000  -0.000004   0.000029  -0.000002
     6  C   -0.006914   0.000024  -0.000004   0.004743  -0.000547  -0.000244
     7  H   -0.000044   0.000003  -0.000001   0.000002  -0.000000  -0.000002
     8  H   -0.000037   0.000000   0.000000   0.000002  -0.000000  -0.000000
     9  H   -0.001704   0.000001  -0.000000   0.000339   0.000084  -0.000006
    10  H    0.000004  -0.000000   0.000000  -0.000000   0.000000   0.000000
    11  O   -0.000029   0.000000  -0.000000   0.000000   0.000000  -0.000000
    12  O   -0.000004  -0.000002   0.000000   0.000000  -0.000000   0.000001
    13  O   -0.000033   0.000000  -0.000000   0.000000  -0.000000  -0.000000
    14  H   -0.000022   0.000070  -0.000002  -0.000001   0.000001  -0.000017
    15  H   -0.000020   0.000000  -0.000000   0.000001  -0.000000  -0.000001
    16  H   -0.000015  -0.000000   0.000000   0.000001  -0.000000   0.000000
    17  C   -0.000867  -0.000449   0.000023   0.001665   0.000566   0.000162
    18  O   -0.000034   0.000000  -0.000000   0.000008   0.000000  -0.000001
    19  H    0.000424   0.000001   0.000000   0.000107   0.001261  -0.000007
    20  H    0.000324   0.001644  -0.000041   0.001164   0.000243   0.000351
    21  H    0.000002   0.000001  -0.000000   0.000000   0.000001  -0.000000
    22  O    0.002506  -0.083404   0.003647  -0.001412  -0.000000   0.007230
    23  H   -0.000476   0.122193  -0.006476   0.003223  -0.000020  -0.011126
    24  H   -0.002475   0.002494   0.000044   0.001011  -0.000031  -0.000524
    25  H    0.291984   0.006659  -0.000222   0.180003  -0.008920  -0.007759
    26  O    0.006659   8.445126   0.234700  -0.082606   0.003798   0.174726
    27  H   -0.000222   0.234700   0.370749   0.003386  -0.000115  -0.006217
    28  O    0.180003  -0.082606   0.003386   8.457042   0.239372   0.099822
    29  H   -0.008920   0.003798  -0.000115   0.239372   0.361779  -0.006660
    30  H   -0.007759   0.174726  -0.006217   0.099822  -0.006660   0.297038
 Mulliken charges:
               1
     1  C    0.299993
     2  O   -0.587476
     3  C    0.083312
     4  C    0.098370
     5  C    0.103120
     6  C    0.079141
     7  H    0.156452
     8  H    0.166226
     9  H    0.163632
    10  H    0.163676
    11  O   -0.633725
    12  O   -0.676277
    13  O   -0.652865
    14  H    0.443631
    15  H    0.405890
    16  H    0.419789
    17  C   -0.070441
    18  O   -0.632771
    19  H    0.131518
    20  H    0.143812
    21  H    0.417193
    22  O   -0.664813
    23  H    0.466250
    24  H    0.123424
    25  H    0.469879
    26  O   -0.832111
    27  H    0.400381
    28  O   -0.842132
    29  H    0.405947
    30  H    0.450974
 Sum of Mulliken charges =  -0.00000
 Mulliken charges with hydrogens summed into heavy atoms:
               1
     1  C    0.423418
     2  O   -0.587476
     3  C    0.239765
     4  C    0.262047
     5  C    0.269346
     6  C    0.242773
    11  O   -0.227835
    12  O   -0.232646
    13  O   -0.233075
    17  C    0.204888
    18  O   -0.215578
    22  O   -0.198563
    26  O    0.019244
    28  O    0.033694
 APT charges:
               1
     1  C   -0.258402
     2  O   -0.358096
     3  C   -0.355630
     4  C   -0.456648
     5  C   -0.369340
     6  C   -0.316887
     7  H    0.504896
     8  H    0.504620
     9  H    0.507228
    10  H    0.600563
    11  O   -0.819402
    12  O   -0.560335
    13  O   -0.578738
    14  H    0.397170
    15  H    0.705507
    16  H    0.457040
    17  C   -0.637824
    18  O   -0.521404
    19  H    0.527954
    20  H    0.242154
    21  H    0.393699
    22  O   -0.560299
    23  H    0.537053
    24  H    0.449104
    25  H    0.203026
    26  O   -1.234658
    27  H    0.882455
    28  O   -0.904058
    29  H    0.713695
    30  H    0.305557
 Sum of APT charges =  -0.00000
 APT charges with hydrogens summed into heavy atoms:
               1
     1  C    0.190703
     2  O   -0.358096
     3  C    0.149266
     4  C    0.143914
     5  C    0.135280
     6  C    0.190341
    11  O   -0.113895
    12  O   -0.163165
    13  O   -0.121698
    17  C    0.132285
    18  O   -0.127705
    22  O   -0.023247
    26  O   -0.046646
    28  O    0.012663
 Electronic spatial extent (au):  <R**2>=           2767.9058
 Charge=             -0.0000 electrons
 Dipole moment (field-independent basis, Debye):
    X=              3.5742    Y=             -4.3069    Z=             -0.6383  Tot=              5.6331
 Quadrupole moment (field-independent basis, Debye-Ang):
   XX=            -85.7822   YY=            -79.8416   ZZ=            -88.3070
   XY=              0.1029   XZ=             -4.3196   YZ=             -5.0933
 Traceless Quadrupole moment (field-independent basis, Debye-Ang):
   XX=             -1.1386   YY=              4.8020   ZZ=             -3.6634
   XY=              0.1029   XZ=             -4.3196   YZ=             -5.0933
 Octapole moment (field-independent basis, Debye-Ang**2):
  XXX=             51.2185  YYY=            -69.1931  ZZZ=             -3.4822  XYY=             18.4953
  XXY=            -11.1829  XXZ=             11.5039  XZZ=             10.8388  YZZ=              2.7923
  YYZ=            -12.6312  XYZ=            -16.9843
 Hexadecapole moment (field-independent basis, Debye-Ang**3):
 XXXX=          -1537.5572 YYYY=          -1002.6305 ZZZZ=           -646.0000 XXXY=            -80.0939
 XXXZ=            -33.6299 YYYX=              5.0601 YYYZ=              4.1009 ZZZX=              7.9735
 ZZZY=              0.0098 XXYY=           -382.6644 XXZZ=           -404.1272 YYZZ=           -245.1880
 XXYZ=            -45.6820 YYXZ=              3.2704 ZZXY=             29.4866
 N-N= 1.153852379651D+03 E-N=-4.279654607113D+03  KE= 8.329811093378D+02
  Exact polarizability:   0.000   0.000   0.000   0.000   0.000   0.000
 Approx polarizability: 129.745  -3.174 131.118   3.048  -0.099 127.967

 This type of calculation cannot be archived.


 You can't act like a skunk without someone's getting wind of it.
 -- Lorene Workman
 Job cpu time:       0 days  2 hours  8 minutes 51.3 seconds.
 File lengths (MBytes):  RWF=    220 Int=      0 D2E=      0 Chk=      9 Scr=      1
 Normal termination of Gaussian 09 at Sun Jan  8 16:21:43 2017.
