 Entering Gaussian System, Link 0=g09
 Initial command:
 /global/software/gaussian/g09.d01/l1.exe "/home/iawad/Gau-13757.inp" -scrdir="/home/iawad/"
 Entering Link 1 = /global/software/gaussian/g09.d01/l1.exe PID=     13758.
  
 Copyright (c) 1988,1990,1992,1993,1995,1998,2003,2009,2013,
            Gaussian, Inc.  All Rights Reserved.
  
 This is part of the Gaussian(R) 09 program.  It is based on
 the Gaussian(R) 03 system (copyright 2003, Gaussian, Inc.),
 the Gaussian(R) 98 system (copyright 1998, Gaussian, Inc.),
 the Gaussian(R) 94 system (copyright 1995, Gaussian, Inc.),
 the Gaussian 92(TM) system (copyright 1992, Gaussian, Inc.),
 the Gaussian 90(TM) system (copyright 1990, Gaussian, Inc.),
 the Gaussian 88(TM) system (copyright 1988, Gaussian, Inc.),
 the Gaussian 86(TM) system (copyright 1986, Carnegie Mellon
 University), and the Gaussian 82(TM) system (copyright 1983,
 Carnegie Mellon University). Gaussian is a federally registered
 trademark of Gaussian, Inc.
  
 This software contains proprietary and confidential information,
 including trade secrets, belonging to Gaussian, Inc.
  
 This software is provided under written license and may be
 used, copied, transmitted, or stored only in accord with that
 written license.
  
 The following legend is applicable only to US Government
 contracts under FAR:
  
                    RESTRICTED RIGHTS LEGEND
  
 Use, reproduction and disclosure by the US Government is
 subject to restrictions as set forth in subparagraphs (a)
 and (c) of the Commercial Computer Software - Restricted
 Rights clause in FAR 52.227-19.
  
 Gaussian, Inc.
 340 Quinnipiac St., Bldg. 40, Wallingford CT 06492
  
  
 ---------------------------------------------------------------
 Warning -- This program may not be used in any manner that
 competes with the business of Gaussian, Inc. or will provide
 assistance to any competitor of Gaussian, Inc.  The licensee
 of this program is prohibited from giving any competitor of
 Gaussian, Inc. access to this program.  By using this program,
 the user acknowledges that Gaussian, Inc. is engaged in the
 business of creating and licensing software in the field of
 computational chemistry and represents and warrants to the
 licensee that it is not a competitor of Gaussian, Inc. and that
 it will not use this program in any manner prohibited above.
 ---------------------------------------------------------------
  

 Cite this work as:
 Gaussian 09, Revision D.01,
 M. J. Frisch, G. W. Trucks, H. B. Schlegel, G. E. Scuseria, 
 M. A. Robb, J. R. Cheeseman, G. Scalmani, V. Barone, B. Mennucci, 
 G. A. Petersson, H. Nakatsuji, M. Caricato, X. Li, H. P. Hratchian, 
 A. F. Izmaylov, J. Bloino, G. Zheng, J. L. Sonnenberg, M. Hada, 
 M. Ehara, K. Toyota, R. Fukuda, J. Hasegawa, M. Ishida, T. Nakajima, 
 Y. Honda, O. Kitao, H. Nakai, T. Vreven, J. A. Montgomery, Jr., 
 J. E. Peralta, F. Ogliaro, M. Bearpark, J. J. Heyd, E. Brothers, 
 K. N. Kudin, V. N. Staroverov, T. Keith, R. Kobayashi, J. Normand, 
 K. Raghavachari, A. Rendell, J. C. Burant, S. S. Iyengar, J. Tomasi, 
 M. Cossi, N. Rega, J. M. Millam, M. Klene, J. E. Knox, J. B. Cross, 
 V. Bakken, C. Adamo, J. Jaramillo, R. Gomperts, R. E. Stratmann, 
 O. Yazyev, A. J. Austin, R. Cammi, C. Pomelli, J. W. Ochterski, 
 R. L. Martin, K. Morokuma, V. G. Zakrzewski, G. A. Voth, 
 P. Salvador, J. J. Dannenberg, S. Dapprich, A. D. Daniels, 
 O. Farkas, J. B. Foresman, J. V. Ortiz, J. Cioslowski, 
 and D. J. Fox, Gaussian, Inc., Wallingford CT, 2013.
 
 ******************************************
 Gaussian 09:  ES64L-G09RevD.01 24-Apr-2013
                 9-Mar-2017 
 ******************************************
 ----------------------
 # OPT B3LYP 6-31G FREQ
 ----------------------
 1/14=-1,18=20,19=15,26=3,38=1/1,3;
 2/9=110,12=2,17=6,18=5,40=1/2;
 3/5=1,6=6,11=2,16=1,25=1,30=1,71=1,74=-5/1,2,3;
 4//1;
 5/5=2,38=5/2;
 6/7=2,8=2,9=2,10=2,28=1/1;
 7//1,2,3,16;
 1/14=-1,18=20,19=15,26=3/3(2);
 2/9=110/2;
 99//99;
 2/9=110/2;
 3/5=1,6=6,11=2,16=1,25=1,30=1,71=1,74=-5/1,2,3;
 4/5=5,16=3,69=1/1;
 5/5=2,38=5/2;
 7//1,2,3,16;
 1/14=-1,18=20,19=15,26=3/3(-5);
 2/9=110/2;
 6/7=2,8=2,9=2,10=2,19=2,28=1/1;
 99/9=1/99;
 -------
 BH3.LOG
 -------
 Symbolic Z-matrix:
 Charge =  0 Multiplicity = 1
 B                     0.        0.        0. 
 H                     0.        1.19232   0. 
 H                     1.03258  -0.59616   0. 
 H                    -1.03258  -0.59616   0. 
 

 GradGradGradGradGradGradGradGradGradGradGradGradGradGradGradGradGradGrad
 Berny optimization.
 Initialization pass.
                           ----------------------------
                           !    Initial Parameters    !
                           ! (Angstroms and Degrees)  !
 --------------------------                            --------------------------
 ! Name  Definition              Value          Derivative Info.                !
 --------------------------------------------------------------------------------
 ! R1    R(1,2)                  1.1923         estimate D2E/DX2                !
 ! R2    R(1,3)                  1.1923         estimate D2E/DX2                !
 ! R3    R(1,4)                  1.1923         estimate D2E/DX2                !
 ! A1    A(2,1,3)              120.0            estimate D2E/DX2                !
 ! A2    A(2,1,4)              120.0            estimate D2E/DX2                !
 ! A3    A(3,1,4)              120.0            estimate D2E/DX2                !
 ! D1    D(2,1,4,3)            180.0            estimate D2E/DX2                !
 --------------------------------------------------------------------------------
 Trust Radius=3.00D-01 FncErr=1.00D-07 GrdErr=1.00D-06
 Number of steps in this run=     20 maximum allowed number of steps=    100.
 GradGradGradGradGradGradGradGradGradGradGradGradGradGradGradGradGradGrad

                          Input orientation:                          
 ---------------------------------------------------------------------
 Center     Atomic      Atomic             Coordinates (Angstroms)
 Number     Number       Type             X           Y           Z
 ---------------------------------------------------------------------
      1          5           0        0.000000    0.000000    0.000000
      2          1           0        0.000000    1.192320    0.000000
      3          1           0        1.032580   -0.596160    0.000000
      4          1           0       -1.032580   -0.596160    0.000000
 ---------------------------------------------------------------------
                    Distance matrix (angstroms):
                    1          2          3          4
     1  B    0.000000
     2  H    1.192320   0.000000
     3  H    1.192321   2.065159   0.000000
     4  H    1.192321   2.065159   2.065160   0.000000
 Stoichiometry    BH3
 Framework group  D3H[O(B),3C2(H)]
 Deg. of freedom     1
 Full point group                 D3H     NOp  12
 Largest Abelian subgroup         C2V     NOp   4
 Largest concise Abelian subgroup C2      NOp   2
                         Standard orientation:                         
 ---------------------------------------------------------------------
 Center     Atomic      Atomic             Coordinates (Angstroms)
 Number     Number       Type             X           Y           Z
 ---------------------------------------------------------------------
      1          5           0        0.000000    0.000000    0.000000
      2          1           0        0.000000    1.192320    0.000000
      3          1           0        1.032579   -0.596160    0.000000
      4          1           0       -1.032579   -0.596160    0.000000
 ---------------------------------------------------------------------
 Rotational constants (GHZ):    235.1554974    235.1554974    117.5777487
 Standard basis: 6-31G (6D, 7F)
 There are     9 symmetry adapted cartesian basis functions of A1  symmetry.
 There are     0 symmetry adapted cartesian basis functions of A2  symmetry.
 There are     4 symmetry adapted cartesian basis functions of B1  symmetry.
 There are     2 symmetry adapted cartesian basis functions of B2  symmetry.
 There are     9 symmetry adapted basis functions of A1  symmetry.
 There are     0 symmetry adapted basis functions of A2  symmetry.
 There are     4 symmetry adapted basis functions of B1  symmetry.
 There are     2 symmetry adapted basis functions of B2  symmetry.
    15 basis functions,    34 primitive gaussians,    15 cartesian basis functions
     4 alpha electrons        4 beta electrons
       nuclear repulsion energy         7.4260432940 Hartrees.
 NAtoms=    4 NActive=    4 NUniq=    2 SFac= 4.00D+00 NAtFMM=   60 NAOKFM=F Big=F
 Integral buffers will be    131072 words long.
 Raffenetti 2 integral format.
 Two-electron integral symmetry is turned on.
 One-electron integrals computed using PRISM.
 NBasis=    15 RedAO= T EigKep=  4.50D-02  NBF=     9     0     4     2
 NBsUse=    15 1.00D-06 EigRej= -1.00D+00 NBFU=     9     0     4     2
 ExpMin= 1.27D-01 ExpMax= 2.07D+03 ExpMxC= 3.11D+02 IAcc=1 IRadAn=         1 AccDes= 0.00D+00
 Harris functional with IExCor=  402 and IRadAn=       1 diagonalized for initial guess.
 HarFok:  IExCor=  402 AccDes= 0.00D+00 IRadAn=         1 IDoV= 1 UseB2=F ITyADJ=14
 ICtDFT=  3500011 ScaDFX=  1.000000  1.000000  1.000000  1.000000
 FoFCou: FMM=F IPFlag=           0 FMFlag=      100000 FMFlg1=           0
         NFxFlg=           0 DoJE=T BraDBF=F KetDBF=T FulRan=T
         wScrn=  0.000000 ICntrl=     500 IOpCl=  0 I1Cent=   200000004 NGrid=           0
         NMat0=    1 NMatS0=      1 NMatT0=    0 NMatD0=    1 NMtDS0=    0 NMtDT0=    0
 Petite list used in FoFCou.
 Initial guess orbital symmetries:
       Occupied  (A1') (A1') (E') (E')
       Virtual   (A2") (A1') (E') (E') (E') (E') (A2") (A1') (A1')
                 (E') (E')
 The electronic state of the initial guess is 1-A1'.
 Keep R1 ints in memory in symmetry-blocked form, NReq=887266.
 Requested convergence on RMS density matrix=1.00D-08 within 128 cycles.
 Requested convergence on MAX density matrix=1.00D-06.
 Requested convergence on             energy=1.00D-06.
 No special actions if energy rises.
 Integral accuracy reduced to 1.0D-05 until final iterations.
 Initial convergence to 1.0D-05 achieved.  Increase integral accuracy.
 SCF Done:  E(RB3LYP) =  -26.6059579066     A.U. after    9 cycles
            NFock=  9  Conv=0.18D-08     -V/T= 2.0062

 **********************************************************************

            Population analysis using the SCF density.

 **********************************************************************

 Orbital symmetries:
       Occupied  (A1') (A1') (E') (E')
       Virtual   (A2") (A1') (E') (E') (E') (E') (A2") (A1') (A1')
                 (E') (E')
 The electronic state is 1-A1'.
 Alpha  occ. eigenvalues --   -6.76573  -0.51548  -0.35311  -0.35311
 Alpha virt. eigenvalues --   -0.06810   0.16686   0.17983   0.17983   0.38564
 Alpha virt. eigenvalues --    0.38564   0.44261   0.48768   0.95418   1.00990
 Alpha virt. eigenvalues --    1.00990
          Condensed to atoms (all electrons):
               1          2          3          4
     1  B    3.700245   0.401237   0.401237   0.401237
     2  H    0.401237   0.684032  -0.026628  -0.026628
     3  H    0.401237  -0.026628   0.684032  -0.026628
     4  H    0.401237  -0.026628  -0.026628   0.684032
 Mulliken charges:
               1
     1  B    0.096043
     2  H   -0.032014
     3  H   -0.032014
     4  H   -0.032014
 Sum of Mulliken charges =   0.00000
 Mulliken charges with hydrogens summed into heavy atoms:
               1
     1  B    0.000000
 Electronic spatial extent (au):  <R**2>=             33.9599
 Charge=              0.0000 electrons
 Dipole moment (field-independent basis, Debye):
    X=              0.0000    Y=              0.0000    Z=              0.0000  Tot=              0.0000
 Quadrupole moment (field-independent basis, Debye-Ang):
   XX=             -9.0993   YY=             -9.0993   ZZ=             -6.9936
   XY=              0.0000   XZ=              0.0000   YZ=              0.0000
 Traceless Quadrupole moment (field-independent basis, Debye-Ang):
   XX=             -0.7019   YY=             -0.7019   ZZ=              1.4038
   XY=              0.0000   XZ=              0.0000   YZ=              0.0000
 Octapole moment (field-independent basis, Debye-Ang**2):
  XXX=              0.0000  YYY=             -0.0057  ZZZ=              0.0000  XYY=              0.0000
  XXY=              0.0057  XXZ=              0.0000  XZZ=              0.0000  YZZ=              0.0000
  YYZ=              0.0000  XYZ=              0.0000
 Hexadecapole moment (field-independent basis, Debye-Ang**3):
 XXXX=            -22.7531 YYYY=            -22.7531 ZZZZ=             -6.5891 XXXY=              0.0000
 XXXZ=              0.0000 YYYX=              0.0000 YYYZ=              0.0000 ZZZX=              0.0000
 ZZZY=              0.0000 XXYY=             -7.5844 XXZZ=             -5.0524 YYZZ=             -5.0524
 XXYZ=              0.0000 YYXZ=              0.0000 ZZXY=              0.0000
 N-N= 7.426043294028D+00 E-N=-7.552770364311D+01  KE= 2.644251164612D+01
 Symmetry A1   KE= 2.498358936339D+01
 Symmetry A2   KE= 0.000000000000D+00
 Symmetry B1   KE= 1.458922282730D+00
 Symmetry B2   KE= 2.261329920322D-33
 Calling FoFJK, ICntrl=      2127 FMM=F ISym2X=1 I1Cent= 0 IOpClX= 0 NMat=1 NMatS=1 NMatT=0.
 ***** Axes restored to original set *****
 -------------------------------------------------------------------
 Center     Atomic                   Forces (Hartrees/Bohr)
 Number     Number              X              Y              Z
 -------------------------------------------------------------------
      1        5           0.000000000    0.000000000    0.000000000
      2        1           0.000000000    0.000492891    0.000000000
      3        1           0.000426856   -0.000246445    0.000000000
      4        1          -0.000426856   -0.000246445    0.000000000
 -------------------------------------------------------------------
 Cartesian Forces:  Max     0.000492891 RMS     0.000246445

 GradGradGradGradGradGradGradGradGradGradGradGradGradGradGradGradGradGrad
 Berny optimization.
 FormGI is forming the generalized inverse of G from B-inverse, IUseBI=4.
 Internal  Forces:  Max     0.000492891 RMS     0.000322673
 Search for a local minimum.
 Step number   1 out of a maximum of   20
 All quantities printed in internal units (Hartrees-Bohrs-Radians)
 Mixed Optimization -- En-DIIS/RFO-DIIS
 Second derivative matrix not updated -- first step.
 The second derivative matrix:
                          R1        R2        R3        A1        A2
           R1           0.25234
           R2           0.00000   0.25234
           R3           0.00000   0.00000   0.25234
           A1           0.00000   0.00000   0.00000   0.16000
           A2           0.00000   0.00000   0.00000   0.00000   0.16000
           A3           0.00000   0.00000   0.00000   0.00000   0.00000
           D1           0.00000   0.00000   0.00000   0.00000   0.00000
                          A3        D1
           A3           0.16000
           D1           0.00000   0.00230
 ITU=  0
     Eigenvalues ---    0.00230   0.16000   0.16000   0.25234   0.25234
     Eigenvalues ---    0.25234
 RFO step:  Lambda=-2.88820547D-06 EMin= 2.30000000D-03
 Linear search not attempted -- first point.
 Iteration  1 RMS(Cart)=  0.00127868 RMS(Int)=  0.00000000
 Iteration  2 RMS(Cart)=  0.00000000 RMS(Int)=  0.00000000
 ClnCor:  largest displacement from symmetrization is 1.67D-14 for atom     4.
 Variable       Old X    -DE/DX   Delta X   Delta X   Delta X     New X
                                 (Linear)    (Quad)   (Total)
    R1        2.25316   0.00049   0.00000   0.00195   0.00195   2.25511
    R2        2.25316   0.00049   0.00000   0.00195   0.00195   2.25511
    R3        2.25316   0.00049   0.00000   0.00195   0.00195   2.25511
    A1        2.09440   0.00000   0.00000   0.00000   0.00000   2.09440
    A2        2.09440   0.00000   0.00000   0.00000   0.00000   2.09440
    A3        2.09440   0.00000   0.00000   0.00000   0.00000   2.09440
    D1        3.14159   0.00000   0.00000   0.00000   0.00000   3.14159
         Item               Value     Threshold  Converged?
 Maximum Force            0.000493     0.000450     NO 
 RMS     Force            0.000323     0.000300     NO 
 Maximum Displacement     0.001953     0.001800     NO 
 RMS     Displacement     0.001279     0.001200     NO 
 Predicted change in Energy=-1.444103D-06
 GradGradGradGradGradGradGradGradGradGradGradGradGradGradGradGradGradGrad

                          Input orientation:                          
 ---------------------------------------------------------------------
 Center     Atomic      Atomic             Coordinates (Angstroms)
 Number     Number       Type             X           Y           Z
 ---------------------------------------------------------------------
      1          5           0        0.000000    0.000000    0.000000
      2          1           0        0.000000    1.193354    0.000000
      3          1           0        1.033474   -0.596677    0.000000
      4          1           0       -1.033475   -0.596677    0.000000
 ---------------------------------------------------------------------
                    Distance matrix (angstroms):
                    1          2          3          4
     1  B    0.000000
     2  H    1.193354   0.000000
     3  H    1.193354   2.066949   0.000000
     4  H    1.193354   2.066949   2.066949   0.000000
 Stoichiometry    BH3
 Framework group  D3H[O(B),3C2(H)]
 Deg. of freedom     1
 Full point group                 D3H     NOp  12
 Largest Abelian subgroup         C2V     NOp   4
 Largest concise Abelian subgroup C2      NOp   2
                         Standard orientation:                         
 ---------------------------------------------------------------------
 Center     Atomic      Atomic             Coordinates (Angstroms)
 Number     Number       Type             X           Y           Z
 ---------------------------------------------------------------------
      1          5           0        0.000000    0.000000    0.000000
      2          1           0        0.000000    1.193354    0.000000
      3          1           0        1.033475   -0.596677    0.000000
      4          1           0       -1.033475   -0.596677    0.000000
 ---------------------------------------------------------------------
 Rotational constants (GHZ):    234.7483232    234.7483232    117.3741616
 Standard basis: 6-31G (6D, 7F)
 There are     9 symmetry adapted cartesian basis functions of A1  symmetry.
 There are     0 symmetry adapted cartesian basis functions of A2  symmetry.
 There are     4 symmetry adapted cartesian basis functions of B1  symmetry.
 There are     2 symmetry adapted cartesian basis functions of B2  symmetry.
 There are     9 symmetry adapted basis functions of A1  symmetry.
 There are     0 symmetry adapted basis functions of A2  symmetry.
 There are     4 symmetry adapted basis functions of B1  symmetry.
 There are     2 symmetry adapted basis functions of B2  symmetry.
    15 basis functions,    34 primitive gaussians,    15 cartesian basis functions
     4 alpha electrons        4 beta electrons
       nuclear repulsion energy         7.4196113721 Hartrees.
 NAtoms=    4 NActive=    4 NUniq=    2 SFac= 4.00D+00 NAtFMM=   60 NAOKFM=F Big=F
 Integral buffers will be    131072 words long.
 Raffenetti 2 integral format.
 Two-electron integral symmetry is turned on.
 One-electron integrals computed using PRISM.
 NBasis=    15 RedAO= T EigKep=  4.51D-02  NBF=     9     0     4     2
 NBsUse=    15 1.00D-06 EigRej= -1.00D+00 NBFU=     9     0     4     2
 Initial guess from the checkpoint file:  "/home/iawad/Gau-13758.chk"
 B after Tr=     0.000000    0.000000    0.000000
         Rot=    1.000000    0.000000    0.000000    0.000000 Ang=   0.00 deg.
 Initial guess orbital symmetries:
       Occupied  (A1') (A1') (E') (E')
       Virtual   (?A) (?A) (?A) (?A) (?A) (?A) (?A) (?A) (?A) (A2")
                 (A2")
 Keep R1 ints in memory in symmetry-blocked form, NReq=887266.
 Requested convergence on RMS density matrix=1.00D-08 within 128 cycles.
 Requested convergence on MAX density matrix=1.00D-06.
 Requested convergence on             energy=1.00D-06.
 No special actions if energy rises.
 SCF Done:  E(RB3LYP) =  -26.6059593401     A.U. after    5 cycles
            NFock=  5  Conv=0.72D-08     -V/T= 2.0063
 Calling FoFJK, ICntrl=      2127 FMM=F ISym2X=1 I1Cent= 0 IOpClX= 0 NMat=1 NMatS=1 NMatT=0.
 ***** Axes restored to original set *****
 -------------------------------------------------------------------
 Center     Atomic                   Forces (Hartrees/Bohr)
 Number     Number              X              Y              Z
 -------------------------------------------------------------------
      1        5           0.000000000    0.000000000    0.000000000
      2        1           0.000000000   -0.000003184    0.000000000
      3        1          -0.000002758    0.000001592    0.000000000
      4        1           0.000002758    0.000001592    0.000000000
 -------------------------------------------------------------------
 Cartesian Forces:  Max     0.000003184 RMS     0.000001592

 GradGradGradGradGradGradGradGradGradGradGradGradGradGradGradGradGradGrad
 Berny optimization.
 Using GEDIIS/GDIIS optimizer.
 FormGI is forming the generalized inverse of G from B-inverse, IUseBI=4.
 Internal  Forces:  Max     0.000003184 RMS     0.000002085
 Search for a local minimum.
 Step number   2 out of a maximum of   20
 All quantities printed in internal units (Hartrees-Bohrs-Radians)
 Mixed Optimization -- En-DIIS/RFO-DIIS
 Swapping is turned off.
 Update second derivatives using D2CorX and points    1    2
 DE= -1.43D-06 DEPred=-1.44D-06 R= 9.93D-01
 TightC=F SS=  1.41D+00  RLast= 3.38D-03 DXNew= 5.0454D-01 1.0149D-02
 Trust test= 9.93D-01 RLast= 3.38D-03 DXMaxT set to 3.00D-01
 The second derivative matrix:
                          R1        R2        R3        A1        A2
           R1           0.25289
           R2           0.00054   0.25289
           R3           0.00054   0.00054   0.25289
           A1           0.00000   0.00000   0.00000   0.16000
           A2           0.00000   0.00000   0.00000   0.00000   0.16000
           A3           0.00000   0.00000   0.00000   0.00000   0.00000
           D1           0.00000   0.00000   0.00000   0.00000   0.00000
                          A3        D1
           A3           0.16000
           D1           0.00000   0.00230
 ITU=  1  0
     Eigenvalues ---    0.00230   0.16000   0.16000   0.25234   0.25234
     Eigenvalues ---    0.25398
 En-DIIS/RFO-DIIS IScMMF=        0 using points:     2    1
 RFO step:  Lambda=-6.01120947D-11.
 DidBck=F Rises=F RFO-DIIS coefs:    0.99358    0.00642
 Iteration  1 RMS(Cart)=  0.00000821 RMS(Int)=  0.00000000
 Iteration  2 RMS(Cart)=  0.00000000 RMS(Int)=  0.00000000
 ClnCor:  largest displacement from symmetrization is 6.74D-15 for atom     2.
 Variable       Old X    -DE/DX   Delta X   Delta X   Delta X     New X
                                 (Linear)    (Quad)   (Total)
    R1        2.25511   0.00000  -0.00001   0.00000  -0.00001   2.25510
    R2        2.25511   0.00000  -0.00001   0.00000  -0.00001   2.25510
    R3        2.25511   0.00000  -0.00001   0.00000  -0.00001   2.25510
    A1        2.09440   0.00000   0.00000   0.00000   0.00000   2.09440
    A2        2.09440   0.00000   0.00000   0.00000   0.00000   2.09440
    A3        2.09440   0.00000   0.00000   0.00000   0.00000   2.09440
    D1        3.14159   0.00000   0.00000   0.00000   0.00000   3.14159
         Item               Value     Threshold  Converged?
 Maximum Force            0.000003     0.000450     YES
 RMS     Force            0.000002     0.000300     YES
 Maximum Displacement     0.000013     0.001800     YES
 RMS     Displacement     0.000008     0.001200     YES
 Predicted change in Energy=-5.988111D-11
 Optimization completed.
    -- Stationary point found.
                           ----------------------------
                           !   Optimized Parameters   !
                           ! (Angstroms and Degrees)  !
 --------------------------                            --------------------------
 ! Name  Definition              Value          Derivative Info.                !
 --------------------------------------------------------------------------------
 ! R1    R(1,2)                  1.1934         -DE/DX =    0.0                 !
 ! R2    R(1,3)                  1.1934         -DE/DX =    0.0                 !
 ! R3    R(1,4)                  1.1934         -DE/DX =    0.0                 !
 ! A1    A(2,1,3)              120.0            -DE/DX =    0.0                 !
 ! A2    A(2,1,4)              120.0            -DE/DX =    0.0                 !
 ! A3    A(3,1,4)              120.0            -DE/DX =    0.0                 !
 ! D1    D(2,1,4,3)            180.0            -DE/DX =    0.0                 !
 --------------------------------------------------------------------------------
 GradGradGradGradGradGradGradGradGradGradGradGradGradGradGradGradGradGrad

                          Input orientation:                          
 ---------------------------------------------------------------------
 Center     Atomic      Atomic             Coordinates (Angstroms)
 Number     Number       Type             X           Y           Z
 ---------------------------------------------------------------------
      1          5           0        0.000000    0.000000    0.000000
      2          1           0        0.000000    1.193354    0.000000
      3          1           0        1.033474   -0.596677    0.000000
      4          1           0       -1.033475   -0.596677    0.000000
 ---------------------------------------------------------------------
                    Distance matrix (angstroms):
                    1          2          3          4
     1  B    0.000000
     2  H    1.193354   0.000000
     3  H    1.193354   2.066949   0.000000
     4  H    1.193354   2.066949   2.066949   0.000000
 Stoichiometry    BH3
 Framework group  D3H[O(B),3C2(H)]
 Deg. of freedom     1
 Full point group                 D3H     NOp  12
 Largest Abelian subgroup         C2V     NOp   4
 Largest concise Abelian subgroup C2      NOp   2
                         Standard orientation:                         
 ---------------------------------------------------------------------
 Center     Atomic      Atomic             Coordinates (Angstroms)
 Number     Number       Type             X           Y           Z
 ---------------------------------------------------------------------
      1          5           0        0.000000    0.000000    0.000000
      2          1           0        0.000000    1.193354    0.000000
      3          1           0        1.033475   -0.596677    0.000000
      4          1           0       -1.033475   -0.596677    0.000000
 ---------------------------------------------------------------------
 Rotational constants (GHZ):    234.7483232    234.7483232    117.3741616

 **********************************************************************

            Population analysis using the SCF density.

 **********************************************************************

 Orbital symmetries:
       Occupied  (A1') (A1') (E') (E')
       Virtual   (A2") (A1') (E') (E') (E') (E') (A2") (A1') (A1')
                 (E') (E')
 The electronic state is 1-A1'.
 Alpha  occ. eigenvalues --   -6.76605  -0.51533  -0.35301  -0.35301
 Alpha virt. eigenvalues --   -0.06815   0.16641   0.17957   0.17957   0.38581
 Alpha virt. eigenvalues --    0.38581   0.44252   0.48798   0.95327   1.00906
 Alpha virt. eigenvalues --    1.00906
          Condensed to atoms (all electrons):
               1          2          3          4
     1  B    3.700525   0.401064   0.401064   0.401064
     2  H    0.401064   0.684217  -0.026594  -0.026594
     3  H    0.401064  -0.026594   0.684217  -0.026594
     4  H    0.401064  -0.026594  -0.026594   0.684217
 Mulliken charges:
               1
     1  B    0.096283
     2  H   -0.032094
     3  H   -0.032094
     4  H   -0.032094
 Sum of Mulliken charges =   0.00000
 Mulliken charges with hydrogens summed into heavy atoms:
               1
     1  B    0.000000
 Electronic spatial extent (au):  <R**2>=             33.9949
 Charge=              0.0000 electrons
 Dipole moment (field-independent basis, Debye):
    X=              0.0000    Y=              0.0000    Z=              0.0000  Tot=              0.0000
 Quadrupole moment (field-independent basis, Debye-Ang):
   XX=             -9.1031   YY=             -9.1031   ZZ=             -6.9974
   XY=              0.0000   XZ=              0.0000   YZ=              0.0000
 Traceless Quadrupole moment (field-independent basis, Debye-Ang):
   XX=             -0.7019   YY=             -0.7019   ZZ=              1.4038
   XY=              0.0000   XZ=              0.0000   YZ=              0.0000
 Octapole moment (field-independent basis, Debye-Ang**2):
  XXX=              0.0000  YYY=             -0.0050  ZZZ=              0.0000  XYY=              0.0000
  XXY=              0.0050  XXZ=              0.0000  XZZ=              0.0000  YZZ=              0.0000
  YYZ=              0.0000  XYZ=              0.0000
 Hexadecapole moment (field-independent basis, Debye-Ang**3):
 XXXX=            -22.7884 YYYY=            -22.7884 ZZZZ=             -6.5958 XXXY=              0.0000
 XXXZ=              0.0000 YYYX=              0.0000 YYYZ=              0.0000 ZZZX=              0.0000
 ZZZY=              0.0000 XXYY=             -7.5961 XXZZ=             -5.0601 YYZZ=             -5.0601
 XXYZ=              0.0000 YYXZ=              0.0000 ZZXY=              0.0000
 N-N= 7.419611372076D+00 E-N=-7.551228407844D+01  KE= 2.643938593950D+01
 Symmetry A1   KE= 2.498154699219D+01
 Symmetry A2   KE= 0.000000000000D+00
 Symmetry B1   KE= 1.457838947304D+00
 Symmetry B2   KE= 2.259720571405D-33
 1\1\GINC-TATANKA\FOpt\RB3LYP\6-31G\B1H3\IAWAD\09-Mar-2017\0\\# OPT B3L
 YP 6-31G FREQ\\BH3.LOG\\0,1\B,0.,0.,0.\H,0.0000002955,1.1933535998,0.\
 H,1.0334743854,-0.5966770559,0.\H,-1.0334746809,-0.596676544,0.\\Versi
 on=ES64L-G09RevD.01\State=1-A1'\HF=-26.6059593\RMSD=7.250e-09\RMSF=1.5
 92e-06\Dipole=0.,0.,0.\Quadrupole=-0.5218338,-0.5218338,1.0436676,0.,0
 .,0.\PG=D03H [O(B1),3C2(H1)]\\@


 EXPERIMENTALISTS THINK SILICON IS REALLY FUN TO USE
     ITS PLACE IN NOVEL COMPOUNDS IS CERTAIN TO AMUSE
 THEY SIT ALL DAY IN LABORATORIES MAKING ALL THIS SLUDGE
     "LOADED WITH THE SILICON THEY SAY", TO ME IT LOOKS LIKE FUDGE.
 FOR HAPPY THOUGH THEY BE WITH CRUD, I'D LIKE TO KNOW A LITTLE
      ABOUT THE PI BONDS ON THE EDGE AND SIGMAS IN THE MIDDLE.

 SO LETS DERIVE A WAVEFUNCTION.....6-31G*
     USE AN OPTIMAL GEOMETRY AND SEE WHERE ELECTRONS ARE.
 BUT WHAT OF CORRELATION?  ASKS THE WIRY LITTLE SKEPTIC.
     WE'LL THROW IN PERTURBATION AS AN ELECTRON ANTISEPTIC.
 AND WHEN THE PROGRAM GIVES US ANSWERS IN THEM WE CAN TRUST
     SINCE NOBODY CAN MAKE THE STUFF, WE HAVE NO CHOICE, WE MUST.

 SO THEORY GUYS HAVE GOT IT MADE, IN ROOMS FREE OF POLLUTION.
     INSTEAD OF PROBLEMS WITH THE REFLUX, THEY HAVE ONLY SOLUTIONS.
 AND WHEN THE FEDS ANNOUNCE THE LIST OF CARCINOGENIC TERRORS,
     THE THEORISTS SIT SAFELY AT THEIR TERMINALS FIXING ERRORS.
 IN OTHER WORDS, EXPERIMENTALISTS WILL LIKELY DIE OF CANCER
     FROM WORKING HARD YET FRUITLESSLY...TILL THEORY GIVES THE ANSWER.
          -- THOMAS A. HOLME, 1983
 Job cpu time:       0 days  0 hours  0 minutes  2.2 seconds.
 File lengths (MBytes):  RWF=     72 Int=      0 D2E=      0 Chk=      2 Scr=      2
 Normal termination of Gaussian 09 at Thu Mar  9 16:32:07 2017.
 Link1:  Proceeding to internal job step number  2.
 -----------------------------------------------------------------
 #N Geom=AllCheck Guess=TCheck SCRF=Check GenChk RB3LYP/6-31G Freq
 -----------------------------------------------------------------
 1/10=4,29=7,30=1,38=1,40=1/1,3;
 2/12=2,40=1/2;
 3/5=1,6=6,11=2,14=-4,16=1,25=1,30=1,70=2,71=2,74=-5,116=1,140=1/1,2,3;
 4/5=101/1;
 5/5=2,98=1/2;
 8/6=4,10=90,11=11/1;
 11/6=1,8=1,9=11,15=111,16=1/1,2,10;
 10/6=1/2;
 6/7=2,8=2,9=2,10=2,18=1,28=1/1;
 7/8=1,10=1,25=1/1,2,3,16;
 1/10=4,30=1/3;
 99//99;
 Structure from the checkpoint file:  "/home/iawad/Gau-13758.chk"
 -------
 BH3.LOG
 -------
 Charge =  0 Multiplicity = 1
 Redundant internal coordinates found in file.
 B,0,0.,0.,0.
 H,0,0.0000002955,1.1933535998,0.
 H,0,1.0334743854,-0.5966770559,0.
 H,0,-1.0334746809,-0.596676544,0.
 Recover connectivity data from disk.

 GradGradGradGradGradGradGradGradGradGradGradGradGradGradGradGradGradGrad
 Berny optimization.
 Initialization pass.
                           ----------------------------
                           !    Initial Parameters    !
                           ! (Angstroms and Degrees)  !
 --------------------------                            --------------------------
 ! Name  Definition              Value          Derivative Info.                !
 --------------------------------------------------------------------------------
 ! R1    R(1,2)                  1.1934         calculate D2E/DX2 analytically  !
 ! R2    R(1,3)                  1.1934         calculate D2E/DX2 analytically  !
 ! R3    R(1,4)                  1.1934         calculate D2E/DX2 analytically  !
 ! A1    A(2,1,3)              120.0            calculate D2E/DX2 analytically  !
 ! A2    A(2,1,4)              120.0            calculate D2E/DX2 analytically  !
 ! A3    A(3,1,4)              120.0            calculate D2E/DX2 analytically  !
 ! D1    D(2,1,4,3)            180.0            calculate D2E/DX2 analytically  !
 --------------------------------------------------------------------------------
 Trust Radius=3.00D-01 FncErr=1.00D-07 GrdErr=1.00D-07
 Number of steps in this run=      2 maximum allowed number of steps=      2.
 GradGradGradGradGradGradGradGradGradGradGradGradGradGradGradGradGradGrad

                          Input orientation:                          
 ---------------------------------------------------------------------
 Center     Atomic      Atomic             Coordinates (Angstroms)
 Number     Number       Type             X           Y           Z
 ---------------------------------------------------------------------
      1          5           0        0.000000    0.000000    0.000000
      2          1           0        0.000000    1.193354    0.000000
      3          1           0        1.033474   -0.596677    0.000000
      4          1           0       -1.033475   -0.596677    0.000000
 ---------------------------------------------------------------------
                    Distance matrix (angstroms):
                    1          2          3          4
     1  B    0.000000
     2  H    1.193354   0.000000
     3  H    1.193354   2.066949   0.000000
     4  H    1.193354   2.066949   2.066949   0.000000
 Stoichiometry    BH3
 Framework group  D3H[O(B),3C2(H)]
 Deg. of freedom     1
 Full point group                 D3H     NOp  12
 Largest Abelian subgroup         C2V     NOp   4
 Largest concise Abelian subgroup C2      NOp   2
                         Standard orientation:                         
 ---------------------------------------------------------------------
 Center     Atomic      Atomic             Coordinates (Angstroms)
 Number     Number       Type             X           Y           Z
 ---------------------------------------------------------------------
      1          5           0        0.000000    0.000000    0.000000
      2          1           0        0.000000    1.193354    0.000000
      3          1           0        1.033475   -0.596677    0.000000
      4          1           0       -1.033475   -0.596677    0.000000
 ---------------------------------------------------------------------
 Rotational constants (GHZ):    234.7483232    234.7483232    117.3741616
 Standard basis: 6-31G (6D, 7F)
 There are     9 symmetry adapted cartesian basis functions of A1  symmetry.
 There are     0 symmetry adapted cartesian basis functions of A2  symmetry.
 There are     4 symmetry adapted cartesian basis functions of B1  symmetry.
 There are     2 symmetry adapted cartesian basis functions of B2  symmetry.
 There are     9 symmetry adapted basis functions of A1  symmetry.
 There are     0 symmetry adapted basis functions of A2  symmetry.
 There are     4 symmetry adapted basis functions of B1  symmetry.
 There are     2 symmetry adapted basis functions of B2  symmetry.
    15 basis functions,    34 primitive gaussians,    15 cartesian basis functions
     4 alpha electrons        4 beta electrons
       nuclear repulsion energy         7.4196113721 Hartrees.
 NAtoms=    4 NActive=    4 NUniq=    2 SFac= 4.00D+00 NAtFMM=   60 NAOKFM=F Big=F
 Integral buffers will be    131072 words long.
 Raffenetti 2 integral format.
 Two-electron integral symmetry is turned on.
 One-electron integrals computed using PRISM.
 NBasis=    15 RedAO= T EigKep=  4.51D-02  NBF=     9     0     4     2
 NBsUse=    15 1.00D-06 EigRej= -1.00D+00 NBFU=     9     0     4     2
 Initial guess from the checkpoint file:  "/home/iawad/Gau-13758.chk"
 B after Tr=     0.000000    0.000000    0.000000
         Rot=    1.000000    0.000000    0.000000    0.000000 Ang=   0.00 deg.
 Initial guess orbital symmetries:
       Occupied  (A1') (A1') (E') (E')
       Virtual   (A2") (A1') (E') (E') (E') (E') (A2") (A1') (A1')
                 (E') (E')
 Keep R1 ints in memory in symmetry-blocked form, NReq=887266.
 Requested convergence on RMS density matrix=1.00D-08 within 128 cycles.
 Requested convergence on MAX density matrix=1.00D-06.
 Requested convergence on             energy=1.00D-06.
 No special actions if energy rises.
 SCF Done:  E(RB3LYP) =  -26.6059593401     A.U. after    1 cycles
            NFock=  1  Conv=0.25D-09     -V/T= 2.0063
 DoSCS=F DFT=T ScalE2(SS,OS)=  1.000000  1.000000
 Range of M.O.s used for correlation:     1    15
 NBasis=    15 NAE=     4 NBE=     4 NFC=     0 NFV=     0
 NROrb=     15 NOA=     4 NOB=     4 NVA=    11 NVB=    11
 Symmetrizing basis deriv contribution to polar:
 IMax=3 JMax=2 DiffMx= 0.00D+00
 G2DrvN: will do     5 centers at a time, making    1 passes.
 Calling FoFCou, ICntrl=  3107 FMM=F I1Cent=   0 AccDes= 0.00D+00.
 End of G2Drv F.D. properties file   721 does not exist.
 End of G2Drv F.D. properties file   722 does not exist.
 End of G2Drv F.D. properties file   788 does not exist.
          IDoAtm=1111
          Differentiating once with respect to electric field.
                with respect to dipole field.
          Differentiating once with respect to nuclear coordinates.
 Keep R1 ints in memory in symmetry-blocked form, NReq=866715.
          There are     9 degrees of freedom in the 1st order CPHF.  IDoFFX=4 NUNeed=     9.
      9 vectors produced by pass  0 Test12= 4.89D-16 1.11D-08 XBig12= 8.53D+00 2.16D+00.
 AX will form     9 AO Fock derivatives at one time.
      9 vectors produced by pass  1 Test12= 4.89D-16 1.11D-08 XBig12= 4.56D-02 1.21D-01.
      6 vectors produced by pass  2 Test12= 4.89D-16 1.11D-08 XBig12= 9.32D-05 5.41D-03.
      6 vectors produced by pass  3 Test12= 4.89D-16 1.11D-08 XBig12= 2.35D-07 2.86D-04.
      3 vectors produced by pass  4 Test12= 4.89D-16 1.11D-08 XBig12= 2.07D-10 1.07D-05.
      2 vectors produced by pass  5 Test12= 4.89D-16 1.11D-08 XBig12= 1.16D-14 5.55D-08.
 InvSVY:  IOpt=1 It=  1 EMax= 4.44D-16
 Solved reduced A of dimension    35 with     9 vectors.
 Isotropic polarizability for W=    0.000000       12.98 Bohr**3.
 End of Minotr F.D. properties file   721 does not exist.
 End of Minotr F.D. properties file   722 does not exist.
 End of Minotr F.D. properties file   788 does not exist.

 **********************************************************************

            Population analysis using the SCF density.

 **********************************************************************

 Orbital symmetries:
       Occupied  (A1') (A1') (E') (E')
       Virtual   (A2") (A1') (E') (E') (E') (E') (A2") (A1') (A1')
                 (E') (E')
 The electronic state is 1-A1'.
 Alpha  occ. eigenvalues --   -6.76605  -0.51533  -0.35301  -0.35301
 Alpha virt. eigenvalues --   -0.06815   0.16641   0.17957   0.17957   0.38581
 Alpha virt. eigenvalues --    0.38581   0.44252   0.48798   0.95327   1.00906
 Alpha virt. eigenvalues --    1.00906
          Condensed to atoms (all electrons):
               1          2          3          4
     1  B    3.700525   0.401064   0.401064   0.401064
     2  H    0.401064   0.684217  -0.026594  -0.026594
     3  H    0.401064  -0.026594   0.684217  -0.026594
     4  H    0.401064  -0.026594  -0.026594   0.684217
 Mulliken charges:
               1
     1  B    0.096283
     2  H   -0.032094
     3  H   -0.032094
     4  H   -0.032094
 Sum of Mulliken charges =   0.00000
 Mulliken charges with hydrogens summed into heavy atoms:
               1
     1  B    0.000000
 APT charges:
               1
     1  B    0.520942
     2  H   -0.173640
     3  H   -0.173646
     4  H   -0.173646
 Sum of APT charges =   0.00001
 APT charges with hydrogens summed into heavy atoms:
               1
     1  B    0.000010
 Electronic spatial extent (au):  <R**2>=             33.9949
 Charge=              0.0000 electrons
 Dipole moment (field-independent basis, Debye):
    X=              0.0000    Y=              0.0000    Z=              0.0000  Tot=              0.0000
 Quadrupole moment (field-independent basis, Debye-Ang):
   XX=             -9.1031   YY=             -9.1031   ZZ=             -6.9974
   XY=              0.0000   XZ=              0.0000   YZ=              0.0000
 Traceless Quadrupole moment (field-independent basis, Debye-Ang):
   XX=             -0.7019   YY=             -0.7019   ZZ=              1.4038
   XY=              0.0000   XZ=              0.0000   YZ=              0.0000
 Octapole moment (field-independent basis, Debye-Ang**2):
  XXX=              0.0000  YYY=             -0.0050  ZZZ=              0.0000  XYY=              0.0000
  XXY=              0.0050  XXZ=              0.0000  XZZ=              0.0000  YZZ=              0.0000
  YYZ=              0.0000  XYZ=              0.0000
 Hexadecapole moment (field-independent basis, Debye-Ang**3):
 XXXX=            -22.7884 YYYY=            -22.7884 ZZZZ=             -6.5958 XXXY=              0.0000
 XXXZ=              0.0000 YYYX=              0.0000 YYYZ=              0.0000 ZZZX=              0.0000
 ZZZY=              0.0000 XXYY=             -7.5961 XXZZ=             -5.0601 YYZZ=             -5.0601
 XXYZ=              0.0000 YYXZ=              0.0000 ZZXY=              0.0000
 N-N= 7.419611372076D+00 E-N=-7.551228409918D+01  KE= 2.643938594795D+01
 Symmetry A1   KE= 2.498154699859D+01
 Symmetry A2   KE= 0.000000000000D+00
 Symmetry B1   KE= 1.457838949358D+00
 Symmetry B2   KE= 2.259720582774D-33
  Exact polarizability:  15.779   0.000  15.780   0.000   0.000   7.394
 Approx polarizability:  18.467   0.000  18.467   0.000   0.000   8.521
 Calling FoFJK, ICntrl=    100127 FMM=F ISym2X=1 I1Cent= 0 IOpClX= 0 NMat=1 NMatS=1 NMatT=0.
 Full mass-weighted force constant matrix:
 Low frequencies ---   -0.8196   -0.1058   -0.0045    8.8622   12.3236   12.3509
 Low frequencies --- 1152.5270 1209.4850 1209.4873
 Diagonal vibrational polarizability:
        0.7387293       0.7386244       1.8892771
 Harmonic frequencies (cm**-1), IR intensities (KM/Mole), Raman scattering
 activities (A**4/AMU), depolarization ratios for plane and unpolarized
 incident light, reduced masses (AMU), force constants (mDyne/A),
 and normal coordinates:
                      1                      2                      3
                     A2"                    E'                     E'
 Frequencies --   1152.5270              1209.4850              1209.4873
 Red. masses --      1.2531                 1.1081                 1.1081
 Frc consts  --      0.9807                 0.9551                 0.9551
 IR Inten    --     93.2534                13.2695                13.2727
  Atom  AN      X      Y      Z        X      Y      Z        X      Y      Z
     1   5     0.00   0.00   0.16     0.00   0.10   0.00    -0.10   0.00   0.00
     2   1     0.00   0.00  -0.57     0.00   0.08   0.00     0.81   0.00   0.00
     3   1     0.00   0.00  -0.57    -0.38  -0.59   0.00     0.14   0.38   0.00
     4   1     0.00   0.00  -0.57     0.38  -0.59   0.00     0.14  -0.38   0.00
                      4                      5                      6
                     A1'                    E'                     E'
 Frequencies --   2577.2672              2715.6231              2715.6238
 Red. masses --      1.0078                 1.1263                 1.1263
 Frc consts  --      3.9442                 4.8940                 4.8940
 IR Inten    --      0.0000               135.5269               135.5139
  Atom  AN      X      Y      Z        X      Y      Z        X      Y      Z
     1   5     0.00   0.00   0.00     0.11   0.00   0.00     0.00   0.11   0.00
     2   1     0.00   0.58   0.00     0.02   0.00   0.00     0.00  -0.81   0.00
     3   1     0.50  -0.29   0.00    -0.60   0.36   0.00     0.36  -0.19   0.00
     4   1    -0.50  -0.29   0.00    -0.60  -0.36   0.00    -0.36  -0.19   0.00

 -------------------
 - Thermochemistry -
 -------------------
 Temperature   298.150 Kelvin.  Pressure   1.00000 Atm.
 Atom     1 has atomic number  5 and mass  11.00931
 Atom     2 has atomic number  1 and mass   1.00783
 Atom     3 has atomic number  1 and mass   1.00783
 Atom     4 has atomic number  1 and mass   1.00783
 Molecular mass:    14.03278 amu.
 Principal axes and moments of inertia in atomic units:
                           1         2         3
     Eigenvalues --     7.68798   7.68798  15.37597
           X            0.70711   0.70711   0.00000
           Y           -0.70711   0.70711   0.00000
           Z            0.00000   0.00000   1.00000
 This molecule is an oblate symmetric top.
 Rotational symmetry number  6.
 Rotational temperatures (Kelvin)     11.26613    11.26613     5.63306
 Rotational constants (GHZ):         234.74832   234.74832   117.37416
 Zero-point vibrational energy      69263.9 (Joules/Mol)
                                   16.55446 (Kcal/Mol)
 Vibrational temperatures:   1658.23  1740.18  1740.18  3708.11  3907.17
          (Kelvin)           3907.17
 
 Zero-point correction=                           0.026381 (Hartree/Particle)
 Thermal correction to Energy=                    0.029266
 Thermal correction to Enthalpy=                  0.030211
 Thermal correction to Gibbs Free Energy=         0.008827
 Sum of electronic and zero-point Energies=            -26.579578
 Sum of electronic and thermal Energies=               -26.576693
 Sum of electronic and thermal Enthalpies=             -26.575749
 Sum of electronic and thermal Free Energies=          -26.597132
 
                     E (Thermal)             CV                S
                      KCal/Mol        Cal/Mol-Kelvin    Cal/Mol-Kelvin
 Total                   18.365              6.600             45.005
 Electronic               0.000              0.000              0.000
 Translational            0.889              2.981             33.864
 Rotational               0.889              2.981             11.011
 Vibrational             16.587              0.638              0.130
                       Q            Log10(Q)             Ln(Q)
 Total Bot       0.870612D-04         -4.060175         -9.348899
 Total V=0       0.118663D+09          8.074314         18.591795
 Vib (Bot)       0.740841D-12        -12.130275        -27.930990
 Vib (V=0)       0.100975D+01          0.004214          0.009704
 Electronic      0.100000D+01          0.000000          0.000000
 Translational   0.206619D+07          6.315171         14.541218
 Rotational      0.568760D+02          1.754929          4.040873
 ***** Axes restored to original set *****
 -------------------------------------------------------------------
 Center     Atomic                   Forces (Hartrees/Bohr)
 Number     Number              X              Y              Z
 -------------------------------------------------------------------
      1        5           0.000000000    0.000000000    0.000000000
      2        1           0.000000000   -0.000003184    0.000000000
      3        1          -0.000002757    0.000001592    0.000000000
      4        1           0.000002757    0.000001592    0.000000000
 -------------------------------------------------------------------
 Cartesian Forces:  Max     0.000003184 RMS     0.000001592
 FormGI is forming the generalized inverse of G from B-inverse, IUseBI=4.

 GradGradGradGradGradGradGradGradGradGradGradGradGradGradGradGradGradGrad
 Berny optimization.
 Internal  Forces:  Max     0.000003184 RMS     0.000002084
 Search for a local minimum.
 Step number   1 out of a maximum of    2
 All quantities printed in internal units (Hartrees-Bohrs-Radians)
 Second derivative matrix not updated -- analytic derivatives used.
 The second derivative matrix:
                          R1        R2        R3        A1        A2
           R1           0.25047
           R2           0.00143   0.25047
           R3           0.00143   0.00143   0.25047
           A1           0.00460   0.00460  -0.00919   0.05638
           A2           0.00460  -0.00919   0.00460  -0.02819   0.05638
           A3          -0.00919   0.00460   0.00460  -0.02819  -0.02819
           D1           0.00000   0.00000   0.00000   0.00000   0.00000
                          A3        D1
           A3           0.05638
           D1           0.00000   0.05053
 ITU=  0
     Eigenvalues ---    0.05053   0.08342   0.08342   0.25018   0.25018
     Eigenvalues ---    0.25334
 Angle between quadratic step and forces=   0.00 degrees.
 Linear search not attempted -- first point.
 Iteration  1 RMS(Cart)=  0.00000823 RMS(Int)=  0.00000000
 Iteration  2 RMS(Cart)=  0.00000000 RMS(Int)=  0.00000000
 ClnCor:  largest displacement from symmetrization is 3.99D-11 for atom     3.
 Variable       Old X    -DE/DX   Delta X   Delta X   Delta X     New X
                                 (Linear)    (Quad)   (Total)
    R1        2.25511   0.00000   0.00000  -0.00001  -0.00001   2.25510
    R2        2.25511   0.00000   0.00000  -0.00001  -0.00001   2.25510
    R3        2.25511   0.00000   0.00000  -0.00001  -0.00001   2.25510
    A1        2.09440   0.00000   0.00000   0.00000   0.00000   2.09440
    A2        2.09440   0.00000   0.00000   0.00000   0.00000   2.09440
    A3        2.09440   0.00000   0.00000   0.00000   0.00000   2.09440
    D1        3.14159   0.00000   0.00000   0.00000   0.00000   3.14159
         Item               Value     Threshold  Converged?
 Maximum Force            0.000003     0.000450     YES
 RMS     Force            0.000002     0.000300     YES
 Maximum Displacement     0.000013     0.001800     YES
 RMS     Displacement     0.000008     0.001200     YES
 Predicted change in Energy=-6.002436D-11
 Optimization completed.
    -- Stationary point found.
                           ----------------------------
                           !   Optimized Parameters   !
                           ! (Angstroms and Degrees)  !
 --------------------------                            --------------------------
 ! Name  Definition              Value          Derivative Info.                !
 --------------------------------------------------------------------------------
 ! R1    R(1,2)                  1.1934         -DE/DX =    0.0                 !
 ! R2    R(1,3)                  1.1934         -DE/DX =    0.0                 !
 ! R3    R(1,4)                  1.1934         -DE/DX =    0.0                 !
 ! A1    A(2,1,3)              120.0            -DE/DX =    0.0                 !
 ! A2    A(2,1,4)              120.0            -DE/DX =    0.0                 !
 ! A3    A(3,1,4)              120.0            -DE/DX =    0.0                 !
 ! D1    D(2,1,4,3)            180.0            -DE/DX =    0.0                 !
 --------------------------------------------------------------------------------
 GradGradGradGradGradGradGradGradGradGradGradGradGradGradGradGradGradGrad

 1\1\GINC-TATANKA\Freq\RB3LYP\6-31G\B1H3\IAWAD\09-Mar-2017\0\\#N Geom=A
 llCheck Guess=TCheck SCRF=Check GenChk RB3LYP/6-31G Freq\\BH3.LOG\\0,1
 \B,0.,0.,0.\H,0.0000002955,1.1933535998,0.\H,1.0334743854,-0.596677055
 9,0.\H,-1.0334746809,-0.596676544,0.\\Version=ES64L-G09RevD.01\State=1
 -A1'\HF=-26.6059593\RMSD=2.473e-10\RMSF=1.592e-06\ZeroPoint=0.0263812\
 Thermal=0.0292664\Dipole=0.,0.,0.\DipoleDeriv=0.5432586,0.,0.,0.,0.543
 2013,0.,0.,0.,0.4763659,-0.0837141,0.,0.,0.,-0.2784398,0.,0.,0.,-0.158
 7676,-0.2297652,0.0843151,0.,0.0843172,-0.1323882,0.,0.,0.,-0.1587834,
 -0.2297653,-0.084315,0.,-0.0843171,-0.1323881,0.,0.,0.,-0.1587834\Pola
 r=15.7792996,0.,15.7797684,0.,0.,7.3944269\PG=D03H [O(B1),3C2(H1)]\NIm
 ag=0\\0.41660981,0.,0.41660896,0.,0.,0.11923290,-0.03929905,-0.0000000
 5,0.,0.03325934,-0.00000005,-0.23844286,0.,0.00000005,0.25046682,0.,0.
 ,-0.03974665,0.,0.,0.01325275,-0.18865610,0.08623179,0.,0.00301953,-0.
 00181478,0.,0.19616490,0.08623152,-0.08908407,0.,0.01745723,-0.0060116
 5,0.,-0.09405362,0.08756125,0.,0.,-0.03974489,0.,0.,0.01324695,0.,0.,0
 .01325275,-0.18865619,-0.08623174,0.,0.00301952,0.00181478,0.,-0.01052
 724,-0.00963600,0.,0.19616499,-0.08623147,-0.08908398,0.,-0.01745724,-
 0.00601164,0.,0.00963601,0.00753511,0.,0.09405357,0.08756116,0.,0.,-0.
 03974489,0.,0.,0.01324695,0.,0.,0.01324695,0.,0.,0.01325275\\0.,0.,0.,
 0.,0.00000318,0.,0.00000276,-0.00000159,0.,-0.00000276,-0.00000159,0.\
 \\@


 AS FAR AS THE LAWS OF MATHEMATICS REFER TO REALITY,
 THEY ARE NOT CERTAIN; AND AS FAR AS THEY ARE CERTAIN,
 THEY DO NOT REFER TO REALITY.

                                         -- ALBERT EINSTEIN
 Job cpu time:       0 days  0 hours  0 minutes  2.1 seconds.
 File lengths (MBytes):  RWF=     82 Int=      0 D2E=      0 Chk=      2 Scr=      2
 Normal termination of Gaussian 09 at Thu Mar  9 16:32:09 2017.
