 Entering Gaussian System, Link 0=g09
 Initial command:
 /global/software/gaussian/g09.e01/l1.exe "//home/aalrawas/scratch/Gau-27344.inp" -scrdir="//home/aalrawas/scratch/"
 Entering Link 1 = /global/software/gaussian/g09.e01/l1.exe PID=     27345.
  
 Copyright (c) 1988,1990,1992,1993,1995,1998,2003,2009,2015,
            Gaussian, Inc.  All Rights Reserved.
  
 This is part of the Gaussian(R) 09 program.  It is based on
 the Gaussian(R) 03 system (copyright 2003, Gaussian, Inc.),
 the Gaussian(R) 98 system (copyright 1998, Gaussian, Inc.),
 the Gaussian(R) 94 system (copyright 1995, Gaussian, Inc.),
 the Gaussian 92(TM) system (copyright 1992, Gaussian, Inc.),
 the Gaussian 90(TM) system (copyright 1990, Gaussian, Inc.),
 the Gaussian 88(TM) system (copyright 1988, Gaussian, Inc.),
 the Gaussian 86(TM) system (copyright 1986, Carnegie Mellon
 University), and the Gaussian 82(TM) system (copyright 1983,
 Carnegie Mellon University). Gaussian is a federally registered
 trademark of Gaussian, Inc.
  
 This software contains proprietary and confidential information,
 including trade secrets, belonging to Gaussian, Inc.
  
 This software is provided under written license and may be
 used, copied, transmitted, or stored only in accord with that
 written license.
  
 The following legend is applicable only to US Government
 contracts under FAR:
  
                    RESTRICTED RIGHTS LEGEND
  
 Use, reproduction and disclosure by the US Government is
 subject to restrictions as set forth in subparagraphs (a)
 and (c) of the Commercial Computer Software - Restricted
 Rights clause in FAR 52.227-19.
  
 Gaussian, Inc.
 340 Quinnipiac St., Bldg. 40, Wallingford CT 06492
  
  
 ---------------------------------------------------------------
 Warning -- This program may not be used in any manner that
 competes with the business of Gaussian, Inc. or will provide
 assistance to any competitor of Gaussian, Inc.  The licensee
 of this program is prohibited from giving any competitor of
 Gaussian, Inc. access to this program.  By using this program,
 the user acknowledges that Gaussian, Inc. is engaged in the
 business of creating and licensing software in the field of
 computational chemistry and represents and warrants to the
 licensee that it is not a competitor of Gaussian, Inc. and that
 it will not use this program in any manner prohibited above.
 ---------------------------------------------------------------
  

 Cite this work as:
 Gaussian 09, Revision E.01,
 M. J. Frisch, G. W. Trucks, H. B. Schlegel, G. E. Scuseria, 
 M. A. Robb, J. R. Cheeseman, G. Scalmani, V. Barone, B. Mennucci, 
 G. A. Petersson, H. Nakatsuji, M. Caricato, X. Li, H. P. Hratchian, 
 A. F. Izmaylov, J. Bloino, G. Zheng, J. L. Sonnenberg, M. Hada, 
 M. Ehara, K. Toyota, R. Fukuda, J. Hasegawa, M. Ishida, T. Nakajima, 
 Y. Honda, O. Kitao, H. Nakai, T. Vreven, J. A. Montgomery, Jr., 
 J. E. Peralta, F. Ogliaro, M. Bearpark, J. J. Heyd, E. Brothers, 
 K. N. Kudin, V. N. Staroverov, T. Keith, R. Kobayashi, J. Normand, 
 K. Raghavachari, A. Rendell, J. C. Burant, S. S. Iyengar, J. Tomasi, 
 M. Cossi, N. Rega, J. M. Millam, M. Klene, J. E. Knox, J. B. Cross, 
 V. Bakken, C. Adamo, J. Jaramillo, R. Gomperts, R. E. Stratmann, 
 O. Yazyev, A. J. Austin, R. Cammi, C. Pomelli, J. W. Ochterski, 
 R. L. Martin, K. Morokuma, V. G. Zakrzewski, G. A. Voth, 
 P. Salvador, J. J. Dannenberg, S. Dapprich, A. D. Daniels, 
 O. Farkas, J. B. Foresman, J. V. Ortiz, J. Cioslowski, 
 and D. J. Fox, Gaussian, Inc., Wallingford CT, 2013.
 
 ******************************************
 Gaussian 09:  ES64L-G09RevE.01 30-Nov-2015
                16-Jan-2017 
 ******************************************
 %NPROCS=8
 Will use up to    8 processors via shared memory.
 ------------------------------------------------------
 # opt=(modredundant,MaxCycle=1000) freq B3LYP/6-31G(d)
 ------------------------------------------------------
 1/6=1000,14=-1,18=120,19=15,26=3,38=1/1,3;
 2/9=110,12=2,17=6,18=5,40=1/2;
 3/5=1,6=6,7=1,11=2,16=1,25=1,30=1,71=1,74=-5/1,2,3;
 4//1;
 5/5=2,38=5/2;
 6/7=2,8=2,9=2,10=2,28=1/1;
 7//1,2,3,16;
 1/6=1000,14=-1,18=20,19=15,26=3/3(2);
 2/9=110/2;
 99//99;
 2/9=110/2;
 3/5=1,6=6,7=1,11=2,16=1,25=1,30=1,71=1,74=-5/1,2,3;
 4/5=5,16=3,69=1/1;
 5/5=2,38=5/2;
 7//1,2,3,16;
 1/6=1000,14=-1,18=20,19=15,26=3/3(-5);
 2/9=110/2;
 6/7=2,8=2,9=2,10=2,19=2,28=1/1;
 99/9=1/99;
 -------------------
 Title Card Required
 -------------------
 Symbolic Z-matrix:
 Charge =  0 Multiplicity = 1
 H                     0.95828   1.20906   0.94579 
 C                     1.00072   0.5417    0.07653 
 C                    -0.64903  -1.37164  -0.36231 
 C                    -1.34548   1.08475  -0.63643 
 C                    -1.78765  -0.34019  -0.26679 
 O                     0.0807    1.07584  -0.94158 
 C                     0.55848  -0.88327   0.4461 
 H                    -1.00194  -2.31385   0.07537 
 H                    -2.60559  -0.64541  -0.92981 
 H                     1.38216  -1.59854   0.33751 
 C                     2.40803   0.56388  -0.51612 
 H                     2.65922   1.57417  -0.85691 
 H                     2.48055  -0.10226  -1.38307 
 O                     3.35947   0.16223   0.46481 
 H                     4.2324    0.19572   0.03348 
 O                    -2.35009  -0.34539   1.06192 
 H                    -1.60636  -0.48757   1.68798 
 O                    -0.25341  -1.65666  -1.70552 
 H                    -1.05849  -1.69246  -2.2525 
 O                     0.1908   -0.88885   1.8446 
 H                     1.03055  -0.80438   2.33905 
 H                    -1.86512   1.42409  -1.53976 
 O                    -1.58288   2.00572   0.40454 
 H                    -1.27293   2.84691   0.06682 
 H                    -0.60183   3.83939  -1.90702 
 O                    -0.24893   3.71823  -1.01232 
 H                     0.28593   2.90045  -1.06107 
 O                     0.10199  -3.49565   0.99421 
 H                     1.02447  -3.66251   0.7498 
 H                     0.13566  -2.72026   1.5908 
 
 Add virtual bond connecting atoms O26        and H24        Dist= 3.26D+00.
 Add virtual bond connecting atoms H27        and O6         Dist= 3.48D+00.
 Add virtual bond connecting atoms O28        and H8         Dist= 3.51D+00.
 Add virtual bond connecting atoms H30        and H8         Dist= 3.66D+00.
 Add virtual bond connecting atoms H30        and O20        Dist= 3.50D+00.
 The following ModRedundant input section has been read:
 D       6       4       5       3 F                                           
 D       6       2       7       3 F                                           
 

 GradGradGradGradGradGradGradGradGradGradGradGradGradGradGradGradGradGrad
 Berny optimization.
 Initialization pass.
                           ----------------------------
                           !    Initial Parameters    !
                           ! (Angstroms and Degrees)  !
 --------------------------                            --------------------------
 ! Name  Definition              Value          Derivative Info.                !
 --------------------------------------------------------------------------------
 ! R1    R(1,2)                  1.0967         estimate D2E/DX2                !
 ! R2    R(2,6)                  1.4725         estimate D2E/DX2                !
 ! R3    R(2,7)                  1.5371         estimate D2E/DX2                !
 ! R4    R(2,11)                 1.5272         estimate D2E/DX2                !
 ! R5    R(3,5)                  1.5393         estimate D2E/DX2                !
 ! R6    R(3,7)                  1.533          estimate D2E/DX2                !
 ! R7    R(3,8)                  1.0972         estimate D2E/DX2                !
 ! R8    R(3,18)                 1.429          estimate D2E/DX2                !
 ! R9    R(4,5)                  1.5371         estimate D2E/DX2                !
 ! R10   R(4,6)                  1.4585         estimate D2E/DX2                !
 ! R11   R(4,22)                 1.096          estimate D2E/DX2                !
 ! R12   R(4,23)                 1.41           estimate D2E/DX2                !
 ! R13   R(5,9)                  1.0963         estimate D2E/DX2                !
 ! R14   R(5,16)                 1.4429         estimate D2E/DX2                !
 ! R15   R(6,27)                 1.84           estimate D2E/DX2                !
 ! R16   R(7,10)                 1.0963         estimate D2E/DX2                !
 ! R17   R(7,20)                 1.446          estimate D2E/DX2                !
 ! R18   R(8,28)                 1.86           estimate D2E/DX2                !
 ! R19   R(8,30)                 1.938          estimate D2E/DX2                !
 ! R20   R(11,12)                1.0954         estimate D2E/DX2                !
 ! R21   R(11,13)                1.0957         estimate D2E/DX2                !
 ! R22   R(11,14)                1.4244         estimate D2E/DX2                !
 ! R23   R(14,15)                0.9743         estimate D2E/DX2                !
 ! R24   R(16,17)                0.9825         estimate D2E/DX2                !
 ! R25   R(18,19)                0.974          estimate D2E/DX2                !
 ! R26   R(20,21)                0.9782         estimate D2E/DX2                !
 ! R27   R(20,30)                1.8497         estimate D2E/DX2                !
 ! R28   R(23,24)                0.958          estimate D2E/DX2                !
 ! R29   R(24,26)                1.724          estimate D2E/DX2                !
 ! R30   R(25,26)                0.9694         estimate D2E/DX2                !
 ! R31   R(26,27)                0.9784         estimate D2E/DX2                !
 ! R32   R(28,29)                0.9688         estimate D2E/DX2                !
 ! R33   R(28,30)                0.9789         estimate D2E/DX2                !
 ! A1    A(1,2,6)              107.6443         estimate D2E/DX2                !
 ! A2    A(1,2,7)              111.2484         estimate D2E/DX2                !
 ! A3    A(1,2,11)             109.5368         estimate D2E/DX2                !
 ! A4    A(6,2,7)              108.8295         estimate D2E/DX2                !
 ! A5    A(6,2,11)             107.5881         estimate D2E/DX2                !
 ! A6    A(7,2,11)             111.8328         estimate D2E/DX2                !
 ! A7    A(5,3,7)              109.6607         estimate D2E/DX2                !
 ! A8    A(5,3,8)              108.2242         estimate D2E/DX2                !
 ! A9    A(5,3,18)             113.3766         estimate D2E/DX2                !
 ! A10   A(7,3,8)              108.4553         estimate D2E/DX2                !
 ! A11   A(7,3,18)             109.9477         estimate D2E/DX2                !
 ! A12   A(8,3,18)             107.0212         estimate D2E/DX2                !
 ! A13   A(5,4,6)              109.0229         estimate D2E/DX2                !
 ! A14   A(5,4,22)             110.4167         estimate D2E/DX2                !
 ! A15   A(5,4,23)             112.305          estimate D2E/DX2                !
 ! A16   A(6,4,22)             107.0421         estimate D2E/DX2                !
 ! A17   A(6,4,23)             108.8499         estimate D2E/DX2                !
 ! A18   A(22,4,23)            109.0527         estimate D2E/DX2                !
 ! A19   A(3,5,4)              113.1709         estimate D2E/DX2                !
 ! A20   A(3,5,9)              109.1359         estimate D2E/DX2                !
 ! A21   A(3,5,16)             110.0641         estimate D2E/DX2                !
 ! A22   A(4,5,9)              109.1051         estimate D2E/DX2                !
 ! A23   A(4,5,16)             109.69           estimate D2E/DX2                !
 ! A24   A(9,5,16)             105.3736         estimate D2E/DX2                !
 ! A25   A(2,6,4)              117.9378         estimate D2E/DX2                !
 ! A26   A(2,6,27)             109.5676         estimate D2E/DX2                !
 ! A27   A(4,6,27)              96.6954         estimate D2E/DX2                !
 ! A28   A(2,7,3)              113.2761         estimate D2E/DX2                !
 ! A29   A(2,7,10)             111.3992         estimate D2E/DX2                !
 ! A30   A(2,7,20)             108.015          estimate D2E/DX2                !
 ! A31   A(3,7,10)             109.373          estimate D2E/DX2                !
 ! A32   A(3,7,20)             107.9686         estimate D2E/DX2                !
 ! A33   A(10,7,20)            106.5182         estimate D2E/DX2                !
 ! A34   A(3,8,28)             123.4887         estimate D2E/DX2                !
 ! A35   A(3,8,30)             107.6497         estimate D2E/DX2                !
 ! A36   A(2,11,12)            110.209          estimate D2E/DX2                !
 ! A37   A(2,11,13)            111.0516         estimate D2E/DX2                !
 ! A38   A(2,11,14)            110.1331         estimate D2E/DX2                !
 ! A39   A(12,11,13)           107.4201         estimate D2E/DX2                !
 ! A40   A(12,11,14)           108.7327         estimate D2E/DX2                !
 ! A41   A(13,11,14)           109.2233         estimate D2E/DX2                !
 ! A42   A(11,14,15)           106.494          estimate D2E/DX2                !
 ! A43   A(5,16,17)            106.9926         estimate D2E/DX2                !
 ! A44   A(3,18,19)            107.8409         estimate D2E/DX2                !
 ! A45   A(7,20,21)            105.6794         estimate D2E/DX2                !
 ! A46   A(7,20,30)             83.0333         estimate D2E/DX2                !
 ! A47   A(21,20,30)           100.396          estimate D2E/DX2                !
 ! A48   A(4,23,24)            104.9989         estimate D2E/DX2                !
 ! A49   A(23,24,26)           148.9387         estimate D2E/DX2                !
 ! A50   A(24,26,25)           115.1291         estimate D2E/DX2                !
 ! A51   A(24,26,27)            86.1845         estimate D2E/DX2                !
 ! A52   A(25,26,27)           104.9209         estimate D2E/DX2                !
 ! A53   A(6,27,26)            139.8761         estimate D2E/DX2                !
 ! A54   A(8,28,29)            123.3635         estimate D2E/DX2                !
 ! A55   A(29,28,30)           104.9174         estimate D2E/DX2                !
 ! A56   A(8,30,20)             85.2482         estimate D2E/DX2                !
 ! A57   A(20,30,28)           150.3293         estimate D2E/DX2                !
 ! D1    D(1,2,6,4)            -65.4794         estimate D2E/DX2                !
 ! D2    D(1,2,6,27)            43.702          estimate D2E/DX2                !
 ! D3    D(7,2,6,4)             55.2024         estimate D2E/DX2                !
 ! D4    D(7,2,6,27)           164.3838         estimate D2E/DX2                !
 ! D5    D(11,2,6,4)           176.5541         estimate D2E/DX2                !
 ! D6    D(11,2,6,27)          -74.2645         estimate D2E/DX2                !
 ! D7    D(1,2,7,3)            120.7796         estimate D2E/DX2                !
 ! D8    D(1,2,7,10)          -115.4119         estimate D2E/DX2                !
 ! D9    D(1,2,7,20)             1.2392         estimate D2E/DX2                !
 ! D10   D(6,2,7,3)              2.3419         Frozen                          !
 ! D11   D(6,2,7,10)           126.1504         estimate D2E/DX2                !
 ! D12   D(6,2,7,20)          -117.1985         estimate D2E/DX2                !
 ! D13   D(11,2,7,3)          -116.379          estimate D2E/DX2                !
 ! D14   D(11,2,7,10)            7.4295         estimate D2E/DX2                !
 ! D15   D(11,2,7,20)          124.0806         estimate D2E/DX2                !
 ! D16   D(1,2,11,12)          -61.553          estimate D2E/DX2                !
 ! D17   D(1,2,11,13)          179.532          estimate D2E/DX2                !
 ! D18   D(1,2,11,14)           58.4101         estimate D2E/DX2                !
 ! D19   D(6,2,11,12)           55.1829         estimate D2E/DX2                !
 ! D20   D(6,2,11,13)          -63.7321         estimate D2E/DX2                !
 ! D21   D(6,2,11,14)          175.1459         estimate D2E/DX2                !
 ! D22   D(7,2,11,12)          174.6379         estimate D2E/DX2                !
 ! D23   D(7,2,11,13)           55.7228         estimate D2E/DX2                !
 ! D24   D(7,2,11,14)          -65.3991         estimate D2E/DX2                !
 ! D25   D(7,3,5,4)             52.4615         estimate D2E/DX2                !
 ! D26   D(7,3,5,9)            174.1536         estimate D2E/DX2                !
 ! D27   D(7,3,5,16)           -70.6654         estimate D2E/DX2                !
 ! D28   D(8,3,5,4)            170.5964         estimate D2E/DX2                !
 ! D29   D(8,3,5,9)            -67.7116         estimate D2E/DX2                !
 ! D30   D(8,3,5,16)            47.4695         estimate D2E/DX2                !
 ! D31   D(18,3,5,4)           -70.8447         estimate D2E/DX2                !
 ! D32   D(18,3,5,9)            50.8474         estimate D2E/DX2                !
 ! D33   D(18,3,5,16)          166.0284         estimate D2E/DX2                !
 ! D34   D(5,3,7,2)            -52.5178         estimate D2E/DX2                !
 ! D35   D(5,3,7,10)          -177.4278         estimate D2E/DX2                !
 ! D36   D(5,3,7,20)            67.0491         estimate D2E/DX2                !
 ! D37   D(8,3,7,2)           -170.509          estimate D2E/DX2                !
 ! D38   D(8,3,7,10)            64.5811         estimate D2E/DX2                !
 ! D39   D(8,3,7,20)           -50.942          estimate D2E/DX2                !
 ! D40   D(18,3,7,2)            72.7849         estimate D2E/DX2                !
 ! D41   D(18,3,7,10)          -52.125          estimate D2E/DX2                !
 ! D42   D(18,3,7,20)         -167.6481         estimate D2E/DX2                !
 ! D43   D(5,3,8,28)          -146.6292         estimate D2E/DX2                !
 ! D44   D(5,3,8,30)          -118.463          estimate D2E/DX2                !
 ! D45   D(7,3,8,28)           -27.728          estimate D2E/DX2                !
 ! D46   D(7,3,8,30)             0.4382         estimate D2E/DX2                !
 ! D47   D(18,3,8,28)           90.8465         estimate D2E/DX2                !
 ! D48   D(18,3,8,30)          119.0127         estimate D2E/DX2                !
 ! D49   D(5,3,18,19)          -39.573          estimate D2E/DX2                !
 ! D50   D(7,3,18,19)         -162.7214         estimate D2E/DX2                !
 ! D51   D(8,3,18,19)           79.678          estimate D2E/DX2                !
 ! D52   D(6,4,5,3)             -1.9149         Frozen                          !
 ! D53   D(6,4,5,9)           -123.6242         estimate D2E/DX2                !
 ! D54   D(6,4,5,16)           121.4184         estimate D2E/DX2                !
 ! D55   D(22,4,5,3)           115.4153         estimate D2E/DX2                !
 ! D56   D(22,4,5,9)            -6.294          estimate D2E/DX2                !
 ! D57   D(22,4,5,16)         -121.2513         estimate D2E/DX2                !
 ! D58   D(23,4,5,3)          -122.6341         estimate D2E/DX2                !
 ! D59   D(23,4,5,9)           115.6567         estimate D2E/DX2                !
 ! D60   D(23,4,5,16)            0.6993         estimate D2E/DX2                !
 ! D61   D(5,4,6,2)            -55.2956         estimate D2E/DX2                !
 ! D62   D(5,4,6,27)          -171.6523         estimate D2E/DX2                !
 ! D63   D(22,4,6,2)          -174.7433         estimate D2E/DX2                !
 ! D64   D(22,4,6,27)           68.9            estimate D2E/DX2                !
 ! D65   D(23,4,6,2)            67.5187         estimate D2E/DX2                !
 ! D66   D(23,4,6,27)          -48.838          estimate D2E/DX2                !
 ! D67   D(5,4,23,24)          179.9958         estimate D2E/DX2                !
 ! D68   D(6,4,23,24)           59.177          estimate D2E/DX2                !
 ! D69   D(22,4,23,24)         -57.2807         estimate D2E/DX2                !
 ! D70   D(3,5,16,17)           36.9777         estimate D2E/DX2                !
 ! D71   D(4,5,16,17)          -88.1651         estimate D2E/DX2                !
 ! D72   D(9,5,16,17)          154.5174         estimate D2E/DX2                !
 ! D73   D(2,6,27,26)         -125.6847         estimate D2E/DX2                !
 ! D74   D(4,6,27,26)           -2.8395         estimate D2E/DX2                !
 ! D75   D(2,7,20,21)          -71.5937         estimate D2E/DX2                !
 ! D76   D(2,7,20,30)         -170.4827         estimate D2E/DX2                !
 ! D77   D(3,7,20,21)          165.5653         estimate D2E/DX2                !
 ! D78   D(3,7,20,30)           66.6763         estimate D2E/DX2                !
 ! D79   D(10,7,20,21)          48.1837         estimate D2E/DX2                !
 ! D80   D(10,7,20,30)         -50.7053         estimate D2E/DX2                !
 ! D81   D(3,8,28,29)          -36.1487         estimate D2E/DX2                !
 ! D82   D(3,8,30,20)           34.7833         estimate D2E/DX2                !
 ! D83   D(2,11,14,15)        -179.9697         estimate D2E/DX2                !
 ! D84   D(12,11,14,15)        -59.1173         estimate D2E/DX2                !
 ! D85   D(13,11,14,15)         57.8213         estimate D2E/DX2                !
 ! D86   D(7,20,30,8)          -51.3474         estimate D2E/DX2                !
 ! D87   D(7,20,30,28)         -16.0485         estimate D2E/DX2                !
 ! D88   D(21,20,30,8)        -156.0849         estimate D2E/DX2                !
 ! D89   D(21,20,30,28)       -120.786          estimate D2E/DX2                !
 ! D90   D(4,23,24,26)         -24.4469         estimate D2E/DX2                !
 ! D91   D(23,24,26,25)         84.294          estimate D2E/DX2                !
 ! D92   D(23,24,26,27)        -20.4057         estimate D2E/DX2                !
 ! D93   D(24,26,27,6)          29.9433         estimate D2E/DX2                !
 ! D94   D(25,26,27,6)         -85.0607         estimate D2E/DX2                !
 ! D95   D(8,28,29,30)          87.1429         estimate D2E/DX2                !
 ! D96   D(29,28,30,20)         84.3711         estimate D2E/DX2                !
 --------------------------------------------------------------------------------
 Trust Radius=3.00D-01 FncErr=1.00D-07 GrdErr=1.00D-06
 Number of steps in this run=    180 maximum allowed number of steps=    180.
 GradGradGradGradGradGradGradGradGradGradGradGradGradGradGradGradGradGrad

                          Input orientation:                          
 ---------------------------------------------------------------------
 Center     Atomic      Atomic             Coordinates (Angstroms)
 Number     Number       Type             X           Y           Z
 ---------------------------------------------------------------------
      1          1           0        0.958278    1.209058    0.945787
      2          6           0        1.000722    0.541702    0.076533
      3          6           0       -0.649025   -1.371639   -0.362313
      4          6           0       -1.345482    1.084752   -0.636430
      5          6           0       -1.787653   -0.340188   -0.266793
      6          8           0        0.080704    1.075837   -0.941581
      7          6           0        0.558481   -0.883265    0.446104
      8          1           0       -1.001943   -2.313852    0.075367
      9          1           0       -2.605589   -0.645409   -0.929811
     10          1           0        1.382164   -1.598536    0.337508
     11          6           0        2.408026    0.563882   -0.516116
     12          1           0        2.659221    1.574174   -0.856907
     13          1           0        2.480546   -0.102257   -1.383066
     14          8           0        3.359471    0.162227    0.464813
     15          1           0        4.232404    0.195720    0.033479
     16          8           0       -2.350089   -0.345385    1.061919
     17          1           0       -1.606361   -0.487568    1.687977
     18          8           0       -0.253407   -1.656664   -1.705517
     19          1           0       -1.058486   -1.692456   -2.252498
     20          8           0        0.190804   -0.888851    1.844598
     21          1           0        1.030547   -0.804380    2.339048
     22          1           0       -1.865120    1.424086   -1.539758
     23          8           0       -1.582878    2.005717    0.404536
     24          1           0       -1.272925    2.846906    0.066824
     25          1           0       -0.601831    3.839387   -1.907023
     26          8           0       -0.248934    3.718233   -1.012317
     27          1           0        0.285931    2.900447   -1.061075
     28          8           0        0.101995   -3.495654    0.994206
     29          1           0        1.024468   -3.662509    0.749797
     30          1           0        0.135664   -2.720262    1.590801
 ---------------------------------------------------------------------
                    Distance matrix (angstroms):
                    1          2          3          4          5
     1  H    0.000000
     2  C    1.096708   0.000000
     3  C    3.309765   2.564201   0.000000
     4  C    2.797530   2.511552   2.567888   0.000000
     5  C    3.377965   2.944595   1.539314   1.537075   0.000000
     6  O    2.085675   1.472511   2.618815   1.458493   2.439513
     7  C    2.187998   1.537105   1.533009   2.944494   2.511474
     8  H    4.124438   3.487816   1.097215   3.489296   2.151688
     9  H    4.433742   3.927778   2.162778   2.160416   1.096254
    10  H    2.903837   2.189572   2.160315   3.948245   3.463576
    11  C    2.157587   1.527164   3.621527   3.791385   4.299212
    12  H    2.505239   2.165162   4.457233   4.040519   4.877264
    13  H    3.075777   2.176004   3.528099   4.074917   4.418167
    14  O    2.663253   2.420425   4.370918   4.919387   5.223079
    15  H    3.546697   3.250435   5.142141   5.687879   6.051318
    16  O    3.657195   3.603588   2.444433   2.436989   1.442857
    17  H    3.163346   3.233115   2.429354   2.818353   1.968683
    18  O    4.087781   3.095376   1.428968   3.138620   2.481320
    19  H    4.766041   3.828340   1.960454   3.225977   2.510645
    20  O    2.407924   2.414229   2.410156   3.522894   2.945046
    21  H    2.449557   2.632831   3.231114   4.250624   3.866282
    22  H    3.767724   3.406472   3.268232   1.095980   2.176948
    23  O    2.717553   2.987627   3.587014   1.410015   2.448650
    24  H    2.904030   3.237828   4.285969   1.898688   3.245584
    25  H    4.182236   4.168621   5.435361   3.123370   4.643854
    26  O    3.404040   3.582957   5.146783   2.877313   4.403889
    27  H    2.709307   2.714546   4.428672   2.477616   3.928403
    28  O    4.782246   4.236753   2.629756   5.072897   3.888168
    29  H    4.875957   4.257844   3.047204   5.484047   4.469820
    30  H    4.065992   3.698884   2.499834   4.651073   3.579742
                    6          7          8          9         10
     6  O    0.000000
     7  C    2.447861   0.000000
     8  H    3.700851   2.149174   0.000000
     9  H    3.190454   3.458476   2.523047   0.000000
    10  H    3.237613   1.096293   2.502871   4.291471   0.000000
    11  C    2.420650   2.537896   4.501010   5.173960   2.541086
    12  H    2.627596   3.485678   5.421255   5.714026   3.622650
    13  H    2.709623   2.765894   4.375604   5.135097   2.530942
    14  O    3.682790   2.989807   5.030365   6.178931   2.650705
    15  H    4.354533   3.851257   5.805006   6.956549   3.381665
    16  O    3.455812   3.021311   2.581791   2.030341   4.003108
    17  H    3.493565   2.526928   2.510208   2.806454   3.462557
    18  O    2.856885   2.426269   2.040527   2.675279   2.617713
    19  H    3.267982   3.248357   2.410038   2.288960   3.560017
    20  O    3.410999   1.446030   2.565824   3.946698   2.048002
    21  H    3.898711   1.952513   3.396141   4.892054   2.181853
    22  H    2.065266   3.891190   4.162437   2.281039   4.817180
    23  O    2.333284   3.596299   4.370871   3.139250   4.667613
    24  H    2.446605   4.172778   5.167875   3.868532   5.185048
    25  H    3.005852   5.402497   6.477061   5.008332   6.208475
    26  O    2.663817   4.894149   6.175445   4.960040   5.722809
    27  H    1.840000   4.081954   5.489903   4.577250   4.837211
    28  O    4.964500   2.708020   1.860000   4.376842   2.380996
    29  H    5.118923   2.834355   2.525880   5.010118   2.134927
    30  H    4.563589   2.205371   1.938003   4.262976   2.093508
                   11         12         13         14         15
    11  C    0.000000
    12  H    1.095412   0.000000
    13  H    1.095720   1.766123   0.000000
    14  O    1.424358   2.056912   2.063278   0.000000
    15  H    1.940606   2.273286   2.272531   0.974260   0.000000
    16  O    5.094764   5.697349   5.419603   5.763096   6.684287
    17  H    4.698816   5.377955   5.126654   5.155371   6.106998
    18  O    3.664522   4.431913   3.161432   4.590380   5.155379
    19  H    4.485843   5.141973   3.976103   5.508355   6.065016
    20  O    3.549574   4.411089   4.034782   3.612343   4.559712
    21  H    3.452760   4.303978   4.055811   3.141810   4.070348
    22  H    4.477451   4.578043   4.608589   5.736457   6.415899
    23  O    4.342097   4.446670   4.914315   5.275311   6.101744
    24  H    4.370517   4.234961   4.988816   5.368891   6.110528
    25  H    4.660772   4.107115   5.031117   5.902459   6.357019
    26  O    4.153984   3.616422   4.709953   5.277090   5.795186
    27  H    3.203093   2.726388   3.733129   4.390084   4.907978
    28  O    4.907004   5.972368   4.777455   4.926612   5.622235
    29  H    4.623759   5.716359   4.398257   4.490218   5.068520
    30  H    4.515344   5.549936   4.603944   4.468727   5.264170
                   16         17         18         19         20
    16  O    0.000000
    17  H    0.982495   0.000000
    18  O    3.711365   3.835762   0.000000
    19  H    3.803709   4.156834   0.973972   0.000000
    20  O    2.713684   1.848069   3.659259   4.358062   0.000000
    21  H    3.642861   2.734510   4.328213   5.122014   0.978154
    22  H    3.183543   3.760273   3.480821   3.297194   4.585888
    23  O    2.558993   2.804326   4.430897   4.583808   3.687581
    24  H    3.513007   3.722638   4.945983   5.102063   4.388492
    25  H    5.420641   5.714512   5.510770   5.561401   6.087624
    26  O    5.022977   5.179088   5.419415   5.609721   5.438801
    27  H    4.689470   4.755702   4.633946   4.931704   4.776062
    28  O    3.992680   3.528226   3.285833   3.890929   2.743442
    29  H    4.742190   4.228675   3.418325   4.151334   3.096250
    30  H    3.478322   2.833552   3.485445   4.153712   1.849735
                   21         22         23         24         25
    21  H    0.000000
    22  H    5.328798   0.000000
    23  O    4.297554   2.048959   0.000000
    24  H    4.878614   2.226256   0.957977   0.000000
    25  H    6.500643   2.750357   3.109358   2.308995   0.000000
    26  O    5.772586   2.855409   2.592217   1.724040   0.969388
    27  H    5.083408   2.652508   2.537913   1.924852   1.544460
    28  O    3.148613   5.873190   5.783735   6.555800   7.919301
    29  H    3.270269   6.282135   6.248699   6.936638   8.122930
    30  H    2.243055   5.565892   5.166767   5.941379   7.470453
                   26         27         28         29         30
    26  O    0.000000
    27  H    0.978382   0.000000
    28  O    7.495962   6.720724   0.000000
    29  H    7.694280   6.848145   0.968779   0.000000
    30  H    6.955455   6.216703   0.978923   1.544374   0.000000
 Stoichiometry    C6H16O8
 Framework group  C1[X(C6H16O8)]
 Deg. of freedom    84
 Full point group                 C1      NOp   1
 Largest Abelian subgroup         C1      NOp   1
 Largest concise Abelian subgroup C1      NOp   1
                         Standard orientation:                         
 ---------------------------------------------------------------------
 Center     Atomic      Atomic             Coordinates (Angstroms)
 Number     Number       Type             X           Y           Z
 ---------------------------------------------------------------------
      1          1           0        0.753125    1.081033   -1.229919
      2          6           0        0.335838    1.062317   -0.215873
      3          6           0       -1.143516   -0.817834    0.706987
      4          6           0        1.372653   -1.160295    0.325332
      5          6           0       -0.021771   -1.806750    0.341990
      6          8           0        1.241295    0.261097    0.624653
      7          6           0       -1.058585    0.415791   -0.199144
      8          1           0       -2.107243   -1.312085    0.531409
      9          1           0       -0.024834   -2.634764    1.060430
     10          1           0       -1.830287    1.136815    0.094897
     11          6           0        0.311645    2.479501    0.352662
     12          1           0        1.329613    2.878961    0.416694
     13          1           0       -0.109344    2.490643    1.364218
     14          8           0       -0.462063    3.331339   -0.486710
     15          1           0       -0.441645    4.215374   -0.077751
     16          8           0       -0.292632   -2.411425   -0.939742
     17          1           0       -0.696749   -1.716976   -1.505185
     18          8           0       -1.122423   -0.417618    2.078603
     19          1           0       -0.900163   -1.200040    2.614361
     20          8           0       -1.375587    0.001374   -1.547763
     21          1           0       -1.542604    0.826659   -2.045552
     22          1           0        2.005424   -1.596002    1.106955
     23          8           0        2.015137   -1.305846   -0.921332
     24          1           0        2.862462   -0.871546   -0.815769
     25          1           0        4.228699   -0.000852    0.829451
     26          8           0        3.830198    0.300056   -0.001431
     27          1           0        2.985972    0.718981    0.261274
     28          8           0       -3.631542   -0.414190   -0.042955
     29          1           0       -3.858127    0.484738    0.238326
     30          1           0       -3.050933   -0.295611   -0.822136
 ---------------------------------------------------------------------
 Rotational constants (GHZ):      0.7328079      0.5611413      0.4095077
 Standard basis: 6-31G(d) (6D, 7F)
 There are   242 symmetry adapted cartesian basis functions of A   symmetry.
 There are   242 symmetry adapted basis functions of A   symmetry.
   242 basis functions,   456 primitive gaussians,   242 cartesian basis functions
    58 alpha electrons       58 beta electrons
       nuclear repulsion energy      1130.6564088224 Hartrees.
 NAtoms=   30 NActive=   30 NUniq=   30 SFac= 1.00D+00 NAtFMM=   60 NAOKFM=F Big=F
 Integral buffers will be    131072 words long.
 Raffenetti 2 integral format.
 Two-electron integral symmetry is turned on.
 One-electron integrals computed using PRISM.
 NBasis=   242 RedAO= T EigKep=  1.32D-03  NBF=   242
 NBsUse=   242 1.00D-06 EigRej= -1.00D+00 NBFU=   242
 ExpMin= 1.61D-01 ExpMax= 5.48D+03 ExpMxC= 8.25D+02 IAcc=1 IRadAn=         1 AccDes= 0.00D+00
 Harris functional with IExCor=  402 and IRadAn=       1 diagonalized for initial guess.
 HarFok:  IExCor=  402 AccDes= 0.00D+00 IRadAn=         1 IDoV= 1 UseB2=F ITyADJ=14
 ICtDFT=  3500011 ScaDFX=  1.000000  1.000000  1.000000  1.000000
 FoFCou: FMM=F IPFlag=           0 FMFlag=      100000 FMFlg1=           0
         NFxFlg=           0 DoJE=T BraDBF=F KetDBF=T FulRan=T
         wScrn=  0.000000 ICntrl=     500 IOpCl=  0 I1Cent=   200000004 NGrid=           0
         NMat0=    1 NMatS0=      1 NMatT0=    0 NMatD0=    1 NMtDS0=    0 NMtDT0=    0
 Petite list used in FoFCou.
 Requested convergence on RMS density matrix=1.00D-08 within 128 cycles.
 Requested convergence on MAX density matrix=1.00D-06.
 Requested convergence on             energy=1.00D-06.
 No special actions if energy rises.
 Integral accuracy reduced to 1.0D-05 until final iterations.
 Initial convergence to 1.0D-05 achieved.  Increase integral accuracy.
 SCF Done:  E(RB3LYP) =  -839.938207801     A.U. after   14 cycles
            NFock= 14  Conv=0.37D-08     -V/T= 2.0083

 **********************************************************************

            Population analysis using the SCF density.

 **********************************************************************

 Orbital symmetries:
       Occupied  (A) (A) (A) (A) (A) (A) (A) (A) (A) (A) (A) (A)
                 (A) (A) (A) (A) (A) (A) (A) (A) (A) (A) (A) (A)
                 (A) (A) (A) (A) (A) (A) (A) (A) (A) (A) (A) (A)
                 (A) (A) (A) (A) (A) (A) (A) (A) (A) (A) (A) (A)
                 (A) (A) (A) (A) (A) (A) (A) (A) (A) (A)
       Virtual   (A) (A) (A) (A) (A) (A) (A) (A) (A) (A) (A) (A)
                 (A) (A) (A) (A) (A) (A) (A) (A) (A) (A) (A) (A)
                 (A) (A) (A) (A) (A) (A) (A) (A) (A) (A) (A) (A)
                 (A) (A) (A) (A) (A) (A) (A) (A) (A) (A) (A) (A)
                 (A) (A) (A) (A) (A) (A) (A) (A) (A) (A) (A) (A)
                 (A) (A) (A) (A) (A) (A) (A) (A) (A) (A) (A) (A)
                 (A) (A) (A) (A) (A) (A) (A) (A) (A) (A) (A) (A)
                 (A) (A) (A) (A) (A) (A) (A) (A) (A) (A) (A) (A)
                 (A) (A) (A) (A) (A) (A) (A) (A) (A) (A) (A) (A)
                 (A) (A) (A) (A) (A) (A) (A) (A) (A) (A) (A) (A)
                 (A) (A) (A) (A) (A) (A) (A) (A) (A) (A) (A) (A)
                 (A) (A) (A) (A) (A) (A) (A) (A) (A) (A) (A) (A)
                 (A) (A) (A) (A) (A) (A) (A) (A) (A) (A) (A) (A)
                 (A) (A) (A) (A) (A) (A) (A) (A) (A) (A) (A) (A)
                 (A) (A) (A) (A) (A) (A) (A) (A) (A) (A) (A) (A)
                 (A) (A) (A) (A)
 The electronic state is 1-A.
 Alpha  occ. eigenvalues --  -19.19400 -19.16839 -19.16237 -19.15124 -19.14705
 Alpha  occ. eigenvalues --  -19.13201 -19.11959 -19.11749 -10.28064 -10.25711
 Alpha  occ. eigenvalues --  -10.25492 -10.24926 -10.23104 -10.22931  -1.06988
 Alpha  occ. eigenvalues --   -1.05369  -1.03904  -1.01870  -1.00938  -0.99622
 Alpha  occ. eigenvalues --   -0.99095  -0.97691  -0.78920  -0.76112  -0.70022
 Alpha  occ. eigenvalues --   -0.64119  -0.62878  -0.56518  -0.56076  -0.54841
 Alpha  occ. eigenvalues --   -0.53474  -0.53132  -0.51312  -0.50856  -0.49247
 Alpha  occ. eigenvalues --   -0.48294  -0.46439  -0.44421  -0.43408  -0.42608
 Alpha  occ. eigenvalues --   -0.41639  -0.40510  -0.39979  -0.37882  -0.37416
 Alpha  occ. eigenvalues --   -0.36851  -0.36013  -0.35658  -0.33939  -0.30923
 Alpha  occ. eigenvalues --   -0.30473  -0.29372  -0.28932  -0.28674  -0.27942
 Alpha  occ. eigenvalues --   -0.26725  -0.25667  -0.23916
 Alpha virt. eigenvalues --    0.02318   0.04798   0.05195   0.06556   0.08390
 Alpha virt. eigenvalues --    0.09176   0.11143   0.11986   0.13559   0.14241
 Alpha virt. eigenvalues --    0.16115   0.16649   0.18291   0.18670   0.19423
 Alpha virt. eigenvalues --    0.20735   0.21142   0.22169   0.22728   0.23480
 Alpha virt. eigenvalues --    0.24697   0.25236   0.25918   0.27100   0.28360
 Alpha virt. eigenvalues --    0.32393   0.33984   0.35890   0.52417   0.53215
 Alpha virt. eigenvalues --    0.53922   0.55536   0.56028   0.57974   0.60617
 Alpha virt. eigenvalues --    0.61030   0.62352   0.62810   0.64586   0.67542
 Alpha virt. eigenvalues --    0.68066   0.69290   0.72148   0.74387   0.75844
 Alpha virt. eigenvalues --    0.76432   0.77697   0.79469   0.80297   0.80816
 Alpha virt. eigenvalues --    0.82490   0.83259   0.84457   0.85071   0.85968
 Alpha virt. eigenvalues --    0.86164   0.86747   0.88240   0.89095   0.89290
 Alpha virt. eigenvalues --    0.90736   0.91459   0.94229   0.94402   0.95108
 Alpha virt. eigenvalues --    0.95513   0.97327   0.98150   1.02488   1.02774
 Alpha virt. eigenvalues --    1.04797   1.05760   1.06870   1.08356   1.10097
 Alpha virt. eigenvalues --    1.11292   1.12052   1.13718   1.14854   1.15752
 Alpha virt. eigenvalues --    1.17598   1.19335   1.19833   1.23387   1.26098
 Alpha virt. eigenvalues --    1.27656   1.31311   1.34237   1.34735   1.36256
 Alpha virt. eigenvalues --    1.37673   1.39650   1.42482   1.45535   1.46182
 Alpha virt. eigenvalues --    1.51066   1.52229   1.55904   1.60047   1.60509
 Alpha virt. eigenvalues --    1.63769   1.66163   1.66803   1.68202   1.70711
 Alpha virt. eigenvalues --    1.71473   1.71682   1.73014   1.73712   1.75321
 Alpha virt. eigenvalues --    1.75680   1.77652   1.78033   1.80386   1.80937
 Alpha virt. eigenvalues --    1.82927   1.85390   1.86226   1.86793   1.88138
 Alpha virt. eigenvalues --    1.89018   1.89708   1.93596   1.95219   1.96568
 Alpha virt. eigenvalues --    1.98659   2.00578   2.02768   2.03978   2.04835
 Alpha virt. eigenvalues --    2.05959   2.09499   2.12316   2.13402   2.15511
 Alpha virt. eigenvalues --    2.21016   2.22500   2.23878   2.26781   2.30195
 Alpha virt. eigenvalues --    2.31462   2.33364   2.36818   2.37453   2.41951
 Alpha virt. eigenvalues --    2.42603   2.44114   2.45485   2.46601   2.50592
 Alpha virt. eigenvalues --    2.52980   2.53272   2.56828   2.58896   2.59993
 Alpha virt. eigenvalues --    2.61387   2.63023   2.65088   2.66567   2.68882
 Alpha virt. eigenvalues --    2.77207   2.79993   2.81076   2.86466   2.88701
 Alpha virt. eigenvalues --    2.91497   2.97461   2.98476   3.03798   3.17917
 Alpha virt. eigenvalues --    3.70549   3.73572   3.75824   3.79135   3.84916
 Alpha virt. eigenvalues --    4.02760   4.10134   4.19279   4.27156   4.37141
 Alpha virt. eigenvalues --    4.48162   4.58031   4.75799   4.89780
          Condensed to atoms (all electrons):
               1          2          3          4          5          6
     1  H    0.594600   0.365885   0.000860  -0.002663  -0.000550  -0.036808
     2  C    0.365885   4.949353  -0.042633  -0.010897  -0.024878   0.178264
     3  C    0.000860  -0.042633   5.021275  -0.028463   0.263873  -0.007426
     4  C   -0.002663  -0.010897  -0.028463   4.772278   0.246139   0.170196
     5  C   -0.000550  -0.024878   0.263873   0.246139   5.066568  -0.024000
     6  O   -0.036808   0.178264  -0.007426   0.170196  -0.024000   8.417851
     7  C   -0.063248   0.258789   0.307607  -0.026352  -0.002416  -0.034498
     8  H   -0.000120   0.004250   0.380332   0.006676  -0.051671   0.000283
     9  H    0.000017   0.000383  -0.046240  -0.061690   0.372923   0.003669
    10  H    0.004646  -0.048088  -0.044560  -0.000117   0.006501   0.002836
    11  C   -0.046515   0.337494  -0.000276   0.002505   0.000444  -0.025894
    12  H   -0.007246  -0.033376   0.000012  -0.000011  -0.000043   0.001156
    13  H    0.006148  -0.030324   0.000039  -0.000072   0.000017   0.003641
    14  O    0.004757  -0.043108   0.000359  -0.000018  -0.000008   0.000762
    15  H   -0.000189   0.005661  -0.000010   0.000001   0.000000  -0.000071
    16  O    0.000157   0.000433  -0.026395  -0.052921   0.259270   0.000687
    17  H    0.000323   0.000671  -0.007013  -0.000260  -0.037666   0.000083
    18  O   -0.000012   0.006059   0.204649   0.006836  -0.033795  -0.004167
    19  H    0.000015  -0.000166  -0.029204  -0.000785  -0.005601   0.000935
    20  O    0.001832  -0.033890  -0.029594   0.000951   0.000311   0.001207
    21  H    0.002588  -0.000943   0.005661  -0.000088  -0.000135  -0.000036
    22  H    0.000269   0.006023   0.002137   0.367847  -0.049057  -0.049178
    23  O    0.012714   0.001823   0.000115   0.277646  -0.043547  -0.066751
    24  H   -0.000520  -0.000082  -0.000063  -0.023857   0.005084   0.003996
    25  H   -0.000020  -0.000062  -0.000000   0.001037   0.000065   0.001037
    26  O    0.000718   0.001159   0.000006   0.012959   0.000235  -0.028022
    27  H   -0.001294  -0.002378   0.000058  -0.006698   0.000585   0.056305
    28  O    0.000001   0.001271  -0.047876  -0.000038   0.002239  -0.000002
    29  H    0.000001   0.000152   0.002917   0.000005  -0.000122   0.000000
    30  H   -0.000047   0.000958   0.003061   0.000065  -0.001596  -0.000024
               7          8          9         10         11         12
     1  H   -0.063248  -0.000120   0.000017   0.004646  -0.046515  -0.007246
     2  C    0.258789   0.004250   0.000383  -0.048088   0.337494  -0.033376
     3  C    0.307607   0.380332  -0.046240  -0.044560  -0.000276   0.000012
     4  C   -0.026352   0.006676  -0.061690  -0.000117   0.002505  -0.000011
     5  C   -0.002416  -0.051671   0.372923   0.006501   0.000444  -0.000043
     6  O   -0.034498   0.000283   0.003669   0.002836  -0.025894   0.001156
     7  C    5.189724  -0.060267   0.006471   0.353022  -0.018341   0.006524
     8  H   -0.060267   0.526583  -0.007236  -0.005419  -0.000157   0.000004
     9  H    0.006471  -0.007236   0.635951  -0.000171   0.000007  -0.000001
    10  H    0.353022  -0.005419  -0.000171   0.618405  -0.005669   0.000664
    11  C   -0.018341  -0.000157   0.000007  -0.005669   4.910842   0.358227
    12  H    0.006524   0.000004  -0.000001   0.000664   0.358227   0.627721
    13  H   -0.012596   0.000019  -0.000001   0.000956   0.357796  -0.051350
    14  O    0.002327   0.000002  -0.000000   0.008272   0.220782  -0.037359
    15  H   -0.000066  -0.000000  -0.000000  -0.000309  -0.021609  -0.004035
    16  O    0.000273   0.007020  -0.038502  -0.000192  -0.000001  -0.000000
    17  H   -0.005282  -0.000008   0.005522   0.000511   0.000009   0.000001
    18  O   -0.042619  -0.030273  -0.002543   0.000937  -0.001427   0.000018
    19  H    0.006814  -0.001152   0.008042  -0.000278   0.000038  -0.000003
    20  O    0.137990   0.002069  -0.000101  -0.041031   0.002490  -0.000121
    21  H   -0.018490  -0.000175   0.000017  -0.006229  -0.000802   0.000004
    22  H    0.000052  -0.000181  -0.003848   0.000020  -0.000117   0.000002
    23  O   -0.001022  -0.000048   0.001988  -0.000006   0.000182  -0.000003
    24  H    0.000050   0.000005  -0.000213  -0.000001  -0.000050  -0.000006
    25  H   -0.000001  -0.000000  -0.000003  -0.000000   0.000015  -0.000006
    26  O   -0.000043   0.000000   0.000004   0.000000  -0.000174  -0.000004
    27  H    0.000707   0.000001  -0.000041  -0.000012  -0.000797   0.003176
    28  O    0.011106   0.022241   0.000015   0.013818  -0.000027  -0.000000
    29  H   -0.000579  -0.001164  -0.000001   0.004744  -0.000028  -0.000000
    30  H   -0.011533  -0.005565  -0.000038  -0.005864  -0.000079   0.000001
              13         14         15         16         17         18
     1  H    0.006148   0.004757  -0.000189   0.000157   0.000323  -0.000012
     2  C   -0.030324  -0.043108   0.005661   0.000433   0.000671   0.006059
     3  C    0.000039   0.000359  -0.000010  -0.026395  -0.007013   0.204649
     4  C   -0.000072  -0.000018   0.000001  -0.052921  -0.000260   0.006836
     5  C    0.000017  -0.000008   0.000000   0.259270  -0.037666  -0.033795
     6  O    0.003641   0.000762  -0.000071   0.000687   0.000083  -0.004167
     7  C   -0.012596   0.002327  -0.000066   0.000273  -0.005282  -0.042619
     8  H    0.000019   0.000002  -0.000000   0.007020  -0.000008  -0.030273
     9  H   -0.000001  -0.000000  -0.000000  -0.038502   0.005522  -0.002543
    10  H    0.000956   0.008272  -0.000309  -0.000192   0.000511   0.000937
    11  C    0.357796   0.220782  -0.021609  -0.000001   0.000009  -0.001427
    12  H   -0.051350  -0.037359  -0.004035  -0.000000   0.000001   0.000018
    13  H    0.610770  -0.039076  -0.004204  -0.000000   0.000000   0.003095
    14  O   -0.039076   8.278610   0.239006   0.000000  -0.000000   0.000002
    15  H   -0.004204   0.239006   0.379381   0.000000   0.000000   0.000000
    16  O   -0.000000   0.000000   0.000000   8.269439   0.238379   0.001554
    17  H    0.000000  -0.000000   0.000000   0.238379   0.337745   0.000073
    18  O    0.003095   0.000002   0.000000   0.001554   0.000073   8.300159
    19  H   -0.000041  -0.000000  -0.000000   0.000037   0.000033   0.237248
    20  O    0.000079  -0.000458   0.000016  -0.015782   0.036709   0.000885
    21  H    0.000083   0.002349  -0.000064   0.000720  -0.000479  -0.000062
    22  H   -0.000005   0.000000  -0.000000   0.003486  -0.000034   0.000074
    23  O    0.000002   0.000000  -0.000000  -0.004937   0.002900   0.000002
    24  H    0.000000  -0.000000  -0.000000   0.000286  -0.000059   0.000003
    25  H    0.000000   0.000000  -0.000000   0.000000  -0.000000  -0.000000
    26  O    0.000007   0.000000   0.000000  -0.000001   0.000001  -0.000000
    27  H   -0.000109  -0.000001  -0.000002  -0.000020  -0.000001   0.000010
    28  O   -0.000004   0.000001  -0.000000  -0.000077   0.000012   0.000831
    29  H    0.000010  -0.000016   0.000000  -0.000002   0.000001  -0.000121
    30  H   -0.000001   0.000000  -0.000000   0.000240   0.000373   0.000206
              19         20         21         22         23         24
     1  H    0.000015   0.001832   0.002588   0.000269   0.012714  -0.000520
     2  C   -0.000166  -0.033890  -0.000943   0.006023   0.001823  -0.000082
     3  C   -0.029204  -0.029594   0.005661   0.002137   0.000115  -0.000063
     4  C   -0.000785   0.000951  -0.000088   0.367847   0.277646  -0.023857
     5  C   -0.005601   0.000311  -0.000135  -0.049057  -0.043547   0.005084
     6  O    0.000935   0.001207  -0.000036  -0.049178  -0.066751   0.003996
     7  C    0.006814   0.137990  -0.018490   0.000052  -0.001022   0.000050
     8  H   -0.001152   0.002069  -0.000175  -0.000181  -0.000048   0.000005
     9  H    0.008042  -0.000101   0.000017  -0.003848   0.001988  -0.000213
    10  H   -0.000278  -0.041031  -0.006229   0.000020  -0.000006  -0.000001
    11  C    0.000038   0.002490  -0.000802  -0.000117   0.000182  -0.000050
    12  H   -0.000003  -0.000121   0.000004   0.000002  -0.000003  -0.000006
    13  H   -0.000041   0.000079   0.000083  -0.000005   0.000002   0.000000
    14  O   -0.000000  -0.000458   0.002349   0.000000   0.000000  -0.000000
    15  H   -0.000000   0.000016  -0.000064  -0.000000  -0.000000  -0.000000
    16  O    0.000037  -0.015782   0.000720   0.003486  -0.004937   0.000286
    17  H    0.000033   0.036709  -0.000479  -0.000034   0.002900  -0.000059
    18  O    0.237248   0.000885  -0.000062   0.000074   0.000002   0.000003
    19  H    0.388582  -0.000087   0.000007   0.000002   0.000009  -0.000001
    20  O   -0.000087   8.325589   0.231419   0.000002  -0.000083  -0.000000
    21  H    0.000007   0.231419   0.363140  -0.000001  -0.000005  -0.000001
    22  H    0.000002   0.000002  -0.000001   0.651079  -0.046122  -0.003646
    23  O    0.000009  -0.000083  -0.000005  -0.046122   8.314133   0.217727
    24  H   -0.000001  -0.000000  -0.000001  -0.003646   0.217727   0.317908
    25  H   -0.000000  -0.000000  -0.000000   0.001173   0.001741  -0.004272
    26  O    0.000000   0.000000  -0.000000   0.002891  -0.038312   0.068676
    27  H   -0.000002  -0.000012   0.000000  -0.001825   0.006408  -0.009999
    28  O   -0.000013  -0.022694   0.000850   0.000000   0.000000  -0.000000
    29  H   -0.000006   0.000352   0.000037  -0.000000  -0.000000   0.000000
    30  H   -0.000029   0.053245  -0.000642  -0.000000  -0.000001   0.000000
              25         26         27         28         29         30
     1  H   -0.000020   0.000718  -0.001294   0.000001   0.000001  -0.000047
     2  C   -0.000062   0.001159  -0.002378   0.001271   0.000152   0.000958
     3  C   -0.000000   0.000006   0.000058  -0.047876   0.002917   0.003061
     4  C    0.001037   0.012959  -0.006698  -0.000038   0.000005   0.000065
     5  C    0.000065   0.000235   0.000585   0.002239  -0.000122  -0.001596
     6  O    0.001037  -0.028022   0.056305  -0.000002   0.000000  -0.000024
     7  C   -0.000001  -0.000043   0.000707   0.011106  -0.000579  -0.011533
     8  H   -0.000000   0.000000   0.000001   0.022241  -0.001164  -0.005565
     9  H   -0.000003   0.000004  -0.000041   0.000015  -0.000001  -0.000038
    10  H   -0.000000   0.000000  -0.000012   0.013818   0.004744  -0.005864
    11  C    0.000015  -0.000174  -0.000797  -0.000027  -0.000028  -0.000079
    12  H   -0.000006  -0.000004   0.003176  -0.000000  -0.000000   0.000001
    13  H    0.000000   0.000007  -0.000109  -0.000004   0.000010  -0.000001
    14  O    0.000000   0.000000  -0.000001   0.000001  -0.000016   0.000000
    15  H   -0.000000   0.000000  -0.000002  -0.000000   0.000000  -0.000000
    16  O    0.000000  -0.000001  -0.000020  -0.000077  -0.000002   0.000240
    17  H   -0.000000   0.000001  -0.000001   0.000012   0.000001   0.000373
    18  O   -0.000000  -0.000000   0.000010   0.000831  -0.000121   0.000206
    19  H   -0.000000   0.000000  -0.000002  -0.000013  -0.000006  -0.000029
    20  O   -0.000000   0.000000  -0.000012  -0.022694   0.000352   0.053245
    21  H   -0.000000  -0.000000   0.000000   0.000850   0.000037  -0.000642
    22  H    0.001173   0.002891  -0.001825   0.000000  -0.000000  -0.000000
    23  O    0.001741  -0.038312   0.006408   0.000000  -0.000000  -0.000001
    24  H   -0.004272   0.068676  -0.009999  -0.000000   0.000000   0.000000
    25  H    0.375744   0.242434  -0.015522  -0.000000  -0.000000   0.000000
    26  O    0.242434   8.333653   0.206575  -0.000000   0.000000  -0.000000
    27  H   -0.015522   0.206575   0.341739   0.000000  -0.000000   0.000000
    28  O   -0.000000  -0.000000   0.000000   8.354961   0.238302   0.208733
    29  H   -0.000000   0.000000  -0.000000   0.238302   0.386912  -0.019079
    30  H    0.000000  -0.000000   0.000000   0.208733  -0.019079   0.369378
 Mulliken charges:
               1
     1  H    0.163702
     2  C    0.152198
     3  C    0.116794
     4  C    0.349789
     5  C    0.050831
     6  O   -0.566030
     7  C    0.015898
     8  H    0.213950
     9  H    0.125619
    10  H    0.142615
    11  C   -0.068867
    12  H    0.136054
    13  H    0.155122
    14  O   -0.637185
    15  H    0.406491
    16  O   -0.643150
    17  H    0.427459
    18  O   -0.647622
    19  H    0.395606
    20  O   -0.651292
    21  H    0.421276
    22  H    0.118956
    23  O   -0.636551
    24  H    0.429032
    25  H    0.396639
    26  O   -0.802761
    27  H    0.423148
    28  O   -0.783648
    29  H    0.387687
    30  H    0.408238
 Sum of Mulliken charges =  -0.00000
 Mulliken charges with hydrogens summed into heavy atoms:
               1
     2  C    0.315900
     3  C    0.330744
     4  C    0.468745
     5  C    0.176450
     6  O   -0.566030
     7  C    0.158514
    11  C    0.222309
    14  O   -0.230694
    16  O   -0.215692
    18  O   -0.252016
    20  O   -0.230015
    23  O   -0.207518
    26  O    0.017026
    28  O    0.012278
 Electronic spatial extent (au):  <R**2>=           2972.7676
 Charge=             -0.0000 electrons
 Dipole moment (field-independent basis, Debye):
    X=              0.1945    Y=              4.9642    Z=              2.7208  Tot=              5.6643
 Quadrupole moment (field-independent basis, Debye-Ang):
   XX=            -86.8806   YY=            -77.8620   ZZ=            -80.2869
   XY=             -7.1665   XZ=             10.9125   YZ=             -7.5182
 Traceless Quadrupole moment (field-independent basis, Debye-Ang):
   XX=             -5.2041   YY=              3.8145   ZZ=              1.3896
   XY=             -7.1665   XZ=             10.9125   YZ=             -7.5182
 Octapole moment (field-independent basis, Debye-Ang**2):
  XXX=             28.4826  YYY=             75.9467  ZZZ=             -5.2797  XYY=             -3.2346
  XXY=             18.8430  XXZ=             21.9571  XZZ=             -2.7525  YZZ=             -5.7851
  YYZ=             33.4367  XYZ=             -1.4821
 Hexadecapole moment (field-independent basis, Debye-Ang**3):
 XXXX=          -1759.8874 YYYY=          -1051.8525 ZZZZ=           -413.1650 XXXY=           -167.0754
 XXXZ=            119.7767 YYYX=            -11.3338 YYYZ=              3.8446 ZZZX=             25.9957
 ZZZY=            -39.7819 XXYY=           -496.7451 XXZZ=           -328.2906 YYZZ=           -282.4467
 XXYZ=             -6.7100 YYXZ=              2.5422 ZZXY=              3.7753
 N-N= 1.130656408822D+03 E-N=-4.234200867935D+03  KE= 8.329900417057D+02
 Calling FoFJK, ICntrl=      2127 FMM=F ISym2X=0 I1Cent= 0 IOpClX= 0 NMat=1 NMatS=1 NMatT=0.
 ***** Axes restored to original set *****
 -------------------------------------------------------------------
 Center     Atomic                   Forces (Hartrees/Bohr)
 Number     Number              X              Y              Z
 -------------------------------------------------------------------
      1        1          -0.000212441   -0.004059496    0.001977597
      2        6          -0.017878216    0.002532032   -0.018151748
      3        6          -0.021683352    0.001080403   -0.005570137
      4        6           0.012600182    0.016199815    0.022260543
      5        6          -0.010875828    0.002447271    0.027657417
      6        8           0.018287705    0.002119812   -0.006835243
      7        6           0.009546746    0.005609906   -0.000860784
      8        1          -0.001949362    0.013217199   -0.001707827
      9        1          -0.000353717   -0.000435551   -0.001009012
     10        1           0.000188699    0.005503513   -0.007096625
     11        6           0.006091707    0.005820432   -0.010621955
     12        1          -0.004309120    0.004203533   -0.002376961
     13        1          -0.006629483   -0.001010949   -0.002889301
     14        8          -0.001285873   -0.002598511    0.006246257
     15        1          -0.004904773   -0.001111434    0.003877368
     16        8           0.005700244   -0.012719276   -0.009067178
     17        1          -0.008760079    0.006373535   -0.005270805
     18        8           0.006947274    0.006559575   -0.001421805
     19        1           0.003694282   -0.000809885    0.004576374
     20        8           0.007947236   -0.011044984    0.006957157
     21        1          -0.007508062    0.003698929    0.000234413
     22        1           0.010586256   -0.000733428   -0.006911252
     23        8          -0.011836662   -0.040433093    0.004684110
     24        1           0.004691677    0.020206776   -0.009964318
     25        1           0.000917665   -0.000175743    0.000181939
     26        8           0.005986393    0.015361388   -0.003076156
     27        1          -0.002449264   -0.002879177   -0.004174006
     28        8           0.008856973   -0.022129847    0.015245786
     29        1          -0.000841943   -0.002838601    0.001254534
     30        1          -0.000564860   -0.007954145    0.001851622
 -------------------------------------------------------------------
 Cartesian Forces:  Max     0.040433093 RMS     0.009807049

 GradGradGradGradGradGradGradGradGradGradGradGradGradGradGradGradGradGrad
 Berny optimization.
 FormGI is forming the generalized inverse of G from B-inverse, IUseBI=4.
 Internal  Forces:  Max     0.031535619 RMS     0.006298584
 Search for a local minimum.
 Step number   1 out of a maximum of  180
 All quantities printed in internal units (Hartrees-Bohrs-Radians)
 Mixed Optimization -- RFO/linear search
 Second derivative matrix not updated -- first step.
 ITU=  0
     Eigenvalues ---    0.00407   0.00607   0.00746   0.00766   0.00949
     Eigenvalues ---    0.01125   0.01309   0.01370   0.01429   0.01705
     Eigenvalues ---    0.01983   0.02638   0.03058   0.03327   0.04078
     Eigenvalues ---    0.04208   0.04448   0.04641   0.04766   0.05056
     Eigenvalues ---    0.05092   0.05154   0.05359   0.05691   0.05762
     Eigenvalues ---    0.05919   0.06229   0.06463   0.06671   0.06870
     Eigenvalues ---    0.07190   0.07305   0.08249   0.08708   0.09004
     Eigenvalues ---    0.09114   0.09394   0.10011   0.10308   0.11225
     Eigenvalues ---    0.11473   0.12295   0.13811   0.14206   0.15314
     Eigenvalues ---    0.16000   0.16000   0.16000   0.16183   0.16586
     Eigenvalues ---    0.17207   0.19530   0.19879   0.21986   0.22807
     Eigenvalues ---    0.25868   0.26834   0.28778   0.29687   0.31403
     Eigenvalues ---    0.32440   0.33639   0.34049   0.34095   0.34100
     Eigenvalues ---    0.34131   0.34160   0.34195   0.35998   0.39196
     Eigenvalues ---    0.41138   0.41811   0.41939   0.43952   0.48976
     Eigenvalues ---    0.50903   0.51745   0.52516   0.52574   0.53025
     Eigenvalues ---    0.53502   0.536271000.000001000.000001000.00000
     Eigenvalues --- 1000.000001000.000001000.000001000.000001000.00000
     Eigenvalues --- 1000.000001000.000001000.000001000.000001000.00000
     Eigenvalues --- 1000.000001000.000001000.000001000.000001000.00000
     Eigenvalues --- 1000.000001000.000001000.000001000.000001000.00000
     Eigenvalues --- 1000.000001000.000001000.000001000.000001000.00000
     Eigenvalues --- 1000.000001000.000001000.000001000.000001000.00000
     Eigenvalues --- 1000.000001000.000001000.000001000.000001000.00000
     Eigenvalues --- 1000.000001000.000001000.000001000.000001000.00000
     Eigenvalues --- 1000.000001000.000001000.000001000.000001000.00000
     Eigenvalues --- 1000.000001000.000001000.000001000.000001000.00000
     Eigenvalues --- 1000.000001000.000001000.000001000.000001000.00000
     Eigenvalues --- 1000.000001000.000001000.000001000.000001000.00000
     Eigenvalues --- 1000.000001000.000001000.000001000.000001000.00000
     Eigenvalues --- 1000.000001000.000001000.000001000.000001000.00000
     Eigenvalues --- 1000.000001000.000001000.000001000.000001000.00000
     Eigenvalues --- 1000.000001000.000001000.000001000.000001000.00000
     Eigenvalues --- 1000.000001000.000001000.000001000.000001000.00000
     Eigenvalues --- 1000.000001000.000001000.000001000.000001000.00000
     Eigenvalues --- 1000.000001000.000001000.000001000.000001000.00000
     Eigenvalues --- 1000.000001000.000001000.000001000.000001000.00000
     Eigenvalues --- 1000.00000
 RFO step:  Lambda=-3.80666576D-02 EMin= 4.06622153D-03
 Linear search not attempted -- first point.
 Maximum step size (   0.300) exceeded in Quadratic search.
    -- Step size scaled by   0.716
 Iteration  1 RMS(Cart)=  0.05879775 RMS(Int)=  0.00108597
 Iteration  2 RMS(Cart)=  0.00140231 RMS(Int)=  0.00037268
 Iteration  3 RMS(Cart)=  0.00000137 RMS(Int)=  0.00037268
 Iteration  4 RMS(Cart)=  0.00000000 RMS(Int)=  0.00037268
 Iteration  1 RMS(Cart)=  0.00000283 RMS(Int)=  0.00000342
 Iteration  2 RMS(Cart)=  0.00000216 RMS(Int)=  0.00000369
 Iteration  3 RMS(Cart)=  0.00000165 RMS(Int)=  0.00000422
 Iteration  4 RMS(Cart)=  0.00000127 RMS(Int)=  0.00000477
 Iteration  5 RMS(Cart)=  0.00000098 RMS(Int)=  0.00000528
 Variable       Old X    -DE/DX   Delta X   Delta X   Delta X     New X
                                 (Linear)    (Quad)   (Total)
    R1        2.07248  -0.00090   0.00000  -0.00170  -0.00170   2.07078
    R2        2.78264  -0.01938   0.00000  -0.03992  -0.04007   2.74258
    R3        2.90471   0.00586   0.00000   0.01369   0.01367   2.91838
    R4        2.88592  -0.00784   0.00000  -0.01677  -0.01677   2.86915
    R5        2.90888   0.00327   0.00000   0.01273   0.01292   2.92180
    R6        2.89697  -0.00599   0.00000  -0.00683  -0.00719   2.88978
    R7        2.07344   0.01178   0.00000   0.02427   0.02372   2.09715
    R8        2.70036  -0.00118   0.00000  -0.00188  -0.00188   2.69848
    R9        2.90465   0.01558   0.00000   0.03341   0.03343   2.93808
   R10        2.75615  -0.00203   0.00000  -0.01105  -0.01129   2.74487
   R11        2.07110   0.00045   0.00000   0.00085   0.00085   2.07195
   R12        2.66454  -0.01534   0.00000  -0.02326  -0.02332   2.64123
   R13        2.07162   0.00099   0.00000   0.00187   0.00187   2.07349
   R14        2.72660  -0.01198   0.00000  -0.01994  -0.01994   2.70666
   R15        3.47710   0.00573   0.00000   0.03794   0.03796   3.51505
   R16        2.07169  -0.00274   0.00000  -0.00519  -0.00519   2.06651
   R17        2.73260   0.01014   0.00000   0.01563   0.01562   2.74822
   R18        3.51489   0.02423   0.00000   0.16659   0.16670   3.68159
   R19        3.66230   0.00349   0.00000   0.06643   0.06619   3.72848
   R20        2.07003   0.00363   0.00000   0.00684   0.00684   2.07687
   R21        2.07061   0.00247   0.00000   0.00466   0.00466   2.07527
   R22        2.69165   0.00386   0.00000   0.00606   0.00606   2.69771
   R23        1.84108  -0.00614   0.00000  -0.00781  -0.00781   1.83328
   R24        1.85665  -0.01090   0.00000  -0.01427  -0.01427   1.84238
   R25        1.84054  -0.00559   0.00000  -0.00710  -0.00710   1.83344
   R26        1.84844  -0.00600   0.00000  -0.00773  -0.00773   1.84071
   R27        3.49549   0.00904   0.00000   0.06452   0.06512   3.56061
   R28        1.81031   0.03154   0.00000   0.03907   0.03908   1.84940
   R29        3.25796   0.00855   0.00000   0.06510   0.06515   3.32311
   R30        1.83188  -0.00052   0.00000  -0.00064  -0.00064   1.83123
   R31        1.84887   0.00567   0.00000   0.00773   0.00778   1.85665
   R32        1.83073  -0.00062   0.00000  -0.00078  -0.00078   1.82995
   R33        1.84990   0.00249   0.00000   0.00373   0.00426   1.85415
    A1        1.87875   0.00186   0.00000   0.01013   0.01039   1.88914
    A2        1.94165  -0.00553   0.00000  -0.02638  -0.02652   1.91514
    A3        1.91178   0.00337   0.00000   0.00660   0.00654   1.91831
    A4        1.89943   0.01055   0.00000   0.03723   0.03719   1.93662
    A5        1.87777  -0.01078   0.00000  -0.03152  -0.03162   1.84615
    A6        1.95185   0.00046   0.00000   0.00426   0.00456   1.95641
    A7        1.91394   0.00363   0.00000   0.00361   0.00410   1.91804
    A8        1.88887  -0.00077   0.00000   0.00008  -0.00009   1.88878
    A9        1.97879   0.00046   0.00000   0.00353   0.00283   1.98163
   A10        1.89290   0.00018   0.00000   0.01421   0.01359   1.90649
   A11        1.91895  -0.00917   0.00000  -0.04933  -0.04951   1.86944
   A12        1.86787   0.00585   0.00000   0.03009   0.03062   1.89850
   A13        1.90281   0.00887   0.00000   0.02621   0.02623   1.92904
   A14        1.92713   0.00262   0.00000   0.01363   0.01394   1.94107
   A15        1.96009  -0.00919   0.00000  -0.01990  -0.02019   1.93991
   A16        1.86824  -0.01238   0.00000  -0.06118  -0.06109   1.80715
   A17        1.89979   0.00592   0.00000   0.02330   0.02334   1.92313
   A18        1.90333   0.00400   0.00000   0.01592   0.01612   1.91944
   A19        1.97521  -0.01009   0.00000  -0.01432  -0.01490   1.96031
   A20        1.90478   0.00089   0.00000  -0.01980  -0.01997   1.88481
   A21        1.92098   0.00465   0.00000   0.02544   0.02514   1.94612
   A22        1.90424   0.00264   0.00000  -0.00699  -0.00727   1.89697
   A23        1.91445   0.00748   0.00000   0.03785   0.03763   1.95209
   A24        1.83912  -0.00528   0.00000  -0.02351  -0.02315   1.81597
   A25        2.05840  -0.00764   0.00000  -0.01415  -0.01429   2.04411
   A26        1.91231   0.00173   0.00000   0.02038   0.02059   1.93291
   A27        1.68765   0.00399   0.00000   0.01282   0.01281   1.70047
   A28        1.97704  -0.00463   0.00000  -0.01161  -0.01169   1.96535
   A29        1.94428  -0.00264   0.00000  -0.02449  -0.02496   1.91932
   A30        1.88522   0.01160   0.00000   0.04652   0.04682   1.93203
   A31        1.90892   0.00275   0.00000  -0.00698  -0.00751   1.90141
   A32        1.88441  -0.00603   0.00000  -0.00862  -0.00867   1.87573
   A33        1.85909  -0.00085   0.00000   0.00769   0.00771   1.86681
   A34        2.15528   0.01318   0.00000   0.05645   0.05498   2.21026
   A35        1.87884   0.00957   0.00000   0.03646   0.03665   1.91549
   A36        1.92351   0.00116   0.00000  -0.00329  -0.00289   1.92062
   A37        1.93822  -0.00168   0.00000  -0.01878  -0.01866   1.91955
   A38        1.92218  -0.01977   0.00000  -0.05635  -0.05647   1.86572
   A39        1.87483   0.00014   0.00000   0.00877   0.00806   1.88290
   A40        1.89774   0.01038   0.00000   0.03890   0.03840   1.93614
   A41        1.90631   0.01070   0.00000   0.03415   0.03301   1.93931
   A42        1.85867   0.00276   0.00000   0.00999   0.00999   1.86867
   A43        1.86737   0.00336   0.00000   0.01213   0.01213   1.87950
   A44        1.88218  -0.00273   0.00000  -0.00987  -0.00987   1.87231
   A45        1.84445   0.00338   0.00000   0.02299   0.02146   1.86592
   A46        1.44920   0.01382   0.00000   0.06822   0.06784   1.51704
   A47        1.75224   0.00302   0.00000   0.02132   0.02031   1.77255
   A48        1.83258  -0.00291   0.00000  -0.00303  -0.00328   1.82930
   A49        2.59947   0.00120   0.00000   0.00937   0.00916   2.60863
   A50        2.00938   0.00001   0.00000  -0.00118  -0.00119   2.00819
   A51        1.50420  -0.00712   0.00000  -0.01693  -0.01701   1.48719
   A52        1.83121  -0.00038   0.00000  -0.00585  -0.00587   1.82535
   A53        2.44130   0.00477   0.00000   0.01241   0.01228   2.45358
   A54        2.15310   0.00182   0.00000   0.01156   0.01224   2.16534
   A55        1.83115   0.00401   0.00000   0.00976   0.00997   1.84113
   A56        1.48786  -0.00825   0.00000  -0.03939  -0.03908   1.44878
   A57        2.62374   0.00525   0.00000   0.03248   0.03228   2.65602
    D1       -1.14283  -0.00137   0.00000  -0.02204  -0.02222  -1.16505
    D2        0.76274   0.00057   0.00000   0.00018  -0.00011   0.76264
    D3        0.96346  -0.00088   0.00000  -0.02650  -0.02618   0.93729
    D4        2.86904   0.00106   0.00000  -0.00428  -0.00407   2.86497
    D5        3.08145  -0.00061   0.00000  -0.01848  -0.01856   3.06289
    D6       -1.29616   0.00133   0.00000   0.00374   0.00355  -1.29261
    D7        2.10800   0.00055   0.00000   0.02000   0.01974   2.12774
    D8       -2.01432  -0.00138   0.00000  -0.01719  -0.01711  -2.03143
    D9        0.02163   0.00308   0.00000   0.00639   0.00596   0.02759
   D10        0.04087  -0.00504   0.00000   0.00000   0.00002   0.04089
   D11        2.20174  -0.00698   0.00000  -0.03719  -0.03684   2.16490
   D12       -2.04550  -0.00251   0.00000  -0.01361  -0.01376  -2.05926
   D13       -2.03120   0.00123   0.00000   0.01244   0.01231  -2.01889
   D14        0.12967  -0.00071   0.00000  -0.02475  -0.02455   0.10512
   D15        2.16562   0.00376   0.00000  -0.00118  -0.00147   2.16415
   D16       -1.07430  -0.00086   0.00000  -0.00712  -0.00730  -1.08160
   D17        3.13343  -0.00072   0.00000  -0.00403  -0.00381   3.12962
   D18        1.01945   0.00018   0.00000   0.00320   0.00295   1.02240
   D19        0.96312  -0.00286   0.00000  -0.00912  -0.00911   0.95401
   D20       -1.11234  -0.00271   0.00000  -0.00603  -0.00562  -1.11796
   D21        3.05687  -0.00181   0.00000   0.00120   0.00114   3.05801
   D22        3.04801   0.00348   0.00000   0.01899   0.01883   3.06683
   D23        0.97255   0.00362   0.00000   0.02208   0.02232   0.99487
   D24       -1.14143   0.00453   0.00000   0.02930   0.02908  -1.11235
   D25        0.91563  -0.00201   0.00000  -0.00764  -0.00762   0.90801
   D26        3.03955  -0.00477   0.00000  -0.04040  -0.04005   2.99951
   D27       -1.23334  -0.00801   0.00000  -0.06573  -0.06556  -1.29890
   D28        2.97747  -0.00020   0.00000   0.01154   0.01107   2.98854
   D29       -1.18179  -0.00296   0.00000  -0.02122  -0.02136  -1.20315
   D30        0.82850  -0.00620   0.00000  -0.04655  -0.04687   0.78163
   D31       -1.23647   0.00686   0.00000   0.05132   0.05129  -1.18518
   D32        0.88745   0.00410   0.00000   0.01856   0.01886   0.90632
   D33        2.89774   0.00086   0.00000  -0.00677  -0.00665   2.89109
   D34       -0.91661  -0.00011   0.00000   0.00466   0.00449  -0.91212
   D35       -3.09670   0.00462   0.00000   0.05059   0.05043  -3.04626
   D36        1.17023   0.00746   0.00000   0.04985   0.04991   1.22013
   D37       -2.97594  -0.00134   0.00000  -0.00576  -0.00583  -2.98177
   D38        1.12715   0.00339   0.00000   0.04016   0.04012   1.16727
   D39       -0.88911   0.00623   0.00000   0.03943   0.03959  -0.84952
   D40        1.27034  -0.00336   0.00000  -0.02261  -0.02233   1.24801
   D41       -0.90975   0.00137   0.00000   0.02332   0.02362  -0.88613
   D42       -2.92601   0.00421   0.00000   0.02259   0.02309  -2.90292
   D43       -2.55916   0.00066   0.00000   0.01538   0.01583  -2.54333
   D44       -2.06757  -0.00019   0.00000  -0.00547  -0.00540  -2.07297
   D45       -0.48394   0.00466   0.00000   0.02771   0.02843  -0.45552
   D46        0.00765   0.00380   0.00000   0.00685   0.00720   0.01485
   D47        1.58557  -0.00287   0.00000  -0.00652  -0.00605   1.57952
   D48        2.07716  -0.00373   0.00000  -0.02737  -0.02728   2.04989
   D49       -0.69068  -0.00247   0.00000  -0.02837  -0.02812  -0.71880
   D50       -2.84002  -0.00062   0.00000   0.00156   0.00066  -2.83937
   D51        1.39064   0.00074   0.00000  -0.00611  -0.00545   1.38519
   D52       -0.03342   0.00318   0.00000   0.00000  -0.00001  -0.03343
   D53       -2.15765   0.00692   0.00000   0.03994   0.03981  -2.11784
   D54        2.11915   0.00766   0.00000   0.05117   0.05111   2.17026
   D55        2.01438  -0.00503   0.00000  -0.05075  -0.05066   1.96371
   D56       -0.10985  -0.00130   0.00000  -0.01081  -0.01085  -0.12070
   D57       -2.11623  -0.00056   0.00000   0.00042   0.00045  -2.11578
   D58       -2.14037  -0.00439   0.00000  -0.03437  -0.03419  -2.17456
   D59        2.01859  -0.00065   0.00000   0.00557   0.00562   2.02421
   D60        0.01221   0.00008   0.00000   0.01681   0.01692   0.02913
   D61       -0.96509   0.00253   0.00000   0.03044   0.03016  -0.93493
   D62       -2.99590   0.00087   0.00000   0.00325   0.00296  -2.99293
   D63       -3.04985   0.00160   0.00000   0.03469   0.03474  -3.01510
   D64        1.20253  -0.00006   0.00000   0.00751   0.00755   1.21008
   D65        1.17842   0.00054   0.00000   0.03711   0.03754   1.21597
   D66       -0.85238  -0.00112   0.00000   0.00993   0.01035  -0.84203
   D67        3.14152   0.00415   0.00000   0.01041   0.01022  -3.13145
   D68        1.03283  -0.00513   0.00000  -0.02563  -0.02564   1.00719
   D69       -0.99974   0.00415   0.00000   0.02566   0.02559  -0.97414
   D70        0.64538   0.00122   0.00000   0.05758   0.05821   0.70359
   D71       -1.53877   0.00559   0.00000   0.03167   0.03095  -1.50782
   D72        2.69684   0.00167   0.00000   0.03396   0.03405   2.73089
   D73       -2.19361   0.00288   0.00000   0.00180   0.00172  -2.19189
   D74       -0.04956  -0.00308   0.00000  -0.00018   0.00006  -0.04950
   D75       -1.24955   0.00009   0.00000   0.01318   0.01347  -1.23608
   D76       -2.97548  -0.00644   0.00000  -0.02527  -0.02601  -3.00149
   D77        2.88966   0.00238   0.00000   0.00463   0.00464   2.89429
   D78        1.16372  -0.00416   0.00000  -0.03382  -0.03484   1.12888
   D79        0.84096   0.00264   0.00000   0.01310   0.01377   0.85473
   D80       -0.88497  -0.00389   0.00000  -0.02535  -0.02571  -0.91068
   D81       -0.63091  -0.00461   0.00000  -0.03769  -0.03745  -0.66837
   D82        0.60708  -0.00628   0.00000  -0.03692  -0.03684   0.57024
   D83       -3.14106  -0.00149   0.00000  -0.01147  -0.01147   3.13065
   D84       -1.03179  -0.00566   0.00000  -0.02562  -0.02668  -1.05847
   D85        1.00917   0.00633   0.00000   0.02584   0.02690   1.03607
   D86       -0.89618   0.00464   0.00000   0.03554   0.03549  -0.86069
   D87       -0.28010   0.00262   0.00000   0.02308   0.02288  -0.25722
   D88       -2.72420  -0.00075   0.00000   0.00301   0.00234  -2.72185
   D89       -2.10811  -0.00277   0.00000  -0.00945  -0.01027  -2.11838
   D90       -0.42668   0.00203   0.00000   0.00442   0.00435  -0.42233
   D91        1.47121  -0.00052   0.00000   0.01037   0.01038   1.48159
   D92       -0.35615   0.00323   0.00000   0.02481   0.02481  -0.33134
   D93        0.52261  -0.00295   0.00000  -0.02454  -0.02439   0.49822
   D94       -1.48459  -0.00107   0.00000  -0.01857  -0.01858  -1.50317
   D95        1.52093  -0.00981   0.00000  -0.04647  -0.04646   1.47447
   D96        1.47255   0.00539   0.00000   0.03458   0.03390   1.50645
         Item               Value     Threshold  Converged?
 Maximum Force            0.031223     0.000450     NO 
 RMS     Force            0.006248     0.000300     NO 
 Maximum Displacement     0.342890     0.001800     NO 
 RMS     Displacement     0.059125     0.001200     NO 
 Predicted change in Energy=-2.043126D-02
 GradGradGradGradGradGradGradGradGradGradGradGradGradGradGradGradGradGrad

                          Input orientation:                          
 ---------------------------------------------------------------------
 Center     Atomic      Atomic             Coordinates (Angstroms)
 Number     Number       Type             X           Y           Z
 ---------------------------------------------------------------------
      1          1           0        0.969904    1.207713    0.936943
      2          6           0        0.997092    0.559683    0.053701
      3          6           0       -0.633424   -1.369297   -0.345662
      4          6           0       -1.322892    1.095879   -0.630503
      5          6           0       -1.782560   -0.339425   -0.248529
      6          8           0        0.095834    1.110393   -0.941663
      7          6           0        0.577620   -0.873936    0.445830
      8          1           0       -0.987840   -2.326698    0.089485
      9          1           0       -2.575661   -0.650321   -0.940108
     10          1           0        1.411434   -1.563522    0.287472
     11          6           0        2.378998    0.598829   -0.574002
     12          1           0        2.611854    1.619393   -0.908820
     13          1           0        2.411058   -0.059738   -1.452221
     14          8           0        3.301506    0.167284    0.426346
     15          1           0        4.184449    0.181766    0.024664
     16          8           0       -2.410494   -0.373198    1.038348
     17          1           0       -1.709411   -0.480320    1.707319
     18          8           0       -0.192596   -1.607484   -1.682841
     19          1           0       -0.983195   -1.649832   -2.243620
     20          8           0        0.233875   -0.940971    1.857329
     21          1           0        1.065239   -0.847145    2.356152
     22          1           0       -1.793722    1.428227   -1.563251
     23          8           0       -1.601112    2.004077    0.394811
     24          1           0       -1.286756    2.867024    0.056766
     25          1           0       -0.571774    3.908652   -1.912717
     26          8           0       -0.233165    3.781603   -1.013686
     27          1           0        0.296546    2.955617   -1.063250
     28          8           0        0.079705   -3.617207    1.084708
     29          1           0        0.996198   -3.843958    0.869395
     30          1           0        0.132991   -2.809833    1.639698
 ---------------------------------------------------------------------
                    Distance matrix (angstroms):
                    1          2          3          4          5
     1  H    0.000000
     2  C    1.095810   0.000000
     3  C    3.294953   2.557154   0.000000
[...]
 0060136,-0.00030299,0.00006319,-0.00002022,0.00009825,0.00000424,0.000
 15931,0.00351541,-0.00003958,-0.00042496,-0.00378890,0.00134215,-0.000
 42280,0.00033026,0.00052812,0.00007538,-0.00011324,-0.00017079,-0.0002
 6748,0.00035433,-0.00018104,0.00009378,-0.00008395,0.00011840,-0.00045
 834,0.00191656,0.00295979,-0.08028321,-0.38837500,0.04550557,0.0789775
 6,0.41258071,-0.00030831,-0.00000031,-0.00029211,0.00108005,0.00007833
 ,0.00113019,-0.00094823,-0.00118934,0.00063611,-0.01054172,-0.04341370
 ,0.00431831,0.00307854,-0.00141269,-0.00676718,0.00098643,0.00324444,-
 0.00046349,-0.00029990,0.00004726,-0.00022907,0.00047418,-0.00022798,-
 0.00015681,-0.00020970,-0.00078938,0.00019918,0.00004790,0.00003128,0.
 00000607,0.00003389,-0.00034708,0.00007975,0.00009606,0.00012498,-0.00
 003592,0.00006452,0.00002340,-0.00004489,-0.00011960,0.00014039,-0.000
 14088,0.00001616,-0.00003047,0.00000005,0.00050868,0.00353939,0.000617
 41,-0.00062911,-0.00265165,0.00147186,0.00002064,0.00017646,-0.0001490
 2,-0.00001921,0.00003211,0.00007745,0.00003420,0.00002179,-0.00023992,
 -0.00006510,0.00006738,0.00008313,-0.00022798,-0.00010933,-0.00070816,
 0.03049534,0.08367572,-0.05956147,-0.02471715,-0.03714525,0.06624904,-
 0.00003377,-0.00002086,0.00000633,0.00008960,-0.00015328,0.00006646,0.
 00004954,-0.00002211,-0.00001928,0.00046761,0.00007530,0.00104912,-0.0
 0000013,-0.00007300,-0.00005928,-0.00003298,0.00034581,0.00013159,0.00
 000701,0.00004374,-0.00001298,-0.00001234,0.00000198,-0.00000272,-0.00
 001552,-0.00003223,-0.00002449,-0.00000922,0.00000874,0.00000224,-0.00
 000513,0.00022799,-0.00014004,-0.00000352,-0.00008958,-0.00003809,-0.0
 0000675,0.00000298,0.00000851,0.00001474,-0.00012719,0.00010088,-0.000
 02243,0.00004479,-0.00000816,-0.00005734,-0.00005011,-0.00008689,0.000
 06905,0.00011236,-0.00004107,-0.00005628,0.00000876,0.00002414,0.00001
 393,-0.00001272,-0.00000204,-0.00002497,-0.00004207,0.00003637,0.00000
 574,0.00001346,-0.00001482,-0.00006233,-0.00013483,-0.00035713,-0.0023
 1994,-0.00285899,0.00005646,0.00459802,0.00239929,0.00018559,0.1225384
 9,-0.00003719,0.00005036,-0.00004222,0.00028099,-0.00000274,0.00013379
 ,0.00012739,0.00001786,-0.00009873,0.00103052,-0.00054275,0.00108351,-
 0.00031172,-0.00021834,-0.00004087,-0.00063377,-0.00113676,-0.00121303
 ,-0.00004764,-0.00007095,0.00012757,-0.00004933,0.00003498,0.00003285,
 0.00000281,0.00000256,-0.00000184,-0.00002053,0.00004528,-0.00001208,0
 .00013885,-0.00000841,0.00000264,0.00009355,-0.00000419,-0.00002156,-0
 .00000076,-0.00000671,-0.00000960,-0.00021703,0.00002138,-0.00008248,0
 .00002562,0.00001351,0.00000958,0.00007453,0.00028350,-0.00025650,-0.0
 0004144,-0.00010617,0.00014525,-0.00010506,0.00010616,0.00004206,0.000
 03300,-0.00005804,-0.00002802,-0.00002632,0.00009518,-0.00014678,0.000
 02128,-0.00002856,0.00004283,-0.00044537,-0.00020730,-0.00055488,-0.00
 117380,-0.00006229,-0.00027305,0.00153695,-0.00126897,0.00146727,-0.13
 284426,0.15445109,0.00002838,0.00000764,0.00001365,-0.00018253,0.00013
 412,-0.00018914,-0.00000850,0.00002368,0.00005237,0.00042696,0.0002648
 0,0.00007947,-0.00003641,0.00006521,0.00009508,-0.00021819,-0.00147772
 ,-0.00037858,0.00001144,-0.00001329,0.00004495,-0.00000149,0.00000024,
 -0.00000448,-0.00000788,0.00000717,-0.00000593,0.00000427,-0.00000459,
 -0.00000289,0.00000761,0.00003029,0.00004674,-0.00004489,0.00000740,0.
 00004115,-0.00000017,-0.00003512,-0.00000550,-0.00000033,0.00000150,-0
 .00003589,0.00000979,-0.00000347,0.00001365,0.00001949,-0.00002590,-0.
 00001620,-0.00003212,-0.00001590,0.00001669,-0.00000193,0.00001074,-0.
 00006982,0.00000123,-0.00001879,0.00001702,0.00000131,-0.00000071,-0.0
 0001576,-0.00000014,-0.00000427,0.00000605,-0.00008129,0.00003863,0.00
 005509,0.00069392,-0.00011249,0.00029020,-0.00212784,0.00016656,-0.001
 51711,0.16053334,-0.17060575,0.29136886,-0.00007121,-0.00028056,0.0002
 5674,0.00017490,-0.00023087,-0.00009049,-0.00062535,-0.00014434,0.0002
 1430,-0.00739067,0.00336713,0.00444629,0.00050692,-0.00000025,0.000123
 24,0.00572446,0.00485736,-0.00010324,-0.00019537,-0.00028548,0.0001432
 5,0.00022105,-0.00004605,-0.00001579,0.00004631,-0.00004106,-0.0000137
 6,0.00007346,0.00002262,-0.00000892,0.00003155,-0.00155720,0.00069708,
 0.00037573,0.00048393,-0.00035528,0.00000411,0.00027332,-0.00000289,-0
 .00012962,0.00068830,-0.00033304,0.00009606,-0.00016942,-0.00000684,0.
 00035329,-0.00116109,-0.00039463,0.00001330,0.00128923,-0.00066595,0.0
 0039148,-0.00003454,-0.00020387,-0.00005658,0.00011598,0.00004761,0.00
 025123,0.00024946,-0.00024300,-0.00001161,-0.00009978,0.00005931,0.000
 74008,0.00027856,0.00041590,0.00339122,-0.01101823,0.00201628,-0.00925
 382,0.00372224,-0.00554918,-0.11483532,0.11630816,-0.17222018,0.232676
 43,0.00021705,0.00004948,0.00049383,-0.00460593,0.00037988,-0.00280545
 ,-0.00042692,0.00050356,0.00055222,0.00131488,0.00290771,0.00344000,0.
 00014628,0.00049402,0.00019902,0.00452788,-0.01322242,-0.00042864,0.00
 066059,0.00048455,-0.00012034,0.00017601,-0.00012584,-0.00017666,-0.00
 013990,-0.00036132,-0.00012074,0.00009756,-0.00040623,0.00002187,-0.00
 087763,-0.00075567,0.00050448,0.00005396,0.00020813,-0.00002662,0.0000
 8397,0.00004064,-0.00001988,0.00099746,0.00023921,0.00002849,-0.000021
 89,-0.00011993,-0.00001070,-0.00035361,-0.00201605,0.00033434,0.000344
 65,0.00152478,-0.00115367,0.00031068,-0.00049012,-0.00060312,-0.000105
 66,0.00007818,0.00022224,0.00011485,-0.00074971,0.00081507,-0.00014559
 ,0.00014304,-0.00021859,0.00015459,-0.00008173,-0.00022950,-0.00670664
 ,-0.01404974,0.00567730,0.00379202,-0.00214250,-0.00541153,0.12497582,
 -0.13591950,0.18656470,-0.28377247,0.43373596,0.00025298,-0.00018490,0
 .00043345,-0.00092103,-0.00143474,-0.00082326,0.00029324,0.00015882,-0
 .00024104,0.00307364,-0.00157203,-0.00650710,-0.00004582,0.00034125,0.
 00002473,-0.00043675,-0.00114917,0.00453778,0.00046273,0.00000865,0.00
 001368,-0.00008323,0.00001906,0.00003655,0.00002946,0.00009735,0.00007
 847,-0.00004662,-0.00006912,0.00001722,-0.00004511,0.00030918,-0.00016
 544,0.00000468,-0.00010716,-0.00011758,-0.00008459,0.00006419,0.000068
 20,0.00013512,-0.00009860,0.00022093,-0.00002607,0.00002362,-0.0000188
 7,-0.00024159,0.00062593,0.00075144,-0.00010768,-0.00105397,0.00033685
 ,-0.00010093,-0.00005763,0.00029484,0.00000423,0.00000247,-0.00005981,
 -0.00012255,-0.00003583,0.00034339,0.00002526,-0.00005243,-0.00005189,
 0.00037916,0.00025319,0.00118950,0.00353504,0.01183676,0.00179583,-0.0
 0192858,-0.00492956,-0.00197485,-0.13836979,0.13689703,-0.30334557,0.0
 6875467,-0.02057718,0.44545667,0.00005690,0.00019670,-0.00036458,0.000
 94669,0.00176655,0.00031113,0.00035790,0.00007461,-0.00009882,0.002991
 41,-0.00629968,-0.00109145,-0.00083893,0.00003969,-0.00011086,-0.00830
 304,0.00006398,-0.00012097,-0.00019856,0.00026042,-0.00029433,-0.00015
 689,0.00003380,0.00000145,-0.00004662,-0.00005964,-0.00000716,-0.00003
 596,0.00007950,0.00001846,-0.00006442,0.00239079,-0.00097180,-0.000897
 55,-0.00083464,0.00043975,-0.00002090,-0.00043356,0.00003448,0.0003507
 6,-0.00091489,0.00059248,-0.00013943,0.00013424,0.00000765,-0.00019639
 ,0.00054013,0.00009031,0.00001068,-0.00064841,0.00031343,-0.00025622,0
 .00003738,0.00008364,0.00003086,-0.00007364,-0.00001437,-0.00016524,-0
 .00012311,0.00013984,0.00002815,0.00007183,-0.00007014,-0.00088196,-0.
 00016268,-0.00055547,0.00019999,0.00333065,-0.00019530,-0.00489143,-0.
 00206270,0.00651736,-0.01036392,0.01627716,0.01322819,-0.11244914,0.15
 918444,0.06559783,0.13490019,-0.00064883,0.00009380,-0.00076816,0.0070
 9470,-0.00142152,0.00399740,-0.00009117,-0.00087827,-0.00032175,-0.012
 78004,-0.00072766,0.00396035,0.00062669,-0.00070088,-0.00011151,0.0022
 8384,0.00445975,-0.00191193,-0.00118739,-0.00049660,0.00015139,0.00000
 882,0.00008351,0.00015159,0.00018053,0.00035095,0.00006413,-0.00003204
 ,0.00055628,-0.00002979,0.00110864,0.00068385,-0.00071675,0.00003395,-
 0.00009850,0.00012341,-0.00008281,-0.00007052,0.00003113,-0.00115315,-
 0.00015789,-0.00003759,0.00000072,0.00012428,-0.00000977,0.00071024,0.
 00068151,-0.00111862,-0.00019703,0.00019251,0.00033622,-0.00004658,0.0
 0051560,0.00041536,0.00006981,0.00002696,-0.00018213,0.00007704,0.0009
 1259,-0.00113502,0.00015464,-0.00015418,0.00024870,0.00058151,0.000026
 08,0.00013000,0.00234398,-0.00505237,-0.00224431,-0.00150336,0.0069825
 0,0.00012147,0.00819771,-0.01544687,-0.01500446,0.16712697,-0.27052946
 ,-0.11927609,-0.17284169,0.28015469,-0.00025663,0.00041086,-0.00066835
 ,0.00035498,0.00283811,0.00039583,-0.00007055,-0.00009655,0.00017374,0
 .00025874,0.00268120,0.00269957,0.00026091,-0.00002746,0.00017951,-0.0
 0052596,-0.00342451,-0.00507840,-0.00049845,0.00007021,-0.00024157,0.0
 0000482,-0.00001906,-0.00004941,-0.00003397,-0.00001128,-0.00005454,0.
 00003935,0.00002586,-0.00000189,-0.00006337,-0.00024087,0.00018580,-0.
 00002069,0.00008548,0.00030426,0.00014306,-0.00018319,-0.00008031,-0.0
 0002065,0.00003223,-0.00022586,0.00002417,-0.00000199,0.00001660,0.000
 01630,-0.00023459,-0.00023959,0.00009493,0.00038328,-0.00013384,0.0000
 0651,0.00000588,-0.00024329,0.00000560,-0.00003683,0.00005110,0.000070
 29,-0.00005378,-0.00019191,-0.00003370,0.00008760,0.00000902,-0.000347
 07,-0.00015468,-0.00033384,-0.00140753,-0.00148172,-0.00094614,0.00544
 386,-0.00030282,-0.00267018,-0.02302345,0.03339039,0.01344740,0.103076
 35,-0.16686553,-0.14231918,-0.08350119,0.13309888,0.13602765,0.0000362
 2,0.00006481,0.00006273,-0.00056642,0.00043768,0.00003389,0.00002921,0
 .00076047,0.00000214,-0.00074824,-0.00003568,0.00008799,-0.00162169,0.
 00011420,0.00226189,0.00115782,-0.00035170,0.00022882,0.00000298,0.000
 46366,-0.00282778,-0.00205142,-0.00028963,-0.00024471,0.00023268,-0.00
 013093,-0.00011411,0.00011367,0.00002737,0.00025404,0.00005040,-0.0000
 2634,-0.00004936,-0.00009319,-0.00012302,0.00006669,0.00000166,0.00001
 393,0.00000129,-0.00002279,-0.00021131,0.00007212,0.00004843,0.0000363
 9,0.00002980,0.00224334,0.00308268,-0.00200146,-0.00047788,-0.00005682
 ,-0.00069026,0.00059388,-0.00073633,0.00097056,-0.00023586,0.00009665,
 -0.00004645,-0.00213082,-0.00427883,0.00173467,0.00018297,-0.00035525,
 0.00069727,0.00008656,0.00005672,-0.00000517,0.00049589,0.00011902,-0.
 00036541,-0.00015556,-0.00005725,-0.00006272,-0.00003010,0.00000590,0.
 00001062,0.00016307,-0.00004631,-0.00005388,-0.00009537,0.00014682,-0.
 00000183,0.58153949,0.00003601,0.00009920,-0.00000900,0.00007655,0.000
 23041,0.00032092,0.00017920,0.00028780,-0.00007084,0.00024370,0.000619
 53,0.00008883,0.00083993,-0.00019580,-0.00353172,-0.00048397,-0.000694
 57,0.00027049,0.00027145,-0.00008728,-0.00199260,-0.00014462,-0.001655
 86,0.00121188,0.00007647,-0.00001901,0.00066922,-0.00032329,-0.0000854
 3,0.00041657,0.00037972,-0.00006459,-0.00003520,-0.00010324,-0.0000716
 2,0.00004103,-0.00002579,0.00002579,0.00001052,-0.00042204,0.00001544,
 -0.00005609,0.00006600,-0.00006658,0.00005104,0.00258567,-0.00634645,0
 .00433543,0.00009035,0.00078656,0.00083814,-0.00066526,-0.00023917,0.0
 0200118,0.00001963,-0.00031657,-0.00016213,-0.00452951,-0.00105118,0.0
 0054337,-0.00029484,-0.00169745,0.00107381,-0.00000649,-0.00025040,0.0
 0010284,-0.00007431,-0.00089490,0.00024220,0.00004477,0.00044875,0.000
 03099,-0.00000543,0.00010283,0.00000263,-0.00012748,-0.00050760,0.0000
 8309,0.00005835,0.00035571,-0.00005692,-0.01082404,0.47418979,0.000074
 26,0.00031672,0.00005866,0.00021587,-0.00043876,0.00037710,-0.00049169
 ,-0.00291633,-0.00004410,-0.00058648,-0.00109958,-0.00017968,0.0018031
 8,-0.00052310,-0.00052026,0.00021886,0.00056899,0.00024534,-0.00161798
 ,-0.00024946,-0.00194873,-0.00018738,0.00201211,-0.00010039,-0.0000117
 0,0.00001173,0.00013664,-0.00001895,-0.00003814,0.00023082,-0.00040974
 ,0.00002477,-0.00008499,0.00012774,0.00008505,-0.00003495,-0.00003842,
 -0.00004402,0.00007675,0.00042930,0.00009969,0.00021723,-0.00008765,-0
 .00001615,-0.00006731,-0.00143735,0.00308384,0.00369557,-0.00040453,0.
 00059825,-0.00168106,0.00082676,0.00240768,-0.00354350,0.00031063,-0.0
 0033315,0.00086378,0.00123959,0.00033832,0.00414321,0.00017407,0.00074
 341,-0.00066682,0.00003754,0.00023168,-0.00003215,-0.00001176,0.001278
 70,0.00051166,-0.00003271,-0.00034493,0.00000457,0.00000903,-0.0001108
 4,-0.00002185,0.00007008,0.00047994,0.00002335,-0.00003242,-0.00040217
 ,0.00000554,0.09744566,-0.03546506,0.03605199,-0.00005266,-0.00016302,
 -0.00007050,0.00047778,-0.00023743,-0.00039498,0.00101715,0.00089432,0
 .00006554,0.00084716,0.00020257,-0.00014288,0.00043694,0.00018264,-0.0
 0172572,-0.00096812,0.00032406,-0.00031149,0.00046035,0.00007763,0.003
 89130,0.00076403,-0.00003593,-0.00071684,-0.00014074,0.00006544,0.0001
 9992,-0.00008207,-0.00007086,-0.00025442,-0.00000725,0.00006179,0.0000
 5017,0.00006910,0.00008817,-0.00006172,0.00001519,-0.00000354,-0.00002
 057,-0.00003619,0.00015908,-0.00008450,-0.00003008,-0.00002415,-0.0000
 1596,0.00078507,-0.00173499,0.00199239,0.00006042,0.00059528,-0.000099
 52,-0.00068236,-0.00038029,0.00039700,-0.00002127,0.00000322,-0.000210
 87,-0.00339634,0.00085742,-0.00274037,-0.00087892,-0.00108279,-0.00029
 377,-0.00008760,-0.00009661,0.00003194,-0.00035982,-0.00028827,0.00022
 536,0.00012075,0.00008912,0.00000740,0.00001731,0.00000950,-0.00000418
 ,-0.00013139,-0.00002511,0.00004743,0.00007899,-0.00006837,-0.00000375
 ,-0.35591818,-0.16060343,-0.04869676,0.39245147,-0.00009207,-0.0002300
 2,-0.00005398,0.00033924,-0.00036239,-0.00052492,0.00078512,0.00068291
 ,0.00093708,0.00059344,-0.00011748,0.00000935,0.00006964,-0.00046354,0
 .00069552,-0.00051515,0.00060101,-0.00043256,0.00058765,0.00011813,0.0
 0485622,0.00009425,0.00025769,-0.00055936,-0.00016553,0.00004400,-0.00
 017045,0.00027252,0.00013200,-0.00088941,-0.00026843,0.00011359,0.0000
 3930,0.00012708,0.00010915,-0.00006381,0.00003418,-0.00001120,-0.00002
 559,0.00028534,0.00004183,-0.00001774,-0.00006436,0.00006647,-0.000062
 16,-0.00140010,-0.00051161,-0.00061837,0.00062894,-0.00057772,0.000265
 66,-0.00020468,-0.00040744,-0.00055913,-0.00010414,0.00018667,-0.00012
 694,-0.00016261,-0.00302302,-0.00172427,0.00020756,0.00153026,-0.00151
 763,-0.00007178,0.00002166,-0.00003774,-0.00027965,0.00018122,-0.00000
 671,0.00005598,-0.00016825,0.00000921,0.00001222,-0.00004690,-0.000003
 41,-0.00002759,0.00024885,-0.00001600,0.00002514,-0.00023811,0.0000318
 5,-0.22364038,-0.16990778,-0.02877074,0.18461583,0.15795084,-0.0000168
 0,-0.00007534,0.00001951,-0.00013479,0.00020851,-0.00021251,0.00060081
 ,0.00168933,-0.00109871,0.00002431,0.00048032,0.00015155,-0.00100251,0
 .00004855,0.00032011,0.00019336,-0.00039817,0.00004563,0.00124568,0.00
 213633,-0.00126798,-0.00114723,-0.00025554,-0.00208670,0.00013246,-0.0
 0006269,0.00000181,0.00009936,0.00005588,-0.00006902,0.00020650,0.0000
 2811,0.00002444,-0.00007480,-0.00007249,0.00003267,0.00000234,0.000020
 82,-0.00002502,-0.00023937,-0.00011396,-0.00008044,0.00005875,0.000006
 83,0.00005300,0.00079848,-0.00002411,-0.00089398,-0.00000585,-0.000033
 06,0.00043642,-0.00007551,-0.00081409,0.00151488,-0.00016664,0.0000419
 6,-0.00024094,-0.00170412,-0.00126941,-0.00384037,-0.00028636,-0.00141
 577,0.00123041,0.00000934,-0.00010146,0.00001424,0.00011768,-0.0005143
 0,-0.00028784,-0.00001300,0.00015675,-0.00000652,-0.00000814,0.0000542
 1,0.00001017,-0.00000315,-0.00024409,-0.00002018,-0.00000512,0.0002299
 1,-0.00000512,-0.04556711,-0.01809242,-0.01546432,0.05502862,0.0232997
 0,0.01975256,-0.00001806,0.00000618,-0.00003443,0.00037836,-0.00030966
 ,0.00015558,0.00028469,-0.00146593,0.00081540,0.00035492,-0.00004711,0
 .00017733,0.00084996,-0.00138479,-0.00071442,-0.00066635,0.00016475,-0
 .00010657,-0.00036821,-0.00040546,0.00134735,-0.00029997,0.00031591,0.
 00128096,-0.00007518,0.00011512,-0.00009066,0.00003072,0.00003768,-0.0
 0022515,-0.00008165,0.00001159,0.00001661,0.00006628,0.00007358,-0.000
 03760,-0.00000150,-0.00001156,0.00000209,0.00007361,0.00010263,-0.0000
 2175,-0.00003546,-0.00000325,-0.00002628,-0.00469970,0.00276188,-0.000
 81458,0.00029179,-0.00050059,0.00084711,-0.00017361,0.00069851,-0.0010
 3522,0.00014989,-0.00005320,0.00012567,0.00115214,0.00036182,-0.000378
 72,0.00025563,0.00037933,-0.00041733,-0.00004997,-0.00003030,-0.000013
 30,-0.00031219,0.00008977,0.00018431,0.00009964,-0.00001150,0.00005097
 ,0.00002093,-0.00001201,-0.00000847,-0.00008456,0.00007495,0.00001875,
 0.00004942,-0.00011418,0.00000894,-0.22283076,0.17366595,-0.04891705,-
 0.03480872,0.03826237,-0.00806718,0.26044790,-0.00000091,-0.00005311,0
 .00004963,-0.00056567,0.00015084,-0.00026186,-0.00108339,0.00147438,0.
 00041160,-0.00064767,-0.00065540,-0.00035237,-0.00221707,0.00116349,0.
 00619546,0.00125253,0.00044635,-0.00009748,-0.00028290,-0.00015712,-0.
 00009450,0.00033768,0.00022501,-0.00109166,-0.00000732,-0.00008994,-0.
 00101500,0.00021843,0.00000806,-0.00000309,-0.00020741,-0.00002608,0.0
 0001826,0.00000242,-0.00001435,0.00001236,0.00002383,-0.00001022,-0.00
 000780,0.00025740,-0.00007059,0.00006649,-0.00001943,0.00002831,-0.000
 00857,0.00186161,-0.00158045,-0.00358205,0.00009703,-0.00138114,-0.001
 27825,0.00081038,-0.00080986,-0.00052343,-0.00009074,0.00032081,-0.000
 02040,0.00018077,-0.00167543,0.00080887,0.00013117,0.00028522,-0.00019
 994,0.00007883,0.00034040,-0.00012063,0.00035016,0.00088863,-0.0004169
 0,-0.00013166,-0.00046342,-0.00010314,-0.00000431,-0.00008925,0.000000
 55,0.00021315,0.00043983,-0.00010619,-0.00011071,-0.00022773,0.0000499
 2,0.23573751,-0.29300958,0.05847156,-0.02341127,0.01377921,-0.00497032
 ,-0.21277246,0.28076312,-0.00003655,-0.00012379,-0.00004373,0.00011315
 ,0.00010468,-0.00001357,0.00060135,0.00116895,-0.00096121,0.00044747,0
 .00060169,-0.00005619,0.00004734,0.00182655,-0.00249099,-0.00058087,-0
 .00032630,-0.00009387,0.00068100,-0.00021612,0.00113667,0.00176033,-0.
 00090807,-0.00117002,-0.00007032,0.00010717,-0.00003119,-0.00010519,-0
 .00000858,-0.00014833,0.00019968,-0.00001470,0.00002555,-0.00004090,-0
 .00001589,0.00000604,0.00001276,0.00001797,-0.00002807,-0.00022594,-0.
 00000308,-0.00010536,0.00003192,-0.00000206,0.00002104,-0.00029601,-0.
 00173352,-0.00491279,0.00040571,-0.00098798,0.00257440,-0.00067876,-0.
 00044762,0.00125073,0.00001957,-0.00001940,-0.00033936,0.00012886,0.00
 070056,-0.00139021,-0.00005722,-0.00011604,0.00015372,-0.00003854,-0.0
 0014940,0.00004407,-0.00019240,-0.00103985,-0.00005109,0.00006871,0.00
 028303,0.00008445,-0.00000168,0.00006925,0.00001019,-0.00011090,-0.000
 32128,0.00002189,0.00005797,0.00021010,-0.00001260,-0.05192992,0.04713
 781,-0.02225210,-0.00608826,0.00603704,0.00199228,0.05587765,-0.051831
 11,0.02677965\\-0.00000131,-0.00000212,0.00000176,0.00331524,-0.001348
 12,-0.00513813,0.00115219,-0.00100782,-0.00528372,-0.00120677,-0.00053
 189,-0.00475916,0.00124185,0.00048623,0.00449228,-0.00121704,0.0011182
 8,0.00584390,-0.00328008,0.00129332,0.00484042,-0.00000584,0.00000805,
 -0.00001398,-0.00000023,0.00000507,-0.00000590,-0.00000170,-0.00000313
 ,0.00000157,0.00000367,-0.00000170,0.00000783,0.00000578,-0.00000272,0
 .00000410,0.00000096,-0.00000321,0.00000355,-0.00000256,-0.00001133,0.
 00000123,0.00000255,-0.00000034,0.00000886,-0.00000192,0.00000038,-0.0
 0000846,-0.00000235,0.00000095,-0.00000500,0.00000390,-0.00000173,0.00
 000505,-0.00000149,0.00000607,-0.00000360,0.00000330,-0.00000469,-0.00
 000535,-0.00000691,-0.00000376,0.00000612,0.00000202,0.00000355,-0.000
 00171,-0.00000771,-0.00000214,0.00000057,0.00001244,0.00001179,0.00000
 139,0.00001200,0.00000572,0.00000241,-0.00000022,-0.00000415,0.0000087
 6,0.00000560,-0.00000698,-0.00000112,-0.00000190,-0.00000780,0.0000017
 2,-0.00000486,-0.00000305,-0.00000110,-0.00001862,0.00000726,-0.000004
 29\\\@


 IF GOD HAD MEANT MAN TO SEE THE SUN RISE, HE
 WOULD HAVE SCHEDULED IT FOR A LATER HOUR.
 Job cpu time:       0 days  0 hours 36 minutes 44.8 seconds.
 File lengths (MBytes):  RWF=    335 Int=      0 D2E=      0 Chk=      7 Scr=      2
 Normal termination of Gaussian 09 at Tue Jan 17 00:23:54 2017.
