 Entering Gaussian System, Link 0=g09
 Initial command:
 /global/software/gaussian/g09.e01/l1.exe "/scratch/10461020.yak.local/Gau-21139.inp" -scrdir="/scratch/10461020.yak.local/"
 Entering Link 1 = /global/software/gaussian/g09.e01/l1.exe PID=     21140.
  
 Copyright (c) 1988,1990,1992,1993,1995,1998,2003,2009,2015,
            Gaussian, Inc.  All Rights Reserved.
  
 This is part of the Gaussian(R) 09 program.  It is based on
 the Gaussian(R) 03 system (copyright 2003, Gaussian, Inc.),
 the Gaussian(R) 98 system (copyright 1998, Gaussian, Inc.),
 the Gaussian(R) 94 system (copyright 1995, Gaussian, Inc.),
 the Gaussian 92(TM) system (copyright 1992, Gaussian, Inc.),
 the Gaussian 90(TM) system (copyright 1990, Gaussian, Inc.),
 the Gaussian 88(TM) system (copyright 1988, Gaussian, Inc.),
 the Gaussian 86(TM) system (copyright 1986, Carnegie Mellon
 University), and the Gaussian 82(TM) system (copyright 1983,
 Carnegie Mellon University). Gaussian is a federally registered
 trademark of Gaussian, Inc.
  
 This software contains proprietary and confidential information,
 including trade secrets, belonging to Gaussian, Inc.
  
 This software is provided under written license and may be
 used, copied, transmitted, or stored only in accord with that
 written license.
  
 The following legend is applicable only to US Government
 contracts under FAR:
  
                    RESTRICTED RIGHTS LEGEND
  
 Use, reproduction and disclosure by the US Government is
 subject to restrictions as set forth in subparagraphs (a)
 and (c) of the Commercial Computer Software - Restricted
 Rights clause in FAR 52.227-19.
  
 Gaussian, Inc.
 340 Quinnipiac St., Bldg. 40, Wallingford CT 06492
  
  
 ---------------------------------------------------------------
 Warning -- This program may not be used in any manner that
 competes with the business of Gaussian, Inc. or will provide
 assistance to any competitor of Gaussian, Inc.  The licensee
 of this program is prohibited from giving any competitor of
 Gaussian, Inc. access to this program.  By using this program,
 the user acknowledges that Gaussian, Inc. is engaged in the
 business of creating and licensing software in the field of
 computational chemistry and represents and warrants to the
 licensee that it is not a competitor of Gaussian, Inc. and that
 it will not use this program in any manner prohibited above.
 ---------------------------------------------------------------
  

 Cite this work as:
 Gaussian 09, Revision E.01,
 M. J. Frisch, G. W. Trucks, H. B. Schlegel, G. E. Scuseria, 
 M. A. Robb, J. R. Cheeseman, G. Scalmani, V. Barone, B. Mennucci, 
 G. A. Petersson, H. Nakatsuji, M. Caricato, X. Li, H. P. Hratchian, 
 A. F. Izmaylov, J. Bloino, G. Zheng, J. L. Sonnenberg, M. Hada, 
 M. Ehara, K. Toyota, R. Fukuda, J. Hasegawa, M. Ishida, T. Nakajima, 
 Y. Honda, O. Kitao, H. Nakai, T. Vreven, J. A. Montgomery, Jr., 
 J. E. Peralta, F. Ogliaro, M. Bearpark, J. J. Heyd, E. Brothers, 
 K. N. Kudin, V. N. Staroverov, T. Keith, R. Kobayashi, J. Normand, 
 K. Raghavachari, A. Rendell, J. C. Burant, S. S. Iyengar, J. Tomasi, 
 M. Cossi, N. Rega, J. M. Millam, M. Klene, J. E. Knox, J. B. Cross, 
 V. Bakken, C. Adamo, J. Jaramillo, R. Gomperts, R. E. Stratmann, 
 O. Yazyev, A. J. Austin, R. Cammi, C. Pomelli, J. W. Ochterski, 
 R. L. Martin, K. Morokuma, V. G. Zakrzewski, G. A. Voth, 
 P. Salvador, J. J. Dannenberg, S. Dapprich, A. D. Daniels, 
 O. Farkas, J. B. Foresman, J. V. Ortiz, J. Cioslowski, 
 and D. J. Fox, Gaussian, Inc., Wallingford CT, 2013.
 
 ******************************************
 Gaussian 09:  ES64L-G09RevE.01 30-Nov-2015
                13-Jan-2017 
 ******************************************
 -------------------------------------
 # b3lyp/6-31g(d) irc=(calcfc,forward)
 -------------------------------------
 1/10=4,14=-1,18=10,22=1,26=3,38=1,44=3/1,23;
 2/12=2,17=6,18=5,29=1,40=1/2;
 3/5=1,6=6,7=1,11=2,16=1,25=1,30=1,71=2,74=-5,140=1/1,2,3;
 4//1;
 5/5=2,38=5/2;
 8/6=4,10=90,11=11/1;
 11/6=1,8=1,9=11,15=111,16=1/1,2,10;
 10/6=1,13=1/2;
 6/7=2,8=2,9=2,10=2,28=1/1;
 7/10=1,18=20,25=1/1,2,3,16;
 1/10=4,14=-1,18=10,22=1,26=3,44=3/23(2);
 2/29=1/2;
 99/5=20/99;
 2/29=1/2;
 3/5=1,6=6,7=1,11=2,16=1,25=1,30=1,71=2,74=-5,140=1/1,2,3;
 4/5=5,16=3,69=1/1;
 5/5=2,38=5/2;
 8/6=4,10=90,11=11/1;
 11/6=1,8=1,9=11,15=111,16=1/1,2,10;
 10/6=1,13=1/2;
 7/10=1,18=20,25=1/1,2,3,16;
 1/14=-1,18=10,22=1,26=3,44=3/23(-8);
 2/29=1/2;
 6/7=2,8=2,9=2,10=2,19=2,28=1/1;
 99/5=20,9=1/99;
 ---------------------------------
 glo_2w_alpha_ts_boat3_B3LYP_631Gd
 ---------------------------------
 Symbolic Z-matrix:
 Charge =  0 Multiplicity = 1
 6                     1.03472   0.20689   1.09805 
 6                     0.48356  -1.52273  -0.7455 
 8                    -0.52196   0.68862  -0.78341 
 6                    -0.9036   -0.89479  -0.63203 
 6                     0.52909   1.23103   0.06901 
 6                     1.36316  -1.17367   0.46521 
 1                     1.17851  -1.9212    1.24761 
 1                     0.96208  -1.09423  -1.63807 
 1                     0.08074   2.0584    0.63624 
 1                     1.9569    0.62593   1.51808 
 6                     1.63562   1.78857  -0.84059 
 1                     1.17345   2.39206  -1.63649 
 1                     2.19087   0.97363  -1.31009 
 8                     2.59602   2.53246  -0.1006 
 1                     2.15357   3.31945   0.25513 
 8                     0.31847  -2.92292  -0.90361 
 1                     1.21121  -3.28753  -1.01596 
 8                     2.70636  -1.27536  -0.02316 
 1                     3.30834  -1.17497   0.73117 
 8                     0.12929   0.06669   2.1765 
 1                    -0.63405  -0.43411   1.80319 
 1                    -1.46374  -0.98588  -1.57588 
 8                    -1.58044  -1.13741   0.46091 
 8                    -2.62463   1.86217  -0.53291 
 1                    -1.57928   1.33235  -0.6819 
 1                    -2.98289   2.09384  -1.40517 
 8                    -3.79273  -0.07762   0.33501 
 1                    -2.86201  -0.66388   0.40926 
 1                    -3.27552   1.02624  -0.09484 
 1                    -4.11658   0.03497   1.24301 
 
 IRC-IRC-IRC-IRC-IRC-IRC-IRC-IRC-IRC-IRC-IRC-IRC-IRC-IRC-IRC-IRC-IRC-IRC
 ------------------------------------------------------------------------
 INPUT DATA FOR L123
 ------------------------------------------------------------------------
 GENERAL PARAMETERS:
 Rxn path following direction = Forward
 Maximum points per path      =  10
 Step size                    =   0.100 bohr
 Integration scheme           = HPC                                 
    Redo corrector integration= Yes                                 
    DWI Weight Power          =  2
    DWI will use Hessian update vectors when possible.
    Max correction cycles     =  20
 Initial Hessian              = CalcFC
 Hessian evaluation           = All updating
 Hessian updating method      = Bofill                              
 ------------------------------------------------------------------------
 IRC-IRC-IRC-IRC-IRC-IRC-IRC-IRC-IRC-IRC-IRC-IRC-IRC-IRC-IRC-IRC-IRC-IRC
                          Input orientation:                          
 ---------------------------------------------------------------------
 Center     Atomic      Atomic             Coordinates (Angstroms)
 Number     Number       Type             X           Y           Z
 ---------------------------------------------------------------------
      1          6           0        1.034724    0.206886    1.098052
      2          6           0        0.483562   -1.522733   -0.745496
      3          8           0       -0.521962    0.688624   -0.783413
      4          6           0       -0.903596   -0.894787   -0.632031
      5          6           0        0.529088    1.231026    0.069013
      6          6           0        1.363158   -1.173674    0.465207
      7          1           0        1.178512   -1.921196    1.247609
      8          1           0        0.962075   -1.094232   -1.638071
      9          1           0        0.080736    2.058404    0.636239
     10          1           0        1.956898    0.625927    1.518077
     11          6           0        1.635621    1.788574   -0.840591
     12          1           0        1.173447    2.392059   -1.636486
     13          1           0        2.190874    0.973631   -1.310086
     14          8           0        2.596022    2.532462   -0.100604
     15          1           0        2.153571    3.319453    0.255128
     16          8           0        0.318468   -2.922923   -0.903611
     17          1           0        1.211205   -3.287530   -1.015959
     18          8           0        2.706361   -1.275356   -0.023159
     19          1           0        3.308340   -1.174972    0.731173
     20          8           0        0.129294    0.066691    2.176495
     21          1           0       -0.634053   -0.434106    1.803191
     22          1           0       -1.463736   -0.985882   -1.575884
     23          8           0       -1.580444   -1.137409    0.460913
     24          8           0       -2.624630    1.862174   -0.532907
     25          1           0       -1.579279    1.332349   -0.681900
     26          1           0       -2.982893    2.093841   -1.405169
     27          8           0       -3.792726   -0.077618    0.335009
     28          1           0       -2.862007   -0.663879    0.409260
     29          1           0       -3.275517    1.026243   -0.094837
     30          1           0       -4.116575    0.034973    1.243014
 ---------------------------------------------------------------------
                    Distance matrix (angstroms):
                    1          2          3          4          5
     1  C    0.000000
     2  C    2.587282   0.000000
     3  O    2.489027   2.429530   0.000000
     4  C    2.822048   1.526892   1.635772   0.000000
     5  C    1.537352   2.872053   1.457922   2.657654   0.000000
     6  C    1.553804   1.536663   2.929314   2.533749   2.575893
     7  H    2.138171   2.148068   3.718578   2.986927   3.427440
     8  H    3.030603   1.099672   2.472121   2.128996   2.916923
     9  H    2.133421   3.859534   2.062754   3.361362   1.098781
    10  H    1.096550   3.451264   3.383125   3.888182   2.122398
    11  C    2.573160   3.507283   2.422462   3.700209   1.537093
    12  H    3.503130   4.073745   2.550262   4.015768   2.161463
    13  H    2.779156   3.076607   2.778146   3.677838   2.174787
    14  O    3.046758   4.617681   3.686162   4.927045   2.448412
    15  H    3.413270   5.218903   3.893367   5.281396   2.652378
    16  O    3.783567   1.418728   3.709992   2.383387   4.271493
    17  H    4.087925   1.927984   4.343702   3.216365   4.696786
    18  O    2.499705   2.350277   3.854513   3.680672   3.321290
    19  H    2.685789   3.206378   4.520860   4.435903   3.735174
    20  O    1.415096   3.345117   3.093863   3.143107   2.440695
    21  H    1.921694   2.988307   2.821986   2.493028   2.670755
    22  H    3.849017   2.183969   2.078201   1.101324   3.404661
    23  O    3.008684   2.421573   2.450128   1.308249   3.195809
    24  O    4.334845   4.600396   2.420989   3.251556   3.272093
    25  H    3.356770   3.522904   1.242017   2.327911   2.240390
    26  H    5.095877   5.052830   2.901275   3.721977   3.905339
    27  O    4.895656   4.641389   3.540606   3.154363   4.523426
    28  H    4.051812   3.641967   2.954242   2.230018   3.899482
    29  H    4.546703   4.588171   2.858354   3.099184   3.813634
    30  H    5.156205   5.248036   4.177907   3.834512   4.938725
                    6          7          8          9         10
     6  C    0.000000
     7  H    1.097741   0.000000
     8  H    2.142652   3.009628   0.000000
     9  H    3.481406   4.173260   3.986020   0.000000
    10  H    2.167862   2.677102   3.729596   2.519844   0.000000
    11  C    3.248732   4.281579   3.065976   2.161366   2.649204
    12  H    4.143375   5.188661   3.492693   2.543742   3.699228
    13  H    2.906492   3.993332   2.427669   3.068810   2.859047
    14  O    3.946586   4.864369   4.264563   2.663519   2.581372
    15  H    4.566955   5.422191   4.948180   2.456041   2.981410
    16  O    2.454570   2.524060   2.073107   5.219317   4.598191
    17  H    2.585600   2.644178   2.293392   5.708479   4.721498
    18  O    1.432842   2.089565   2.383963   4.294493   2.559684
    19  H    1.963281   2.315108   3.335385   4.569591   2.385131
    20  O    2.447332   2.432156   4.073350   2.518267   2.021484
    21  H    2.515157   2.409461   3.850412   2.843467   2.813892
    22  H    3.491797   3.978492   2.429026   4.067746   4.885822
    23  O    2.943829   2.974063   3.297272   3.606034   4.091422
    24  O    5.110289   5.652258   4.777675   2.953712   5.169646
    25  H    4.031618   4.681236   3.641571   2.240602   4.224154
    26  H    5.750054   6.362000   5.077482   3.681633   5.924667
    27  O    5.272706   5.380040   5.247350   4.433626   5.912089
    28  H    4.256177   4.313869   4.358942   4.015231   5.110276
    29  H    5.164358   5.507080   4.983490   3.586678   5.489983
    30  H    5.665094   5.644871   5.947137   4.698922   6.108352
                   11         12         13         14         15
    11  C    0.000000
    12  H    1.100567   0.000000
    13  H    1.092183   1.775847   0.000000
    14  O    1.422435   2.098182   2.014186   0.000000
    15  H    1.952553   2.323555   2.820313   0.970393   0.000000
    16  O    4.892552   5.432967   4.342149   5.966012   6.608898
    17  H    5.096834   5.713511   4.382209   6.052099   6.793816
    18  O    3.346991   4.289823   2.641941   3.810203   4.636301
    19  H    3.748471   4.784066   3.167327   3.865788   4.664758
    20  O    3.786385   4.586547   4.150771   4.165328   4.286002
    21  H    4.132954   4.804752   4.433332   4.781040   4.925094
    22  H    4.224249   4.285895   4.155300   5.571071   5.913833
    23  O    4.538542   4.943697   4.670735   5.588034   5.817975
    24  O    4.271981   3.990495   4.958084   5.281229   5.057259
    25  H    3.250985   3.100277   3.838926   4.383071   4.331371
    26  H    4.662897   4.173440   5.294504   5.746179   5.535519
    27  O    5.859322   5.886338   6.294039   6.915083   6.848717
    28  H    5.273074   5.459737   5.582938   6.345600   6.406771
    29  H    5.025592   4.902593   5.600092   6.061658   5.903921
    30  H    6.364298   6.467744   6.869011   7.287093   7.146920
                   16         17         18         19         20
    16  O    0.000000
    17  H    0.970845   0.000000
    18  O    3.031783   2.696291   0.000000
    19  H    3.829776   3.451572   0.970295   0.000000
    20  O    4.296584   4.755323   3.644289   3.706348   0.000000
    21  H    3.798458   4.415270   3.898926   4.152176   0.986333
    22  H    2.716676   3.573011   4.459199   5.303864   4.210226
    23  O    2.942083   3.820664   4.316254   4.896393   2.704863
    24  O    5.629956   6.439443   6.206722   6.783973   4.260131
    25  H    4.664541   5.407558   5.059721   5.672059   3.562518
    26  H    6.026480   6.833820   6.754928   7.404641   5.159783
    27  O    5.150908   6.096554   6.618232   7.196268   4.335220
    28  H    4.116106   5.050332   5.618506   6.199841   3.550315
    29  H    5.400625   6.291882   6.409786   6.991052   4.203859
    30  H    5.746891   6.672872   7.062054   7.540246   4.347390
                   21         22         23         24         25
    21  H    0.000000
    22  H    3.522922   0.000000
    23  O    1.786617   2.045757   0.000000
    24  O    3.833100   3.247599   3.327987   0.000000
    25  H    3.192098   2.487318   2.721347   1.181386   0.000000
    26  H    4.711808   3.438266   3.986239   0.971011   1.753032
    27  O    3.501408   3.146530   2.456257   2.424978   2.814509
    28  H    2.638109   2.449417   1.367224   2.706468   2.611694
    29  H    3.565454   3.086211   2.804197   1.146447   1.820870
    30  H    3.558341   4.003234   2.901400   2.952704   3.438946
                   26         27         28         29         30
    26  H    0.000000
    27  O    2.898152   0.000000
    28  H    3.303299   1.102476   0.000000
    29  H    1.715332   1.292587   1.811523   0.000000
    30  H    3.540769   0.970581   1.660566   1.865433   0.000000
 Symmetry turned off by external request.
 Stoichiometry    C6H16O8
 Framework group  C1[X(C6H16O8)]
 Deg. of freedom    84
 Full point group                 C1      NOp   1
 Rotational constants (GHZ):      0.7462384      0.5358444      0.3938602
 Standard basis: 6-31G(d) (6D, 7F)
   242 basis functions,   456 primitive gaussians,   242 cartesian basis functions
    58 alpha electrons       58 beta electrons
       nuclear repulsion energy      1123.1972074783 Hartrees.
 NAtoms=   30 NActive=   30 NUniq=   30 SFac= 1.00D+00 NAtFMM=   60 NAOKFM=F Big=F
 Integral buffers will be    131072 words long.
 Raffenetti 2 integral format.
 Two-electron integral symmetry is turned off.
 One-electron integrals computed using PRISM.
 NBasis=   242 RedAO= T EigKep=  1.13D-03  NBF=   242
 NBsUse=   242 1.00D-06 EigRej= -1.00D+00 NBFU=   242
 ExpMin= 1.61D-01 ExpMax= 5.48D+03 ExpMxC= 8.25D+02 IAcc=1 IRadAn=         1 AccDes= 0.00D+00
 Harris functional with IExCor=  402 and IRadAn=       1 diagonalized for initial guess.
 HarFok:  IExCor=  402 AccDes= 0.00D+00 IRadAn=         1 IDoV= 1 UseB2=F ITyADJ=14
 ICtDFT=  3500011 ScaDFX=  1.000000  1.000000  1.000000  1.000000
 FoFCou: FMM=F IPFlag=           0 FMFlag=      100000 FMFlg1=           0
         NFxFlg=           0 DoJE=T BraDBF=F KetDBF=T FulRan=T
         wScrn=  0.000000 ICntrl=     500 IOpCl=  0 I1Cent=   200000004 NGrid=           0
         NMat0=    1 NMatS0=      1 NMatT0=    0 NMatD0=    1 NMtDS0=    0 NMtDT0=    0
 Symmetry not used in FoFCou.
 Requested convergence on RMS density matrix=1.00D-08 within 128 cycles.
 Requested convergence on MAX density matrix=1.00D-06.
 Requested convergence on             energy=1.00D-06.
 No special actions if energy rises.
 Integral accuracy reduced to 1.0D-05 until final iterations.
 Initial convergence to 1.0D-05 achieved.  Increase integral accuracy.
 SCF Done:  E(RB3LYP) =  -839.961356260     A.U. after   14 cycles
            NFock= 14  Conv=0.57D-08     -V/T= 2.0086
 DoSCS=F DFT=T ScalE2(SS,OS)=  1.000000  1.000000
 Range of M.O.s used for correlation:     1   242
 NBasis=   242 NAE=    58 NBE=    58 NFC=     0 NFV=     0
 NROrb=    242 NOA=    58 NOB=    58 NVA=   184 NVB=   184
 Symmetrizing basis deriv contribution to polar:
 IMax=3 JMax=2 DiffMx= 0.00D+00
 G2DrvN: will do    31 centers at a time, making    1 passes.
 Calling FoFCou, ICntrl=  3107 FMM=F I1Cent=   0 AccDes= 0.00D+00.
 End of G2Drv F.D. properties file   721 does not exist.
 End of G2Drv F.D. properties file   722 does not exist.
 End of G2Drv F.D. properties file   788 does not exist.
          IDoAtm=111111111111111111111111111111
          Differentiating once with respect to nuclear coordinates.
          There are    93 degrees of freedom in the 1st order CPHF.  IDoFFX=6 NUNeed=     0.
     87 vectors produced by pass  0 Test12= 1.15D-14 1.08D-09 XBig12= 1.22D-01 8.93D-02.
 AX will form    87 AO Fock derivatives at one time.
     87 vectors produced by pass  1 Test12= 1.15D-14 1.08D-09 XBig12= 1.19D-02 1.27D-02.
     87 vectors produced by pass  2 Test12= 1.15D-14 1.08D-09 XBig12= 1.37D-04 2.40D-03.
     87 vectors produced by pass  3 Test12= 1.15D-14 1.08D-09 XBig12= 3.00D-07 7.00D-05.
     87 vectors produced by pass  4 Test12= 1.15D-14 1.08D-09 XBig12= 4.98D-10 2.18D-06.
     67 vectors produced by pass  5 Test12= 1.15D-14 1.08D-09 XBig12= 4.15D-13 4.79D-08.
      2 vectors produced by pass  6 Test12= 1.15D-14 1.08D-09 XBig12= 3.18D-16 1.63D-09.
 InvSVY:  IOpt=1 It=  1 EMax= 4.72D-16
 Solved reduced A of dimension   504 with    93 vectors.
 End of Minotr F.D. properties file   721 does not exist.
 End of Minotr F.D. properties file   722 does not exist.
 End of Minotr F.D. properties file   788 does not exist.

 **********************************************************************

            Population analysis using the SCF density.

 **********************************************************************

 Alpha  occ. eigenvalues --  -19.18632 -19.17973 -19.16098 -19.15387 -19.15368
 Alpha  occ. eigenvalues --  -19.14138 -19.11660 -19.11034 -10.28595 -10.24449
 Alpha  occ. eigenvalues --  -10.23421 -10.23273 -10.23237 -10.23062  -1.06547
 Alpha  occ. eigenvalues --   -1.03935  -1.02716  -1.02302  -1.01471  -1.00996
 Alpha  occ. eigenvalues --   -0.99373  -0.97565  -0.77132  -0.75335  -0.68127
 Alpha  occ. eigenvalues --   -0.64464  -0.62015  -0.57373  -0.55854  -0.54874
 Alpha  occ. eigenvalues --   -0.54214  -0.53151  -0.51109  -0.50348  -0.48494
 Alpha  occ. eigenvalues --   -0.46452  -0.46286  -0.44894  -0.44400  -0.43362
 Alpha  occ. eigenvalues --   -0.41131  -0.40795  -0.39541  -0.38638  -0.37438
 Alpha  occ. eigenvalues --   -0.36355  -0.35322  -0.34798  -0.34383  -0.32584
 Alpha  occ. eigenvalues --   -0.31787  -0.30644  -0.28677  -0.27763  -0.27163
 Alpha  occ. eigenvalues --   -0.25757  -0.25049  -0.23796
 Alpha virt. eigenvalues --    0.04299   0.05458   0.06751   0.07060   0.08498
 Alpha virt. eigenvalues --    0.10392   0.11786   0.12220   0.12711   0.15063
 Alpha virt. eigenvalues --    0.15246   0.16626   0.17476   0.18822   0.20275
 Alpha virt. eigenvalues --    0.20570   0.22358   0.23869   0.24557   0.25093
 Alpha virt. eigenvalues --    0.26554   0.27561   0.28866   0.30605   0.32051
 Alpha virt. eigenvalues --    0.32409   0.33614   0.37765   0.52702   0.54289
 Alpha virt. eigenvalues --    0.54709   0.56599   0.57322   0.58538   0.59754
 Alpha virt. eigenvalues --    0.59977   0.61331   0.63076   0.64225   0.65390
 Alpha virt. eigenvalues --    0.67609   0.69129   0.69389   0.69799   0.74227
 Alpha virt. eigenvalues --    0.74948   0.76592   0.78705   0.79717   0.81357
 Alpha virt. eigenvalues --    0.81907   0.82155   0.82836   0.83836   0.85314
 Alpha virt. eigenvalues --    0.85733   0.87769   0.88081   0.88453   0.89879
 Alpha virt. eigenvalues --    0.90527   0.91343   0.92118   0.95070   0.96913
 Alpha virt. eigenvalues --    0.97653   0.99462   1.00102   1.01672   1.02908
 Alpha virt. eigenvalues --    1.03698   1.04834   1.05279   1.06657   1.07588
 Alpha virt. eigenvalues --    1.08508   1.12341   1.13328   1.15303   1.17427
 Alpha virt. eigenvalues --    1.18598   1.19328   1.23113   1.27144   1.27970
 Alpha virt. eigenvalues --    1.29191   1.32516   1.34548   1.35157   1.40132
 Alpha virt. eigenvalues --    1.42306   1.45381   1.47270   1.50866   1.51952
 Alpha virt. eigenvalues --    1.53857   1.55359   1.57517   1.58459   1.60484
 Alpha virt. eigenvalues --    1.62573   1.64772   1.66654   1.66888   1.67920
 Alpha virt. eigenvalues --    1.68758   1.70954   1.72455   1.73610   1.75082
 Alpha virt. eigenvalues --    1.76231   1.77485   1.78504   1.79594   1.80312
 Alpha virt. eigenvalues --    1.81205   1.84050   1.84884   1.85198   1.86305
 Alpha virt. eigenvalues --    1.88384   1.89893   1.90606   1.93390   1.96094
 Alpha virt. eigenvalues --    1.97794   1.98628   2.01328   2.05479   2.06888
 Alpha virt. eigenvalues --    2.07932   2.10115   2.10275   2.15632   2.17153
 Alpha virt. eigenvalues --    2.19699   2.24264   2.26039   2.27630   2.31937
 Alpha virt. eigenvalues --    2.33732   2.35787   2.36709   2.39068   2.40800
 Alpha virt. eigenvalues --    2.43203   2.44796   2.48820   2.50219   2.52869
 Alpha virt. eigenvalues --    2.53899   2.55141   2.58628   2.59770   2.60998
 Alpha virt. eigenvalues --    2.64730   2.66726   2.67870   2.70876   2.75874
 Alpha virt. eigenvalues --    2.80764   2.82923   2.84727   2.90962   2.91212
 Alpha virt. eigenvalues --    2.93727   2.98721   3.03793   3.08101   3.12989
 Alpha virt. eigenvalues --    3.70108   3.75898   3.81028   3.88023   3.90089
 Alpha virt. eigenvalues --    3.98583   4.05756   4.16082   4.25754   4.37662
 Alpha virt. eigenvalues --    4.55491   4.59318   4.64424   4.93219
          Condensed to atoms (all electrons):
               1          2          3          4          5          6
     1  C    4.973604  -0.025613  -0.026613   0.006143   0.304808   0.254942
     2  C   -0.025613   4.948419  -0.024295   0.304590  -0.019395   0.293734
     3  O   -0.026613  -0.024295   8.643303   0.066136   0.115238  -0.010847
     4  C    0.006143   0.304590   0.066136   4.778565  -0.009724  -0.021995
     5  C    0.304808  -0.019395   0.115238  -0.009724   5.108140  -0.019111
     6  C    0.254942   0.293734  -0.010847  -0.021995  -0.019111   5.096047
     7  H   -0.056535  -0.037063   0.000255  -0.005784   0.006374   0.349359
     8  H    0.000262   0.344888   0.005324  -0.049254  -0.000008  -0.054251
     9  H   -0.041383   0.000120  -0.032993   0.000934   0.357677   0.005027
    10  H    0.363360   0.004235   0.003227  -0.000074  -0.053414  -0.041734
    11  C   -0.033492  -0.000948  -0.032747   0.000722   0.287158  -0.002192
    12  H    0.005095   0.000025   0.006138  -0.000027  -0.047869  -0.000285
    13  H   -0.009668  -0.002014   0.001879   0.000145  -0.035957   0.001452
    14  O   -0.004541   0.000051   0.001466  -0.000009  -0.039447  -0.000187
    15  H   -0.000864   0.000001   0.000002  -0.000001  -0.002865   0.000018
    16  O    0.003703   0.246180   0.000876  -0.041277  -0.000022  -0.039920
    17  H    0.000367  -0.027505  -0.000088   0.007646  -0.000031  -0.004882
    18  O   -0.032548  -0.040668  -0.000003   0.002518   0.000150   0.185957
    19  H   -0.003354   0.007069   0.000007  -0.000287  -0.000158  -0.023652
    20  O    0.243469   0.001619   0.001182   0.005173  -0.043573  -0.037583
    21  H   -0.040110  -0.003788  -0.000561  -0.005887  -0.000221  -0.000787
    22  H   -0.000490  -0.062899  -0.042948   0.369315   0.004258   0.006857
    23  O    0.004242  -0.049009  -0.054144   0.275204   0.000137  -0.001917
    24  O   -0.000286   0.000050  -0.098251   0.006456   0.004165   0.000000
    25  H    0.002497   0.001839   0.114686  -0.003682  -0.007370  -0.000171
    26  H    0.000008   0.000008   0.004139  -0.000053  -0.000102  -0.000000
    27  O   -0.000008  -0.000172  -0.000868   0.007853  -0.000034   0.000007
    28  H   -0.000102   0.002400   0.002598  -0.012706  -0.000068  -0.000125
    29  H    0.000015   0.000084   0.004461  -0.000194  -0.000036  -0.000003
    30  H   -0.000002   0.000005  -0.000011  -0.000260   0.000006  -0.000000
               7          8          9         10         11         12
     1  C   -0.056535   0.000262  -0.041383   0.363360  -0.033492   0.005095
     2  C   -0.037063   0.344888   0.000120   0.004235  -0.000948   0.000025
     3  O    0.000255   0.005324  -0.032993   0.003227  -0.032747   0.006138
     4  C   -0.005784  -0.049254   0.000934  -0.000074   0.000722  -0.000027
     5  C    0.006374  -0.000008   0.357677  -0.053414   0.287158  -0.047869
     6  C    0.349359  -0.054251   0.005027  -0.041734  -0.002192  -0.000285
     7  H    0.609270   0.007072  -0.000250  -0.001466  -0.000051   0.000010
     8  H    0.007072   0.651720   0.000078  -0.000334  -0.000198   0.000154
     9  H   -0.000250   0.000078   0.616674  -0.001312  -0.051923  -0.005493
    10  H   -0.001466  -0.000334  -0.001312   0.597783  -0.003354   0.000534
    11  C   -0.000051  -0.000198  -0.051923  -0.003354   4.962734   0.346693
    12  H    0.000010   0.000154  -0.005493   0.000534   0.346693   0.642618
    13  H    0.000153   0.004536   0.004940  -0.000146   0.373138  -0.037355
    14  O   -0.000006   0.000012   0.001279   0.015951   0.237870  -0.030283
    15  H   -0.000001   0.000002   0.006393  -0.000130  -0.032715  -0.006963
    16  O    0.001937  -0.038689   0.000003  -0.000054   0.000010  -0.000001
    17  H   -0.000509  -0.004703  -0.000000  -0.000005   0.000002  -0.000000
    18  O   -0.033374  -0.001552  -0.000139   0.000507  -0.001477   0.000146
    19  H   -0.004647  -0.000009   0.000003   0.005776   0.000153  -0.000009
    20  O    0.007659  -0.000071   0.003926  -0.036745   0.003781  -0.000073
    21  H    0.000844   0.000069  -0.000637   0.005797  -0.000040   0.000004
    22  H   -0.000153  -0.001844  -0.000131   0.000001  -0.000136  -0.000001
    23  O    0.002778   0.004051  -0.000227  -0.000017   0.000010   0.000006
    24  O    0.000000  -0.000001   0.003853   0.000003  -0.000185  -0.000008
    25  H    0.000007   0.000111  -0.004241  -0.000062  -0.000234   0.000902
    26  H    0.000000  -0.000001  -0.000188  -0.000000   0.000002   0.000008
    27  O    0.000001   0.000005   0.000017  -0.000000  -0.000000   0.000000
    28  H   -0.000016  -0.000093  -0.000010   0.000001   0.000004  -0.000001
    29  H   -0.000000  -0.000004  -0.000098  -0.000000   0.000011  -0.000001
    30  H   -0.000000  -0.000000  -0.000004   0.000000   0.000000  -0.000000
              13         14         15         16         17         18
     1  C   -0.009668  -0.004541  -0.000864   0.003703   0.000367  -0.032548
     2  C   -0.002014   0.000051   0.000001   0.246180  -0.027505  -0.040668
     3  O    0.001879   0.001466   0.000002   0.000876  -0.000088  -0.000003
     4  C    0.000145  -0.000009  -0.000001  -0.041277   0.007646   0.002518
     5  C   -0.035957  -0.039447  -0.002865  -0.000022  -0.000031   0.000150
     6  C    0.001452  -0.000187   0.000018  -0.039920  -0.004882   0.185957
     7  H    0.000153  -0.000006  -0.000001   0.001937  -0.000509  -0.033374
     8  H    0.004536   0.000012   0.000002  -0.038689  -0.004703  -0.001552
     9  H    0.004940   0.001279   0.006393   0.000003  -0.000000  -0.000139
    10  H   -0.000146   0.015951  -0.000130  -0.000054  -0.000005   0.000507
    11  C    0.373138   0.237870  -0.032715   0.000010   0.000002  -0.001477
    12  H   -0.037355  -0.030283  -0.006963  -0.000001  -0.000000   0.000146
    13  H    0.537663  -0.034357   0.007004   0.000005  -0.000006   0.010973
    14  O   -0.034357   8.228111   0.234151   0.000000  -0.000000  -0.000098
    15  H    0.007004   0.234151   0.404635   0.000000   0.000000  -0.000012
    16  O    0.000005   0.000000   0.000000   8.261773   0.235378  -0.000453
    17  H   -0.000006  -0.000000   0.000000   0.235378   0.386384   0.007664
    18  O    0.010973  -0.000098  -0.000012  -0.000453   0.007664   8.312223
    19  H   -0.000404  -0.000015   0.000003  -0.000159  -0.000414   0.231949
    20  O    0.000027  -0.000002  -0.000035  -0.000011  -0.000004   0.001623
    21  H    0.000005  -0.000001   0.000001  -0.000064  -0.000014  -0.000026
    22  H   -0.000021   0.000001  -0.000000   0.002695  -0.000495  -0.000063
    23  O    0.000007   0.000000  -0.000000   0.001699  -0.000078   0.000027
    24  O    0.000002   0.000000  -0.000000   0.000000  -0.000000   0.000000
    25  H   -0.000060   0.000010  -0.000004  -0.000014   0.000001  -0.000001
    26  H    0.000000  -0.000000   0.000000  -0.000000   0.000000  -0.000000
    27  O    0.000000   0.000000  -0.000000   0.000000  -0.000000   0.000000
    28  H    0.000000  -0.000000   0.000000  -0.000057   0.000007   0.000000
    29  H   -0.000000  -0.000000  -0.000000  -0.000000   0.000000  -0.000000
    30  H   -0.000000   0.000000   0.000000  -0.000000   0.000000  -0.000000
              19         20         21         22         23         24
     1  C   -0.003354   0.243469  -0.040110  -0.000490   0.004242  -0.000286
     2  C    0.007069   0.001619  -0.003788  -0.062899  -0.049009   0.000050
     3  O    0.000007   0.001182  -0.000561  -0.042948  -0.054144  -0.098251
     4  C   -0.000287   0.005173  -0.005887   0.369315   0.275204   0.006456
     5  C   -0.000158  -0.043573  -0.000221   0.004258   0.000137   0.004165
     6  C   -0.023652  -0.037583  -0.000787   0.006857  -0.001917   0.000000
     7  H   -0.004647   0.007659   0.000844  -0.000153   0.002778   0.000000
     8  H   -0.000009  -0.000071   0.000069  -0.001844   0.004051  -0.000001
     9  H    0.000003   0.003926  -0.000637  -0.000131  -0.000227   0.003853
    10  H    0.005776  -0.036745   0.005797   0.000001  -0.000017   0.000003
    11  C    0.000153   0.003781  -0.000040  -0.000136   0.000010  -0.000185
    12  H   -0.000009  -0.000073   0.000004  -0.000001   0.000006  -0.000008
    13  H   -0.000404   0.000027   0.000005  -0.000021   0.000007   0.000002
    14  O   -0.000015  -0.000002  -0.000001   0.000001   0.000000   0.000000
    15  H    0.000003  -0.000035   0.000001  -0.000000  -0.000000  -0.000000
    16  O   -0.000159  -0.000011  -0.000064   0.002695   0.001699   0.000000
    17  H   -0.000414  -0.000004  -0.000014  -0.000495  -0.000078  -0.000000
    18  O    0.231949   0.001623  -0.000026  -0.000063   0.000027   0.000000
    19  H    0.388783  -0.000009   0.000042   0.000006   0.000004   0.000000
    20  O   -0.000009   8.342520   0.212785  -0.000159  -0.031335   0.000007
    21  H    0.000042   0.212785   0.339676   0.001441   0.071807   0.000002
    22  H    0.000006  -0.000159   0.001441   0.649858  -0.049393   0.000715
    23  O    0.000004  -0.031335   0.071807  -0.049393   8.426278  -0.002274
    24  O    0.000000   0.000007   0.000002   0.000715  -0.002274   8.502826
    25  H   -0.000000  -0.000316   0.000109  -0.000931   0.006468   0.134090
    26  H   -0.000000  -0.000000   0.000000   0.000161   0.000033   0.234554
    27  O    0.000000  -0.000043   0.000736   0.002386  -0.086778  -0.098359
    28  H   -0.000000   0.000618  -0.001009  -0.005962   0.122869   0.006371
    29  H   -0.000000   0.000028   0.000011  -0.000429   0.005367   0.130729
    30  H   -0.000000   0.000010  -0.000003  -0.000072   0.004313   0.003928
              25         26         27         28         29         30
     1  C    0.002497   0.000008  -0.000008  -0.000102   0.000015  -0.000002
     2  C    0.001839   0.000008  -0.000172   0.002400   0.000084   0.000005
     3  O    0.114686   0.004139  -0.000868   0.002598   0.004461  -0.000011
     4  C   -0.003682  -0.000053   0.007853  -0.012706  -0.000194  -0.000260
     5  C   -0.007370  -0.000102  -0.000034  -0.000068  -0.000036   0.000006
     6  C   -0.000171  -0.000000   0.000007  -0.000125  -0.000003  -0.000000
     7  H    0.000007   0.000000   0.000001  -0.000016  -0.000000  -0.000000
     8  H    0.000111  -0.000001   0.000005  -0.000093  -0.000004  -0.000000
     9  H   -0.004241  -0.000188   0.000017  -0.000010  -0.000098  -0.000004
    10  H   -0.000062  -0.000000  -0.000000   0.000001  -0.000000   0.000000
    11  C   -0.000234   0.000002  -0.000000   0.000004   0.000011   0.000000
    12  H    0.000902   0.000008   0.000000  -0.000001  -0.000001  -0.000000
    13  H   -0.000060   0.000000   0.000000   0.000000  -0.000000  -0.000000
    14  O    0.000010  -0.000000   0.000000  -0.000000  -0.000000   0.000000
    15  H   -0.000004   0.000000  -0.000000   0.000000  -0.000000   0.000000
    16  O   -0.000014  -0.000000   0.000000  -0.000057  -0.000000  -0.000000
    17  H    0.000001   0.000000  -0.000000   0.000007   0.000000   0.000000
    18  O   -0.000001  -0.000000   0.000000   0.000000  -0.000000  -0.000000
    19  H   -0.000000  -0.000000   0.000000  -0.000000  -0.000000  -0.000000
    20  O   -0.000316  -0.000000  -0.000043   0.000618   0.000028   0.000010
    21  H    0.000109   0.000000   0.000736  -0.001009   0.000011  -0.000003
    22  H   -0.000931   0.000161   0.002386  -0.005962  -0.000429  -0.000072
    23  O    0.006468   0.000033  -0.086778   0.122869   0.005367   0.004313
    24  O    0.134090   0.234554  -0.098359   0.006371   0.130729   0.003928
    25  H    0.279008  -0.004890   0.004807  -0.000632  -0.006163  -0.000027
    26  H   -0.004890   0.352900   0.004166  -0.000246  -0.006175  -0.000133
    27  O    0.004807   0.004166   8.494752   0.137545   0.137470   0.232770
    28  H   -0.000632  -0.000246   0.137545   0.301256  -0.011631  -0.005654
    29  H   -0.006163  -0.006175   0.137470  -0.011631   0.290025  -0.006027
    30  H   -0.000027  -0.000133   0.232770  -0.005654  -0.006027   0.362720
 Mulliken charges:
               1
     1  C    0.113094
     2  C    0.138050
     3  O   -0.646545
     4  C    0.319817
     5  C    0.091291
     6  C    0.066241
     7  H    0.154138
     8  H    0.132729
     9  H    0.138104
    10  H    0.141673
    11  C   -0.052597
    12  H    0.126035
    13  H    0.178060
    14  O   -0.609956
    15  H    0.391380
    16  O   -0.633537
    17  H    0.401287
    18  O   -0.643324
    19  H    0.399321
    20  O   -0.674467
    21  H    0.419819
    22  H    0.128435
    23  O   -0.650127
    24  O   -0.828386
    25  H    0.484262
    26  H    0.415810
    27  O   -0.836252
    28  H    0.464642
    29  H    0.462561
    30  H    0.408442
 Sum of Mulliken charges =  -0.00000
 Mulliken charges with hydrogens summed into heavy atoms:
               1
     1  C    0.254767
     2  C    0.270778
     3  O   -0.646545
     4  C    0.448251
     5  C    0.229395
     6  C    0.220379
    11  C    0.251498
    14  O   -0.218576
    16  O   -0.232250
    18  O   -0.244003
    20  O   -0.254648
    23  O   -0.650127
    24  O    0.534247
    27  O    0.036833
 APT charges:
               1
     1  C   -0.370575
     2  C   -0.160733
     3  O   -0.389807
     4  C   -0.292687
     5  C   -0.263439
     6  C   -0.249010
     7  H    0.421738
     8  H    0.332656
     9  H    0.393126
    10  H    0.477376
    11  C   -0.591013
    12  H    0.420373
    13  H    0.332896
    14  O   -0.761107
    15  H    0.679243
    16  O   -0.884265
    17  H    0.764324
    18  O   -0.924878
    19  H    0.770713
    20  O   -0.534714
    21  H    0.390485
    22  H    0.453493
    23  O   -0.495015
    24  O   -1.161925
    25  H    0.399259
    26  H    0.844934
    27  O   -1.091421
    28  H    0.299457
    29  H    0.395885
    30  H    0.794631
 Sum of APT charges =  -0.00000
 APT charges with hydrogens summed into heavy atoms:
               1
     1  C    0.106801
     2  C    0.171923
     3  O   -0.389807
     4  C    0.160806
     5  C    0.129687
     6  C    0.172728
    11  C    0.162256
    14  O   -0.081865
    16  O   -0.119940
    18  O   -0.154166
    20  O   -0.144229
    23  O   -0.495015
    24  O    0.478153
    27  O    0.002667
 Electronic spatial extent (au):  <R**2>=           3039.0340
 Charge=             -0.0000 electrons
 Dipole moment (field-independent basis, Debye):
    X=             -1.0768    Y=              2.9646    Z=             -1.3004  Tot=              3.4117
 Quadrupole moment (field-independent basis, Debye-Ang):
   XX=            -77.9571   YY=            -80.8228   ZZ=            -83.1049
   XY=            -11.6731   XZ=              2.9851   YZ=             -3.3572
 Traceless Quadrupole moment (field-independent basis, Debye-Ang):
   XX=              2.6712   YY=             -0.1945   ZZ=             -2.4767
   XY=            -11.6731   XZ=              2.9851   YZ=             -3.3572
 Octapole moment (field-independent basis, Debye-Ang**2):
  XXX=            -47.0012  YYY=             33.8138  ZZZ=            -17.7613  XYY=             12.5275
  XXY=             -2.9239  XXZ=             27.5971  XZZ=            -21.1192  YZZ=              3.3335
  YYZ=             -1.1888  XYZ=             11.5745
 Hexadecapole moment (field-independent basis, Debye-Ang**3):
 XXXX=          -1736.0331 YYYY=          -1118.4126 ZZZZ=           -514.9710 XXXY=           -163.3097
 XXXZ=            -10.1359 YYYX=            -42.8416 YYYZ=              7.8029 ZZZX=             -7.5139
 ZZZY=            -17.3319 XXYY=           -499.8190 XXZZ=           -281.6341 YYZZ=           -265.1186
 XXYZ=            -33.0498 YYXZ=             28.1963 ZZXY=            -30.2570
 N-N= 1.123197207478D+03 E-N=-4.219373527900D+03  KE= 8.328222574787D+02
  Exact polarizability:   0.000   0.000   0.000   0.000   0.000   0.000
 Approx polarizability: 140.548   3.001 131.643  -3.243  -1.258 128.457
 Calling FoFJK, ICntrl=    100147 FMM=F ISym2X=0 I1Cent= 0 IOpClX= 0 NMat=1 NMatS=1 NMatT=0.
 -------------------------------------------------------------------
 Center     Atomic                   Forces (Hartrees/Bohr)
 Number     Number              X              Y              Z
 -------------------------------------------------------------------
      1        6           0.000001198   -0.000001045   -0.000001356
      2        6           0.000001369    0.000002247   -0.000004132
      3        8          -0.000003223    0.000001853    0.000003250
      4        6           0.000000204    0.000000116   -0.000001065
      5        6          -0.000000703   -0.000000145    0.000001228
      6        6           0.000002930    0.000000258   -0.000005691
      7        1           0.000002113   -0.000000433   -0.000003282
      8        1          -0.000000366    0.000002233   -0.000001513
      9        1          -0.000000008   -0.000000464    0.000001023
     10        1           0.000000504   -0.000000381   -0.000000088
     11        6          -0.000003105    0.000001341    0.000002827
     12        1          -0.000002857    0.000003362   -0.000000207
     13        1          -0.000002681    0.000000925   -0.000000330
     14        8          -0.000015833    0.000024822    0.000010256
     15        1           0.000010258   -0.000017757   -0.000005956
     16        8           0.000002239    0.000004352   -0.000009249
     17        1           0.000002863    0.000000987   -0.000004402
     18        8          -0.000003898    0.000005006   -0.000014013
     19        1           0.000005873    0.000000860    0.000003254
     20        8           0.000003413   -0.000006105   -0.000000562
     21        1           0.000000781   -0.000002479   -0.000000553
     22        1          -0.000000277    0.000000753   -0.000000378
     23        8           0.000003901   -0.000004317   -0.000001696
     24        8          -0.000013940    0.000011563   -0.000014492
     25        1          -0.000000405    0.000000419    0.000003113
     26        1           0.000009951   -0.000011532    0.000028348
     27        8          -0.000013823   -0.000005305    0.000042485
     28        1          -0.000000649   -0.000002289    0.000001099
     29        1          -0.000001007   -0.000001309    0.000005650
     30        1           0.000015179   -0.000007535   -0.000033570
 -------------------------------------------------------------------
 Cartesian Forces:  Max     0.000042485 RMS     0.000008928
 IRC-IRC-IRC-IRC-IRC-IRC-IRC-IRC-IRC-IRC-IRC-IRC-IRC-IRC-IRC-IRC-IRC-IRC
          ******** Start new reaction path calculation ********
 Supplied step size of   0.1000 bohr.
    Integration on MW PES will use step size of   0.1078 sqrt(amu)*bohr.
 Point Number:   0          Path Number:   1
 Calculating another point on the path.
 IRC-IRC-IRC-IRC-IRC-IRC-IRC-IRC-IRC-IRC-IRC-IRC-IRC-IRC-IRC-IRC-IRC-IRC
                          Input orientation:                          
 ---------------------------------------------------------------------
 Center     Atomic      Atomic             Coordinates (Angstroms)
 Number     Number       Type             X           Y           Z
 ---------------------------------------------------------------------
      1          6           0        1.022510    0.226716    1.091114
      2          6           0        0.470824   -1.503209   -0.752211
      3          8           0       -0.533814    0.706138   -0.790121
      4          6           0       -0.914515   -0.871460   -0.640131
      5          6           0        0.516241    1.249835    0.061654
      6          6           0        1.350698   -1.153931    0.458332
      7          1           0        1.166189   -1.901582    1.240730
      8          1           0        0.949129   -1.074578   -1.644701
      9          1           0        0.068168    2.077739    0.629016
     10          1           0        1.944645    0.645312    1.511643
     11          6           0        1.623078    1.808150   -0.847466
     12          1           0        1.160871    2.411665   -1.643354
     13          1           0        2.178477    0.993394   -1.317114
     14          8           0        2.583594    2.552232   -0.107552
     15          1           0        2.140865    3.338953    0.248394
     16          8           0        0.305989   -2.903325   -0.910513
     17          1           0        1.198781   -3.267840   -1.022658
     18          8           0        2.693898   -1.255687   -0.030116
     19          1           0        3.295813   -1.154970    0.724209
     20          8           0        0.116844    0.086367    2.169635
     21          1           0       -0.646714   -0.413603    1.796507
     22          1           0       -1.475575   -0.966606   -1.582571
     23          8           0       -1.594956   -1.117321    0.454441
     24          8           0       -2.636951    1.881431   -0.539768
     25          1           0       -1.621402    1.369814   -0.687401
     26          1           0       -2.992873    2.113984   -1.412840
     27          8           0       -3.803439   -0.056579    0.327307
     28          1           0       -2.852750   -0.650603    0.401711
     29          1           0       -3.302159    1.019649   -0.089802
     30          1           0       -4.127896    0.057448    1.235236
 ---------------------------------------------------------------------
                    Distance matrix (angstroms):
                    1          2          3          4          5
     1  C    0.000000
     2  C    2.587440   0.000000
     3  O    2.488178   2.427334   0.000000
     4  C    2.820508   1.526707   1.629800   0.000000
     5  C    1.537162   2.871183   1.457307   2.653198   0.000000
     6  C    1.553804   1.536746   2.927435   2.533299   2.575221
     7  H    2.138384   2.148033   3.716796   2.987996   3.426964
     8  H    3.030419   1.099564   2.469894   2.126873   2.915808
     9  H    2.133211   3.859159   2.063400   3.357704   1.099133
    10  H    1.096540   3.451568   3.382983   3.886583   2.123264
    11  C    2.572879   3.507401   2.422788   3.696306   1.537303
    12  H    3.502922   4.073886   2.551232   4.011558   2.161585
    13  H    2.779139   3.077048   2.777905   3.674587   2.174808
    14  O    3.046606   4.618007   3.686759   4.923624   2.449248
    15  H    3.412757   5.218887   3.894115   5.277538   2.653053
    16  O    3.783791   1.418645   3.707828   2.385626   4.270603
    17  H    4.087913   1.927948   4.341482   3.217917   4.695847
    18  O    2.499643   2.350478   3.852855   3.679728   3.320881
    19  H    2.685439   3.206501   4.519177   4.434937   3.734713
    20  O    1.415322   3.345032   3.093158   3.142598   2.440647
    21  H    1.921952   2.988661   2.820853   2.493703   2.670058
    22  H    3.848771   2.183096   2.076768   1.100924   3.403442
    23  O    3.010468   2.423296   2.449482   1.312072   3.196070
    24  O    4.334687   4.599911   2.422225   3.248887   3.271582
    25  H    3.385271   3.554697   1.278227   2.350582   2.268259
    26  H    5.094592   5.051506   2.901169   3.718807   3.903174
    27  O    4.894225   4.639765   3.538478   3.153703   4.520722
    28  H    4.032692   3.620029   2.939162   2.211552   3.882963
    29  H    4.552589   4.586829   2.872712   3.095157   3.828330
    30  H    5.155202   5.247268   4.176158   3.834800   4.936304
                    6          7          8          9         10
     6  C    0.000000
     7  H    1.097803   0.000000
     8  H    2.142500   3.009446   0.000000
     9  H    3.481050   4.173110   3.985346   0.000000
    10  H    2.167836   2.676949   3.729823   2.520326   0.000000
    11  C    3.248573   4.281521   3.065928   2.161115   2.649715
    12  H    4.143259   5.188649   3.492668   2.543456   3.699772
    13  H    2.906618   3.993517   2.427986   3.068652   2.859668
    14  O    3.946632   4.864501   4.264746   2.663652   2.581936
    15  H    4.566667   5.421986   4.948060   2.455933   2.981610
    16  O    2.454696   2.524140   2.072915   5.218976   4.598354
    17  H    2.585541   2.643983   2.293395   5.708023   4.721414
    18  O    1.432872   2.089528   2.384094   4.294257   2.559726
    19  H    1.963202   2.315064   3.335435   4.569153   2.384684
    20  O    2.447303   2.432269   4.073040   2.518222   2.021443
    21  H    2.515642   2.410309   3.850392   2.842689   2.813822
    22  H    3.491159   3.977955   2.427902   4.067222   4.885728
    23  O    2.945884   2.976111   3.298575   3.606227   4.093083
    24  O    5.109890   5.652012   4.776906   2.953348   5.169846
    25  H    4.063911   4.710667   3.674113   2.255828   4.251751
    26  H    5.748666   6.361132   5.075437   3.679736   5.923570
    27  O    5.271288   5.379180   5.245192   4.431217   5.910649
    28  H    4.233854   4.291942   4.338414   4.003409   5.091792
    29  H    5.164686   5.501822   4.987680   3.604908   5.498519
    30  H    5.664452   5.644924   5.945730   4.696386   6.107188
                   11         12         13         14         15
    11  C    0.000000
    12  H    1.100593   0.000000
    13  H    1.092183   1.775795   0.000000
    14  O    1.422576   2.098234   2.014234   0.000000
    15  H    1.952529   2.323567   2.820262   0.970379   0.000000
    16  O    4.892514   5.432955   4.342344   5.966183   6.608772
    17  H    5.096704   5.713447   4.382308   6.052137   6.793586
    18  O    3.346912   4.289777   2.642043   3.810304   4.636176
    19  H    3.748104   4.783745   3.167160   3.865544   4.664294
    20  O    3.786314   4.586490   4.150957   4.165444   4.285690
    21  H    4.132643   4.804389   4.433507   4.780849   4.924320
    22  H    4.223897   4.285704   4.155016   5.570885   5.913452
    23  O    4.539723   4.944601   4.672507   5.589431   5.818694
    24  O    4.271756   3.990301   4.957945   5.281181   5.056986
    25  H    3.277867   3.120953   3.870053   4.406396   4.348319
    26  H    4.660492   4.170772   5.292234   5.743937   5.533129
    27  O    5.856995   5.883885   6.292048   6.912972   6.846211
    28  H    5.257275   5.446919   5.565098   6.330192   6.393454
    29  H    5.045171   4.926446   5.616436   6.082040   5.926218
    30  H    6.362099   6.465267   6.867374   7.284993   7.144194
                   16         17         18         19         20
    16  O    0.000000
    17  H    0.970838   0.000000
    18  O    3.031818   2.696159   0.000000
    19  H    3.829897   3.451566   0.970284   0.000000
    20  O    4.296667   4.755210   3.644341   3.706213   0.000000
    21  H    3.799253   4.415905   3.899404   4.152465   0.986010
    22  H    2.715973   3.572304   4.458496   5.303098   4.209941
    23  O    2.943892   3.822502   4.318357   4.898348   2.705738
    24  O    5.629586   6.439023   6.206385   6.783440   4.259872
    25  H    4.693009   5.438168   5.093829   5.704926   3.582093
    26  H    6.025630   6.832733   6.753220   7.402743   5.159041
    27  O    5.150103   6.095639   6.616721   7.194676   4.333962
    28  H    4.095646   5.029280   5.596240   6.177638   3.533719
    29  H    5.392775   6.285797   6.413534   6.994627   4.203053
    30  H    5.747152   6.673014   7.061326   7.539400   4.346465
                   21         22         23         24         25
    21  H    0.000000
    22  H    3.522924   0.000000
    23  O    1.787603   2.046065   0.000000
    24  O    3.832285   3.247699   3.326668   0.000000
    25  H    3.209423   2.506283   2.736849   1.146685   0.000000
    26  H    4.710952   3.438174   3.985254   0.971090   1.720751
    27  O    3.500132   3.145589   2.453311   2.422477   2.797412
    28  H    2.620729   2.435947   1.342628   2.710009   2.604701
    29  H    3.558618   3.083825   2.788796   1.177981   1.817879
    30  H    3.557463   4.002940   2.899226   2.949656   3.420724
                   26         27         28         29         30
    26  H    0.000000
    27  O    2.897667   0.000000
    28  H    3.309860   1.123481   0.000000
    29  H    1.744609   1.258382   1.798137   0.000000
    30  H    3.539764   0.970881   1.679911   1.833957   0.000000
 Symmetry turned off by external request.
 Stoichiometry    C6H16O8
 Framework group  C1[X(C6H16O8)]
 Deg. of freedom    84
 Full point group                 C1      NOp   1
 Rotational constants (GHZ):      0.7464261      0.5359177      0.3939542
 Standard basis: 6-31G(d) (6D, 7F)
   242 basis functions,   456 primitive gaussians,   242 cartesian basis functions
    58 alpha electrons       58 beta electrons
       nuclear repulsion energy      1123.2411360743 Hartrees.
 NAtoms=   30 NActive=   30 NUniq=   30 SFac= 1.00D+00 NAtFMM=   60 NAOKFM=F Big=F
 Integral buffers will be    131072 words long.
 Raffenetti 2 integral format.
 Two-electron integral symmetry is turned off.
 One-electron integrals computed using PRISM.
 NBasis=   242 RedAO= T EigKep=  1.13D-03  NBF=   242
 NBsUse=   242 1.00D-06 EigRej= -1.00D+00 NBFU=   242
 Initial guess from the checkpoint file:  "/scratch/10461020.yak.local/Gau-21140.chk"
 B after Tr=    -0.023688    0.037156   -0.013012
         Rot=    1.000000   -0.000013   -0.000029   -0.000045 Ang=  -0.01 deg.
 ExpMin= 1.61D-01 ExpMax= 5.48D+03 ExpMxC= 8.25D+02 IAcc=1 IRadAn=         1 AccDes= 0.00D+00
 Harris functional with IExCor=  402 and IRadAn=       1 diagonalized for initial guess.
 HarFok:  IExCor=  402 AccDes= 0.00D+00 IRadAn=         1 IDoV= 1 UseB2=F ITyADJ=14
 ICtDFT=  3500011 ScaDFX=  1.000000  1.000000  1.000000  1.000000
 FoFCou: FMM=F IPFlag=           0 FMFlag=      100000 FMFlg1=           0
         NFxFlg=           0 DoJE=T BraDBF=F KetDBF=T FulRan=T
         wScrn=  0.000000 ICntrl=     500 IOpCl=  0 I1Cent=   200000004 NGrid=           0
         NMat0=    1 NMatS0=      1 NMatT0=    0 NMatD0=    1 NMtDS0=    0 NMtDT0=    0
 Symmetry not used in FoFCou.
 Requested convergence on RMS density matrix=1.00D-08 within 128 cycles.
 Requested convergence on MAX density matrix=1.00D-06.
 Requested convergence on             energy=1.00D-06.
 No special actions if energy rises.
 Integral accuracy reduced to 1.0D-05 until final iterations.
 Initial convergence to 1.0D-05 achieved.  Increase integral accuracy.
 SCF Done:  E(RB3LYP) =  -839.961643468     A.U. after   11 cycles
            NFock= 11  Conv=0.74D-08     -V/T= 2.0086
 DoSCS=F DFT=T ScalE2(SS,OS)=  1.000000  1.000000
 Range of M.O.s used for correlation:     1   242
 NBasis=   242 NAE=    58 NBE=    58 NFC=     0 NFV=     0
 NROrb=    242 NOA=    58 NOB=    58 NVA=   184 NVB=   184
 Symmetrizing basis deriv contribution to polar:
 IMax=3 JMax=2 DiffMx= 0.00D+00
 Calling FoFJK, ICntrl=      2147 FMM=F ISym2X=0 I1Cent= 0 IOpClX= 0 NMat=1 NMatS=1 NMatT=0.
 -------------------------------------------------------------------
 Center     Atomic                   Forces (Hartrees/Bohr)
 Number     Number              X              Y              Z
 -------------------------------------------------------------------
      1        6           0.000259278    0.000120546   -0.000001879
      2        6          -0.000304150   -0.000205487    0.000243938
      3        8           0.001163972   -0.003302070    0.000302161
      4        6           0.001655289    0.003804288   -0.001279500
      5        6          -0.000408484   -0.000957493   -0.000430093
      6        6           0.000001837    0.000028184    0.000063367
      7        1           0.000014099   -0.000010237    0.000002668
      8        1          -0.000047521   -0.000002130    0.000026614
      9        1          -0.000015940   -0.000036122   -0.000029007
     10        1           0.000017629   -0.000029494    0.000044511
     11        6          -0.000094385   -0.000145805    0.000068585
     12        1          -0.000013821   -0.000006933    0.000007321
     13        1           0.000003373    0.000005185   -0.000008107
     14        8           0.000020138    0.000098040    0.000001213
     15        1          -0.000011823   -0.000036061    0.000012158
     16        8          -0.000032606   -0.000161332    0.000043698
     17        1           0.000005861   -0.000002521    0.000016597
     18        8          -0.000018318   -0.000062714   -0.000037288
     19        1          -0.000000032    0.000026130    0.000000979
     20        8           0.000004449   -0.000070258    0.000108172
     21        1          -0.000008926    0.000076544    0.000036299
     22        1           0.000052176   -0.000036256    0.000033856
     23        8          -0.002983797    0.000546210    0.000673971
     24        8          -0.000139447    0.000388464   -0.000224469
     25        1          -0.002159342    0.001409253    0.000072459
     26        1           0.000238389    0.000049512    0.000011865
     27        8           0.001847961    0.002064062   -0.000979642
     28        1           0.002550834   -0.000957272   -0.000022163
     29        1          -0.001702664   -0.002838364    0.001374198
     30        1           0.000105973    0.000244130   -0.000132481
 -------------------------------------------------------------------
 Cartesian Forces:  Max     0.003804288 RMS     0.000933631
 IRC-IRC-IRC-IRC-IRC-IRC-IRC-IRC-IRC-IRC-IRC-IRC-IRC-IRC-IRC-IRC-IRC-IRC
 Pt  1 Step number   1 out of a maximum of  20
 Modified Bulirsch-Stoer Extrapolation Cycles:
    EPS =    0.000010000000000
 Maximum DWI energy   std dev =  0.000002872 at pt    52
 Maximum DWI gradient std dev =  0.104307277 at pt     3
 CORRECTOR INTEGRATION CONVERGENCE:
   Recorrection delta-x convergence threshold:    0.010000
   Delta-x Convergence Met
 Point Number:   1          Path Number:   1
   CHANGE IN THE REACTION COORDINATE =    0.10761
   NET REACTION COORDINATE UP TO THIS POINT =    0.10761
  # OF POINTS ALONG THE PATH =   1
  # OF STEPS =   1

 Calculating another point on the path.
 IRC-IRC-IRC-IRC-IRC-IRC-IRC-IRC-IRC-IRC-IRC-IRC-IRC-IRC-IRC-IRC-IRC-IRC
                          Input orientation:                          
 ---------------------------------------------------------------------
 Center     Atomic      Atomic             Coordinates (Angstroms)
 Number     Number       Type             X           Y           Z
 ---------------------------------------------------------------------
      1          6           0        1.022723    0.226821    1.091109
      2          6           0        0.470560   -1.503407   -0.751987
      3          8           0       -0.532986    0.703977   -0.789949
      4          6           0       -0.913102   -0.868257   -0.641338
      5          6           0        0.515961    1.249077    0.061341
      6          6           0        1.350714   -1.153904    0.458393
      7          1           0        1.166328   -1.901697    1.240766
      8          1           0        0.948539   -1.074542   -1.644402
      9          1           0        0.067842    2.077343    0.628655
     10          1           0        1.944811    0.645007    1.512096
     11          6           0        1.623010    1.808043   -0.847415
     12          1           0        1.160726    2.411586   -1.643252
     13          1           0        2.178528    0.993454   -1.317207
     14          8           0        2.583608    2.552274   -0.107551
     15          1           0        2.140678    3.338782    0.248539
     16          8           0        0.305970   -2.903419   -0.910486
     17          1           0        1.198803   -3.267874   -1.022516
     18          8           0        2.693877   -1.255728   -0.030138
     19          1           0        3.295780   -1.154730    0.724152
     20          8           0        0.116864    0.086327    2.169708
     21          1           0       -0.646909   -0.412767    1.797106
     22          1           0       -1.475178   -0.967016   -1.582171
     23          8           0       -1.596980   -1.116977    0.454918
     24          8           0       -2.637013    1.881650   -0.539834
     25          1           0       -1.645998    1.385235   -0.686644
     26          1           0       -2.990804    2.114725   -1.413475
     27          8           0       -3.802100   -0.055397    0.326661
     28          1           0       -2.827308   -0.658987    0.401241
     29          1           0       -3.318892    0.990982   -0.076288
     30          1           0       -4.127033    0.060185    1.234464
 ---------------------------------------------------------------------
                    Distance matrix (angstroms):
                    1          2          3          4          5
     1  C    0.000000
     2  C    2.587581   0.000000
     3  O    2.487225   2.425095   0.000000
     4  C    2.819218   1.526492   1.624344   0.000000
     5  C    1.536957   2.870493   1.456749   2.649355   0.000000
     6  C    1.553804   1.536829   2.925475   2.532956   2.574641
     7  H    2.138600   2.147973   3.714970   2.989037   3.426572
     8  H    3.030193   1.099452   2.467415   2.124712   2.914771
     9  H    2.133096   3.858773   2.063872   3.354355   1.099401
    10  H    1.096520   3.451836   3.382657   3.885217   2.123959
    11  C    2.572641   3.507556   2.422929   3.692819   1.537478
    12  H    3.502709   4.074046   2.552002   4.007738   2.161663
    13  H    2.779136   3.077490   2.777428   3.671640   2.174826
    14  O    3.046454   4.618314   3.687144   4.920563   2.449901
    15  H    3.412338   5.218921   3.894758   5.274147   2.653605
    16  O    3.783983   1.418537   3.705628   2.387564   4.269867
    17  H    4.087946   1.927918   4.339214   3.219254   4.695089
    18  O    2.499580   2.350649   3.851026   3.678858   3.320502
    19  H    2.685168   3.206623   4.517382   4.434109   3.734300
    20  O    1.415520   3.344945   3.092469   3.142299   2.440590
    21  H    1.922284   2.989332   2.820097   2.494862   2.669620
    22  H    3.848530   2.182388   2.075465   1.100386   3.402474
    23  O    3.012205   2.425009   2.449009   1.315799   3.196503
    24  O    4.334986   4.600069   2.424129   3.247178   3.271514
    25  H    3.409457   3.581667   1.309038   2.370108   2.291743
    26  H    5.093675   5.050692   2.901700   3.716346   3.901516
    27  O    4.893153   4.638517   3.537029   3.153422   4.518594
    28  H    4.010401   3.594289   2.922416   2.189738   3.864413
    29  H    4.560305   4.586774   2.890148   3.092552   3.845992
    30  H    5.154445   5.246776   4.174911   3.835360   4.934275
                    6          7          8          9         10
     6  C    0.000000
     7  H    1.097862   0.000000
     8  H    2.142380   3.009287   0.000000
     9  H    3.480763   4.173023   3.984570   0.000000
    10  H    2.167792   2.676819   3.729999   2.520926   0.000000
    11  C    3.248447   4.281498   3.065844   2.160984   2.650189
    12  H    4.143153   5.188641   3.492580   2.543162   3.700245
    13  H    2.906746   3.993704   2.428278   3.068582   2.860244
    14  O    3.946654   4.864618   4.264875   2.663952   2.582438
    15  H    4.566432   5.421853   4.947914   2.456088   2.981839
    16  O    2.454817   2.524193   2.072757   5.218588   4.598482
    17  H    2.585544   2.643849   2.293486   5.707608   4.721380
    18  O    1.432871   2.089469   2.384299   4.294116   2.559762
    19  H    1.963138   2.315042   3.335569   4.568917   2.384330
    20  O    2.447276   2.432396   4.072682   2.518213   2.021377
    21  H    2.516333   2.411277   3.850634   2.841970   2.813739
    22  H    3.490629   3.977455   2.426899   4.066544   4.885635
    23  O    2.947927   2.978122   3.299790   3.606313   4.094691
    24  O    5.110089   5.652403   4.776540   2.952948   5.170379
    25  H    4.091285   4.735821   3.701274   2.268539   4.275079
    26  H    5.747747   6.360691   5.073774   3.677908   5.922781
    27  O    5.270252   5.378632   5.243312   4.429021   5.909552
    28  H    4.207621   4.265942   4.314437   3.990127   5.070258
    29  H    5.166395   5.497220   4.993631   3.625892   5.509014
    30  H    5.664098   5.645236   5.944485   4.693922   6.106258
                   11         12         13         14         15
    11  C    0.000000
    12  H    1.100603   0.000000
    13  H    1.092182   1.775761   0.000000
    14  O    1.422683   2.098276   2.014269   0.000000
    15  H    1.952500   2.323547   2.820205   0.970351   0.000000
    16  O    4.892489   5.432940   4.342524   5.966317   6.608674
    17  H    5.096621   5.713407   4.382421   6.052187   6.793424
    18  O    3.346848   4.289741   2.642148   3.810385   4.636077
    19  H    3.747800   4.783478   3.167032   3.865333   4.663916
    20  O    3.786266   4.586408   4.151134   4.165529   4.285461
    21  H    4.132556   4.804224   4.433903   4.780735   4.923700
    22  H    4.223693   4.285635   4.154902   5.570785   5.913189
    23  O    4.540941   4.945504   4.674270   5.590804   5.819490
    24  O    4.271747   3.990136   4.958089   5.281239   5.056788
    25  H    3.300156   3.137865   3.895909   4.425709   4.362320
    26  H    4.658514   4.168468   5.290417   5.742034   5.531068
    27  O    5.855141   5.881853   6.290493   6.911277   6.844207
    28  H    5.239343   5.432567   5.544549   6.312613   6.378587
    29  H    5.068000   4.953834   5.635736   6.105581   5.951856
    30  H    6.360206   6.463027   6.866011   7.283146   7.141810
                   16         17         18         19         20
    16  O    0.000000
    17  H    0.970839   0.000000
    18  O    3.031832   2.696070   0.000000
    19  H    3.830004   3.451600   0.970279   0.000000
    20  O    4.296736   4.755160   3.644370   3.706125   0.000000
    21  H    3.800313   4.416849   3.900032   4.152895   0.985533
    22  H    2.715383   3.571741   4.457935   5.302490   4.209599
    23  O    2.945662   3.824339   4.320415   4.900308   2.706605
    24  O    5.629869   6.439260   6.206555   6.783458   4.260122
    25  H    4.717291   5.464167   5.122519   5.732620   3.599110
    26  H    6.025238   6.832132   6.751975   7.401346   5.158605
    27  O    5.149563   6.095024   6.615574   7.193499   4.333034
    28  H    4.071306   5.004293   5.570070   6.151605   3.514416
    29  H    5.385339   6.280348   6.418974   6.999906   4.203251
    30  H    5.747632   6.673414   7.060854   7.538872   4.345806
                   21         22         23         24         25
    21  H    0.000000
    22  H    3.523171   0.000000
    23  O    1.788859   2.046229   0.000000
    24  O    3.832252   3.248265   3.326103   0.000000
    25  H    3.224903   2.522743   2.750750   1.118075   0.000000
    26  H    4.710615   3.438416   3.984662   0.970949   1.693796
    27  O    3.499308   3.144719   2.450705   2.420825   2.784058
    28  H    2.600616   2.420137   1.313904   2.716003   2.599582
    29  H    3.552410   3.082325   2.773203   1.213723   1.823882
    30  H    3.556897   4.002612   2.897338   2.947206   3.406163
                   26         27         28         29         30
    26  H    0.000000
    27  O    2.897535   0.000000
    28  H    3.318645   1.148957   0.000000
    29  H    1.777220   1.220970   1.786642   0.000000
    30  H    3.538889   0.971105   1.703159   1.799318   0.000000
 Symmetry turned off by external request.
 Stoichiometry    C6H16O8
 Framework group  C1[X(C6H16O8)]
 Deg. of freedom    84
 Full point group                 C1      NOp   1
 Rotational constants (GHZ):      0.7465508      0.5359576      0.3940174
 Standard basis: 6-31G(d) (6D, 7F)
   242 basis functions,   456 primitive gaussians,   242 cartesian basis functions
    58 alpha electrons       58 beta electrons
       nuclear repulsion energy      1123.2809241787 Hartrees.
 NAtoms=   30 NActive=   30 NUniq=   30 SFac= 1.00D+00 NAtFMM=   60 NAOKFM=F Big=F
 Integral buffers will be    131072 words long.
 Raffenetti 2 integral format.
 Two-electron integral symmetry is turned off.
 One-electron integrals computed using PRISM.
 NBasis=   242 RedAO= T EigKep=  1.13D-03  NBF=   242
 NBsUse=   242 1.00D-06 EigRej= -1.00D+00 NBFU=   242
 Initial guess from the checkpoint file:  "/scratch/10461020.yak.local/Gau-21140.chk"
 B after Tr=    -0.000107   -0.000149    0.000112
         Rot=    1.000000   -0.000015   -0.000032   -0.000052 Ang=  -0.01 deg.
 ExpMin= 1.61D-01 ExpMax= 5.48D+03 ExpMxC= 8.25D+02 IAcc=1 IRadAn=         1 AccDes= 0.00D+00
 Harris functional with IExCor=  402 and IRadAn=       1 diagonalized for initial guess.
 HarFok:  IExCor=  402 AccDes= 0.00D+00 IRadAn=         1 IDoV= 1 UseB2=F ITyADJ=14
 ICtDFT=  3500011 ScaDFX=  1.000000  1.000000  1.000000  1.000000
 FoFCou: FMM=F IPFlag=           0 FMFlag=      100000 FMFlg1=           0
         NFxFlg=           0 DoJE=T BraDBF=F KetDBF=T FulRan=T
         wScrn=  0.000000 ICntrl=     500 IOpCl=  0 I1Cent=   200000004 NGrid=           0
         NMat0=    1 NMatS0=      1 NMatT0=    0 NMatD0=    1 NMtDS0=    0 NMtDT0=    0
 Symmetry not used in FoFCou.
 Requested convergence on RMS density matrix=1.00D-08 within 128 cycles.
 Requested convergence on MAX density matrix=1.00D-06.
 Requested convergence on             energy=1.00D-06.
 No special actions if energy rises.
 Integral accuracy reduced to 1.0D-05 until final iterations.
 Initial convergence to 1.0D-05 achieved.  Increase integral accuracy.
 SCF Done:  E(RB3LYP) =  -839.962567712     A.U. after   11 cycles
            NFock= 11  Conv=0.66D-08     -V/T= 2.0086
 DoSCS=F DFT=T ScalE2(SS,OS)=  1.000000  1.000000
 Range of M.O.s used for correlation:     1   242
 NBasis=   242 NAE=    58 NBE=    58 NFC=     0 NFV=     0
 NROrb=    242 NOA=    58 NOB=    58 NVA=   184 NVB=   184
 Symmetrizing basis deriv contribution to polar:
 IMax=3 JMax=2 DiffMx= 0.00D+00
 Calling FoFJK, ICntrl=      2147 FMM=F ISym2X=0 I1Cent= 0 IOpClX= 0 NMat=1 NMatS=1 NMatT=0.
 -------------------------------------------------------------------
 Center     Atomic                   Forces (Hartrees/Bohr)
 Number     Number              X              Y              Z
 -------------------------------------------------------------------
      1        6           0.000514637    0.000251071   -0.000010392
      2        6          -0.000634357   -0.000468734    0.000536841
      3        8           0.002568914   -0.006838132    0.000544892
      4        6           0.003391788    0.007605364   -0.002849206
      5        6          -0.000703561   -0.001821929   -0.000754630
      6        6           0.000031416    0.000065284    0.000146639
      7        1           0.000024168   -0.000021401    0.000013397
      8        1          -0.000113864    0.000001330    0.000061051
      9        1          -0.000058829   -0.000078554   -0.000074282
     10        1           0.000030894   -0.000059108    0.000090009
     11        6          -0.000168641   -0.000255686    0.000119447
     12        1          -0.000024550   -0.000020419    0.000018826
     13        1           0.000013697    0.000008910   -0.000017729
     14        8           0.000047457    0.000132254   -0.000001349
     15        1          -0.000038393   -0.000031653    0.000026807
     16        8          -0.000058768   -0.000310766    0.000094152
     17        1           0.000002909   -0.000010588    0.000035101
     18        8          -0.000062562   -0.000128137   -0.000065677
     19        1          -0.000008840    0.000047581   -0.000006291
     20        8           0.000046413   -0.000130647    0.000231495
     21        1          -0.000024687    0.000176968    0.000124938
     22        1           0.000078810   -0.000080865    0.000086031
     23        8          -0.006380627    0.001103737    0.001490484
     24        8          -0.000364468    0.001862857   -0.000673024
     25        1          -0.003981683    0.002656684    0.000052160
     26        1           0.000437763    0.000167818   -0.000048207
     27        8           0.003014910    0.003929091   -0.001838730
     28        1           0.005984068   -0.002304875   -0.000032246
     29        1          -0.003718839   -0.005973223    0.002918212
     30        1           0.000154824    0.000525769   -0.000218720
 -------------------------------------------------------------------
 Cartesian Forces:  Max     0.007605364 RMS     0.001932110
 IRC-IRC-IRC-IRC-IRC-IRC-IRC-IRC-IRC-IRC-IRC-IRC-IRC-IRC-IRC-IRC-IRC-IRC
 Pt  2 Step number   1 out of a maximum of  20
 Modified Bulirsch-Stoer Extrapolation Cycles:
    EPS =    0.000010000000000
 Maximum DWI energy   std dev =  0.000009005 at pt    64
 Maximum DWI gradient std dev =  0.072612615 at pt    55
 CORRECTOR INTEGRATION CONVERGENCE:
   Recorrection delta-x convergence threshold:    0.010000
   Delta-x Convergence Met
 Point Number:   2          Path Number:   1
   CHANGE IN THE REACTION COORDINATE =    0.10762
   NET REACTION COORDINATE UP TO THIS POINT =    0.21523
  # OF POINTS ALONG THE PATH =   2
  # OF STEPS =   1

 Calculating another point on the path.
 IRC-IRC-IRC-IRC-IRC-IRC-IRC-IRC-IRC-IRC-IRC-IRC-IRC-IRC-IRC-IRC-IRC-IRC
                          Input orientation:                          
 ---------------------------------------------------------------------
 Center     Atomic      Atomic             Coordinates (Angstroms)
 Number     Number       Type             X           Y           Z
 ---------------------------------------------------------------------
      1          6           0        1.022916    0.226917    1.091101
      2          6           0        0.470311   -1.503606   -0.751759
      3          8           0       -0.532172    0.701922   -0.789800
      4          6           0       -0.911769   -0.865309   -0.642566
      5          6           0        0.515741    1.248416    0.061094
      6          6           0        1.350740   -1.153878    0.458457
      7          1           0        1.166439   -1.901795    1.240827
      8          1           0        0.947917   -1.074480   -1.644095
      9          1           0        0.067401    2.076924    0.628217
     10          1           0        1.944935    0.644743    1.512504
     11          6           0        1.622956    1.807950   -0.847379
     12          1           0        1.160605    2.411485   -1.643158
     13          1           0        2.178607    0.993505   -1.317287
     14          8           0        2.583615    2.552302   -0.107548
     15          1           0        2.140520    3.338674    0.248628
     16          8           0        0.305947   -2.903499   -0.910459
     17          1           0        1.198806   -3.267940   -1.022347
     18          8           0        2.693848   -1.255766   -0.030156
     19          1           0        3.295740   -1.154528    0.724105
     20          8           0        0.116890    0.086290    2.169775
     21          1           0       -0.647100   -0.411836    1.797959
     22          1           0       -1.474908   -0.967408   -1.581638
     23          8           0       -1.598944   -1.116652    0.455392
     24          8           0       -2.637107    1.882377   -0.540057
     25          1           0       -1.665065    1.397845   -0.686562
     26          1           0       -2.988926    2.115741   -1.414065
     27          8           0       -3.801228   -0.054356    0.326136
     28          1           0       -2.797697   -0.669752    0.400961
     29          1           0       -3.337298    0.961559   -0.061964
     30          1           0       -4.126487    0.062855    1.233739
 ---------------------------------------------------------------------
                    Distance matrix (angstroms):
                    1          2          3          4          5
     1  C    0.000000
     2  C    2.587704   0.000000
     3  O    2.486306   2.422968   0.000000
     4  C    2.818078   1.526267   1.619255   0.000000
     5  C    1.536750   2.869916   1.456296   2.645894   0.000000
     6  C    1.553802   1.536909   2.923611   2.532681   2.574129
     7  H    2.138792   2.147917   3.713229   2.990054   3.426223
     8  H    3.029943   1.099327   2.464972   2.122556   2.913810
     9  H    2.133025   3.858350   2.064192   3.351179   1.099574
    10  H    1.096485   3.452073   3.382297   3.883986   2.124525
    11  C    2.572434   3.507725   2.423053   3.689593   1.537637
    12  H    3.502494   4.074191   2.552708   4.004160   2.161725
    13  H    2.779139   3.077931   2.776974   3.668905   2.174865
    14  O    3.046302   4.618598   3.687478   4.917725   2.450441
    15  H    3.412013   5.219008   3.895392   5.271069   2.654102
    16  O    3.784150   1.418416   3.703521   2.389314   4.269230
    17  H    4.087985   1.927900   4.337069   3.220465   4.694453
    18  O    2.499516   2.350799   3.849261   3.678040   3.320151
    19  H    2.684922   3.206724   4.515665   4.433348   3.733915
    20  O    1.415697   3.344852   3.091823   3.142124   2.440523
    21  H    1.922656   2.990256   2.819604   2.496368   2.669332
    22  H    3.848255   2.181761   2.074228   1.099729   3.401635
    23  O    3.013876   2.426676   2.448616   1.319429   3.197015
    24  O    4.335549   4.600624   2.426231   3.246086   3.271656
    25  H    3.428760   3.603123   1.333571   2.385635   2.310245
    26  H    5.092974   5.050212   2.902453   3.714357   3.900133
    27  O    4.892509   4.637696   3.536099   3.153569   4.517043
    28  H    3.984644   3.564259   2.903792   2.164235   3.843663
    29  H    4.569543   4.588108   2.909620   3.091558   3.865661
    30  H    5.153990   5.246575   4.173993   3.836198   4.932639
                    6          7          8          9         10
     6  C    0.000000
     7  H    1.097930   0.000000
     8  H    2.142264   3.009148   0.000000
     9  H    3.480498   4.172935   3.983724   0.000000
    10  H    2.167746   2.676700   3.730133   2.521555   0.000000
    11  C    3.248344   4.281498   3.065753   2.160898   2.650617
    12  H    4.143037   5.188621   3.492448   2.542866   3.700642
    13  H    2.906869   3.993895   2.428573   3.068546   2.860761
    14  O    3.946658   4.864718   4.264978   2.664332   2.582878
    15  H    4.566269   5.421791   4.947791   2.456404   2.982096
    16  O    2.454933   2.524260   2.072596   5.218146   4.598593
    17  H    2.585560   2.643739   2.293639   5.707190   4.721363
    18  O    1.432852   2.089434   2.384520   4.294008   2.559806
    19  H    1.963057   2.315024   3.335723   4.568769   2.384036
    20  O    2.447246   2.432484   4.072296   2.518228   2.021293
    21  H    2.517192   2.412322   3.851092   2.841256   2.813625
    22  H    3.490135   3.976945   2.425993   4.065727   4.885496
    23  O    2.949920   2.980050   3.300927   3.606315   4.096227
    24  O    5.110655   5.653182   4.776432   2.952469   5.171059
    25  H    4.113082   4.756035   3.722490   2.278427   4.293618
    26  H    5.747126   6.360511   5.072392   3.676080   5.922130
    27  O    5.269652   5.378420   5.241835   4.427177   5.908857
    28  H    4.176986   4.235289   4.286686   3.975508   5.045392
    29  H    5.169489   5.493606   5.001166   3.648612   5.520988
    30  H    5.664055   5.645792   5.943487   4.691677   6.105610
                   11         12         13         14         15
    11  C    0.000000
    12  H    1.100584   0.000000
    13  H    1.092192   1.775722   0.000000
    14  O    1.422770   2.098305   2.014286   0.000000
    15  H    1.952491   2.323524   2.820170   0.970348   0.000000
    16  O    4.892469   5.432895   4.342696   5.966423   6.608621
    17  H    5.096585   5.713382   4.382569   6.052253   6.793346
    18  O    3.346792   4.289678   2.642233   3.810449   4.636030
    19  H    3.747539   4.783219   3.166909   3.865147   4.663634
    20  O    3.786234   4.586320   4.151303   4.165591   4.285311
[...]
 Alpha  occ. eigenvalues --   -1.03629  -1.02730  -1.02509  -1.01769  -1.01553
 Alpha  occ. eigenvalues --   -1.00038  -0.98644  -0.77430  -0.76721  -0.68772
 Alpha  occ. eigenvalues --   -0.65460  -0.62428  -0.57807  -0.55877  -0.55134
 Alpha  occ. eigenvalues --   -0.54320  -0.53430  -0.51459  -0.50693  -0.49024
 Alpha  occ. eigenvalues --   -0.47191  -0.46118  -0.44716  -0.44106  -0.43366
 Alpha  occ. eigenvalues --   -0.41415  -0.41250  -0.40024  -0.39057  -0.37331
 Alpha  occ. eigenvalues --   -0.36097  -0.35152  -0.34683  -0.33913  -0.32289
 Alpha  occ. eigenvalues --   -0.31270  -0.30119  -0.29817  -0.29167  -0.28960
 Alpha  occ. eigenvalues --   -0.27123  -0.26393  -0.24591
 Alpha virt. eigenvalues --    0.05249   0.05803   0.06734   0.07162   0.09369
 Alpha virt. eigenvalues --    0.09987   0.11498   0.12375   0.12810   0.14502
 Alpha virt. eigenvalues --    0.14899   0.16325   0.17018   0.19142   0.20008
 Alpha virt. eigenvalues --    0.20182   0.21266   0.23411   0.24313   0.24825
 Alpha virt. eigenvalues --    0.26579   0.28223   0.28665   0.31274   0.32171
 Alpha virt. eigenvalues --    0.32949   0.33808   0.36034   0.52410   0.53864
 Alpha virt. eigenvalues --    0.54233   0.54828   0.56704   0.57684   0.58277
 Alpha virt. eigenvalues --    0.60546   0.61022   0.63446   0.63947   0.67467
 Alpha virt. eigenvalues --    0.67970   0.69079   0.70122   0.72252   0.74844
 Alpha virt. eigenvalues --    0.76131   0.77710   0.79007   0.79966   0.81060
 Alpha virt. eigenvalues --    0.81745   0.82198   0.83331   0.84368   0.85436
 Alpha virt. eigenvalues --    0.86352   0.87580   0.87882   0.88125   0.89687
 Alpha virt. eigenvalues --    0.90465   0.90979   0.92321   0.95190   0.95249
 Alpha virt. eigenvalues --    0.98329   0.98915   0.99908   1.02212   1.02766
 Alpha virt. eigenvalues --    1.03519   1.05340   1.05930   1.06288   1.08229
 Alpha virt. eigenvalues --    1.09499   1.12619   1.13886   1.15380   1.17244
 Alpha virt. eigenvalues --    1.17909   1.18416   1.22522   1.25558   1.26881
 Alpha virt. eigenvalues --    1.28281   1.31845   1.34108   1.34567   1.39131
 Alpha virt. eigenvalues --    1.43306   1.44949   1.46982   1.51007   1.51689
 Alpha virt. eigenvalues --    1.53523   1.55701   1.56814   1.58998   1.60424
 Alpha virt. eigenvalues --    1.63056   1.64523   1.65913   1.67384   1.69407
 Alpha virt. eigenvalues --    1.69765   1.71664   1.72439   1.73451   1.73986
 Alpha virt. eigenvalues --    1.76088   1.77025   1.77574   1.78536   1.80269
 Alpha virt. eigenvalues --    1.81691   1.83205   1.84354   1.84944   1.85602
 Alpha virt. eigenvalues --    1.87935   1.88466   1.90898   1.92999   1.95349
 Alpha virt. eigenvalues --    1.96827   1.98671   2.01622   2.05494   2.06474
 Alpha virt. eigenvalues --    2.07590   2.09014   2.09583   2.14967   2.16469
 Alpha virt. eigenvalues --    2.18126   2.23149   2.23578   2.26439   2.31591
 Alpha virt. eigenvalues --    2.32911   2.36177   2.38728   2.39966   2.41394
 Alpha virt. eigenvalues --    2.43466   2.44122   2.48377   2.48893   2.51899
 Alpha virt. eigenvalues --    2.53034   2.55042   2.58151   2.58695   2.59449
 Alpha virt. eigenvalues --    2.63637   2.67965   2.71285   2.72468   2.74884
 Alpha virt. eigenvalues --    2.79760   2.83661   2.86367   2.92396   2.92889
 Alpha virt. eigenvalues --    2.93651   2.96797   3.03218   3.07925   3.13913
 Alpha virt. eigenvalues --    3.69904   3.78017   3.80725   3.87836   3.89620
 Alpha virt. eigenvalues --    3.98227   4.03492   4.16031   4.25409   4.37318
 Alpha virt. eigenvalues --    4.54985   4.58630   4.64893   4.93542
          Condensed to atoms (all electrons):
               1          2          3          4          5          6
     1  C    4.981874  -0.027464  -0.023982   0.004410   0.304245   0.255274
     2  C   -0.027464   4.920911  -0.027797   0.308177  -0.018529   0.298886
     3  O   -0.023982  -0.027797   8.557349   0.127183   0.121414  -0.012612
     4  C    0.004410   0.308177   0.127183   4.767808  -0.012144  -0.022546
     5  C    0.304245  -0.018529   0.121414  -0.012144   5.089539  -0.019547
     6  C    0.255274   0.298886  -0.012612  -0.022546  -0.019547   5.096039
     7  H   -0.056610  -0.038013   0.000296  -0.005875   0.006284   0.348903
     8  H    0.000808   0.356542   0.005658  -0.053402  -0.000585  -0.053060
     9  H   -0.042570   0.000102  -0.035986   0.001461   0.359078   0.004963
    10  H    0.362864   0.004297   0.003291  -0.000101  -0.051529  -0.042096
    11  C   -0.031598  -0.001067  -0.031715   0.000781   0.288248  -0.002166
    12  H    0.005266   0.000001   0.005784  -0.000073  -0.047684  -0.000276
    13  H   -0.010157  -0.002027   0.001893   0.000176  -0.035602   0.001561
    14  O   -0.004673   0.000057   0.001433  -0.000016  -0.038981  -0.000175
    15  H   -0.000896   0.000001   0.000012  -0.000001  -0.002785   0.000021
    16  O    0.003677   0.238667   0.001077  -0.041029  -0.000013  -0.040815
    17  H    0.000355  -0.025699  -0.000108   0.007459  -0.000031  -0.004752
    18  O   -0.032596  -0.040938   0.000006   0.002572   0.000137   0.187191
    19  H   -0.003204   0.007033   0.000008  -0.000299  -0.000154  -0.023296
    20  O    0.243221   0.001257   0.000522   0.005360  -0.043524  -0.037339
    21  H   -0.039593  -0.002651   0.000078  -0.005042  -0.000122  -0.001344
    22  H   -0.000514  -0.046971  -0.042493   0.378368   0.004361   0.006344
    23  O    0.003291  -0.043649  -0.050008   0.241295  -0.000270  -0.003713
    24  O   -0.000258   0.000081  -0.076164   0.007617   0.004424  -0.000002
    25  H    0.001991   0.001071   0.082446  -0.005466  -0.006915  -0.000075
    26  H    0.000008   0.000002   0.003120  -0.000065  -0.000098   0.000000
    27  O   -0.000004  -0.000098  -0.000738   0.004228  -0.000041   0.000004
    28  H   -0.000202   0.002580   0.003796  -0.011841  -0.000153  -0.000126
    29  H   -0.000012   0.000086   0.001894   0.000036   0.000059  -0.000001
    30  H   -0.000004   0.000004   0.000008  -0.000112   0.000007  -0.000000
               7          8          9         10         11         12
     1  C   -0.056610   0.000808  -0.042570   0.362864  -0.031598   0.005266
     2  C   -0.038013   0.356542   0.000102   0.004297  -0.001067   0.000001
     3  O    0.000296   0.005658  -0.035986   0.003291  -0.031715   0.005784
     4  C   -0.005875  -0.053402   0.001461  -0.000101   0.000781  -0.000073
     5  C    0.006284  -0.000585   0.359078  -0.051529   0.288248  -0.047684
     6  C    0.348903  -0.053060   0.004963  -0.042096  -0.002166  -0.000276
     7  H    0.611209   0.006940  -0.000254  -0.001545  -0.000036   0.000010
     8  H    0.006940   0.633184   0.000074  -0.000335  -0.000033   0.000176
     9  H   -0.000254   0.000074   0.618793  -0.000799  -0.054269  -0.005662
    10  H   -0.001545  -0.000335  -0.000799   0.594630  -0.004285   0.000518
    11  C   -0.000036  -0.000033  -0.054269  -0.004285   4.965418   0.348853
    12  H    0.000010   0.000176  -0.005662   0.000518   0.348853   0.637559
    13  H    0.000148   0.004434   0.005020  -0.000080   0.372203  -0.037604
    14  O   -0.000006   0.000012   0.001779   0.016236   0.236641  -0.030386
    15  H   -0.000001   0.000002   0.006264  -0.000131  -0.032940  -0.006871
    16  O    0.001969  -0.037836   0.000004  -0.000050   0.000006  -0.000001
    17  H   -0.000443  -0.004326  -0.000000  -0.000006   0.000003   0.000000
    18  O   -0.033147  -0.001458  -0.000137   0.000438  -0.001449   0.000144
    19  H   -0.004699  -0.000060   0.000003   0.005769   0.000145  -0.000009
    20  O    0.007953  -0.000055   0.003300  -0.036845   0.003771  -0.000072
    21  H    0.000673   0.000036  -0.000546   0.005807  -0.000042   0.000004
    22  H   -0.000195  -0.004737  -0.000127   0.000004  -0.000120  -0.000008
    23  O    0.002373   0.003903  -0.000045  -0.000040   0.000005   0.000005
    24  O    0.000000  -0.000003   0.004243   0.000002  -0.000197   0.000005
    25  H    0.000004   0.000091  -0.004033  -0.000047  -0.000201   0.000807
    26  H    0.000000  -0.000000  -0.000218  -0.000000  -0.000001   0.000009
    27  O    0.000001   0.000004   0.000012  -0.000000  -0.000000   0.000000
    28  H   -0.000007  -0.000087  -0.000017   0.000003   0.000009  -0.000001
    29  H   -0.000000  -0.000003  -0.000040  -0.000000   0.000006  -0.000001
    30  H   -0.000000  -0.000000  -0.000004   0.000000   0.000000  -0.000000
              13         14         15         16         17         18
     1  C   -0.010157  -0.004673  -0.000896   0.003677   0.000355  -0.032596
     2  C   -0.002027   0.000057   0.000001   0.238667  -0.025699  -0.040938
     3  O    0.001893   0.001433   0.000012   0.001077  -0.000108   0.000006
     4  C    0.000176  -0.000016  -0.000001  -0.041029   0.007459   0.002572
     5  C   -0.035602  -0.038981  -0.002785  -0.000013  -0.000031   0.000137
     6  C    0.001561  -0.000175   0.000021  -0.040815  -0.004752   0.187191
     7  H    0.000148  -0.000006  -0.000001   0.001969  -0.000443  -0.033147
     8  H    0.004434   0.000012   0.000002  -0.037836  -0.004326  -0.001458
     9  H    0.005020   0.001779   0.006264   0.000004  -0.000000  -0.000137
    10  H   -0.000080   0.016236  -0.000131  -0.000050  -0.000006   0.000438
    11  C    0.372203   0.236641  -0.032940   0.000006   0.000003  -0.001449
    12  H   -0.037604  -0.030386  -0.006871  -0.000001   0.000000   0.000144
    13  H    0.542440  -0.034523   0.007045   0.000008  -0.000006   0.010703
    14  O   -0.034523   8.229202   0.234478   0.000000  -0.000000  -0.000096
    15  H    0.007045   0.234478   0.403467   0.000000   0.000000  -0.000012
    16  O    0.000008   0.000000   0.000000   8.266438   0.235168  -0.000503
    17  H   -0.000006  -0.000000   0.000000   0.235168   0.381569   0.007687
    18  O    0.010703  -0.000096  -0.000012  -0.000503   0.007687   8.308924
    19  H   -0.000386  -0.000012   0.000003  -0.000149  -0.000402   0.232753
    20  O    0.000022  -0.000002  -0.000035  -0.000012  -0.000005   0.001643
    21  H    0.000005  -0.000001   0.000002  -0.000065  -0.000010  -0.000045
    22  H   -0.000021   0.000001  -0.000000   0.002698  -0.000368  -0.000063
    23  O    0.000007   0.000000  -0.000000   0.002835  -0.000097   0.000014
    24  O    0.000002   0.000000  -0.000001   0.000000  -0.000000   0.000000
    25  H   -0.000045   0.000003  -0.000003  -0.000010   0.000001  -0.000000
    26  H    0.000000  -0.000000   0.000000  -0.000000   0.000000  -0.000000
    27  O    0.000000   0.000000  -0.000000   0.000000  -0.000000   0.000000
    28  H    0.000000  -0.000000   0.000000  -0.000113   0.000012   0.000001
    29  H   -0.000000  -0.000000  -0.000000  -0.000000   0.000000  -0.000000
    30  H   -0.000000   0.000000   0.000000  -0.000000   0.000000  -0.000000
              19         20         21         22         23         24
     1  C   -0.003204   0.243221  -0.039593  -0.000514   0.003291  -0.000258
     2  C    0.007033   0.001257  -0.002651  -0.046971  -0.043649   0.000081
     3  O    0.000008   0.000522   0.000078  -0.042493  -0.050008  -0.076164
     4  C   -0.000299   0.005360  -0.005042   0.378368   0.241295   0.007617
     5  C   -0.000154  -0.043524  -0.000122   0.004361  -0.000270   0.004424
     6  C   -0.023296  -0.037339  -0.001344   0.006344  -0.003713  -0.000002
     7  H   -0.004699   0.007953   0.000673  -0.000195   0.002373   0.000000
     8  H   -0.000060  -0.000055   0.000036  -0.004737   0.003903  -0.000003
     9  H    0.000003   0.003300  -0.000546  -0.000127  -0.000045   0.004243
    10  H    0.005769  -0.036845   0.005807   0.000004  -0.000040   0.000002
    11  C    0.000145   0.003771  -0.000042  -0.000120   0.000005  -0.000197
    12  H   -0.000009  -0.000072   0.000004  -0.000008   0.000005   0.000005
    13  H   -0.000386   0.000022   0.000005  -0.000021   0.000007   0.000002
    14  O   -0.000012  -0.000002  -0.000001   0.000001   0.000000   0.000000
    15  H    0.000003  -0.000035   0.000002  -0.000000  -0.000000  -0.000001
    16  O   -0.000149  -0.000012  -0.000065   0.002698   0.002835   0.000000
    17  H   -0.000402  -0.000005  -0.000010  -0.000368  -0.000097  -0.000000
    18  O    0.232753   0.001643  -0.000045  -0.000063   0.000014   0.000000
    19  H    0.385626  -0.000007   0.000039   0.000006   0.000002   0.000000
    20  O   -0.000007   8.326401   0.222791  -0.000104  -0.027802   0.000008
    21  H    0.000039   0.222791   0.336245   0.001059   0.060216   0.000032
    22  H    0.000006  -0.000104   0.001059   0.595380  -0.044137   0.000806
    23  O    0.000002  -0.027802   0.060216  -0.044137   8.405862  -0.001942
    24  O    0.000000   0.000008   0.000032   0.000806  -0.001942   8.466479
    25  H   -0.000000  -0.000222   0.000011  -0.001323   0.004179   0.174299
    26  H   -0.000000  -0.000000  -0.000001   0.000158  -0.000000   0.236514
    27  O    0.000000  -0.000037   0.000529   0.001428  -0.081729  -0.082313
    28  H   -0.000000   0.000989  -0.000548  -0.004092   0.160179   0.003048
    29  H   -0.000000   0.000022  -0.000002  -0.000371   0.008122   0.098589
    30  H   -0.000000   0.000006   0.000051  -0.000040   0.004196   0.003327
              25         26         27         28         29         30
     1  C    0.001991   0.000008  -0.000004  -0.000202  -0.000012  -0.000004
     2  C    0.001071   0.000002  -0.000098   0.002580   0.000086   0.000004
     3  O    0.082446   0.003120  -0.000738   0.003796   0.001894   0.000008
     4  C   -0.005466  -0.000065   0.004228  -0.011841   0.000036  -0.000112
     5  C   -0.006915  -0.000098  -0.000041  -0.000153   0.000059   0.000007
     6  C   -0.000075   0.000000   0.000004  -0.000126  -0.000001  -0.000000
     7  H    0.000004   0.000000   0.000001  -0.000007  -0.000000  -0.000000
     8  H    0.000091  -0.000000   0.000004  -0.000087  -0.000003  -0.000000
     9  H   -0.004033  -0.000218   0.000012  -0.000017  -0.000040  -0.000004
    10  H   -0.000047  -0.000000  -0.000000   0.000003  -0.000000   0.000000
    11  C   -0.000201  -0.000001  -0.000000   0.000009   0.000006   0.000000
    12  H    0.000807   0.000009   0.000000  -0.000001  -0.000001  -0.000000
    13  H   -0.000045   0.000000   0.000000   0.000000  -0.000000  -0.000000
    14  O    0.000003  -0.000000   0.000000  -0.000000  -0.000000   0.000000
    15  H   -0.000003   0.000000  -0.000000   0.000000  -0.000000   0.000000
    16  O   -0.000010  -0.000000   0.000000  -0.000113  -0.000000  -0.000000
    17  H    0.000001   0.000000  -0.000000   0.000012   0.000000   0.000000
    18  O   -0.000000  -0.000000   0.000000   0.000001  -0.000000  -0.000000
    19  H   -0.000000  -0.000000   0.000000  -0.000000  -0.000000  -0.000000
    20  O   -0.000222  -0.000000  -0.000037   0.000989   0.000022   0.000006
    21  H    0.000011  -0.000001   0.000529  -0.000548  -0.000002   0.000051
    22  H   -0.001323   0.000158   0.001428  -0.004092  -0.000371  -0.000040
    23  O    0.004179  -0.000000  -0.081729   0.160179   0.008122   0.004196
    24  O    0.174299   0.236514  -0.082313   0.003048   0.098589   0.003327
    25  H    0.297442  -0.006867   0.006992  -0.000590  -0.007405  -0.000152
    26  H   -0.006867   0.371805   0.003960  -0.000102  -0.007173  -0.000127
    27  O    0.006992   0.003960   8.444490   0.123085   0.175695   0.235534
    28  H   -0.000590  -0.000102   0.123085   0.283314  -0.011930  -0.007326
    29  H   -0.007405  -0.007173   0.175695  -0.011930   0.303425  -0.006321
    30  H   -0.000152  -0.000127   0.235534  -0.007326  -0.006321   0.369560
 Mulliken charges:
               1
     1  C    0.107054
     2  C    0.135148
     3  O   -0.615665
     4  C    0.301082
     5  C    0.100912
     6  C    0.064754
     7  H    0.154069
     8  H    0.144118
     9  H    0.139611
    10  H    0.144029
    11  C   -0.055971
    12  H    0.129507
    13  H    0.174785
    14  O   -0.610968
    15  H    0.392382
    16  O   -0.631951
    17  H    0.403999
    18  O   -0.641770
    19  H    0.401291
    20  O   -0.671204
    21  H    0.422436
    22  H    0.155071
    23  O   -0.643052
    24  O   -0.838596
    25  H    0.464017
    26  H    0.399075
    27  O   -0.831003
    28  H    0.460119
    29  H    0.445325
    30  H    0.401395
 Sum of Mulliken charges =  -0.00000
 Mulliken charges with hydrogens summed into heavy atoms:
               1
     1  C    0.251083
     2  C    0.279266
     3  O   -0.615665
     4  C    0.456153
     5  C    0.240523
     6  C    0.218823
    11  C    0.248321
    14  O   -0.218586
    16  O   -0.227952
    18  O   -0.240480
    20  O   -0.248768
    23  O   -0.182933
    24  O    0.024497
    27  O    0.015717
 APT charges:
               1
     1  C   -0.371547
     2  C   -0.181079
     3  O   -0.390436
     4  C   -0.303698
     5  C   -0.251429
     6  C   -0.250559
     7  H    0.419483
     8  H    0.347591
     9  H    0.395804
    10  H    0.480186
    11  C   -0.590636
    12  H    0.426578
    13  H    0.329019
    14  O   -0.764272
    15  H    0.682415
    16  O   -0.882999
    17  H    0.767412
    18  O   -0.923103
    19  H    0.772511
    20  O   -0.541914
    21  H    0.398793
    22  H    0.498863
    23  O   -0.548838
    24  O   -1.058931
    25  H    0.223656
    26  H    0.831729
    27  O   -1.127080
    28  H    0.550676
    29  H    0.284361
    30  H    0.777442
 Sum of APT charges =  -0.00000
 APT charges with hydrogens summed into heavy atoms:
               1
     1  C    0.108639
     2  C    0.166512
     3  O   -0.390436
     4  C    0.195166
     5  C    0.144375
     6  C    0.168924
    11  C    0.164961
    14  O   -0.081857
    16  O   -0.115587
    18  O   -0.150592
    20  O   -0.143121
    23  O    0.001838
    24  O   -0.003546
    27  O   -0.065276
 Electronic spatial extent (au):  <R**2>=           3042.8740
 Charge=             -0.0000 electrons
 Dipole moment (field-independent basis, Debye):
    X=             -0.2758    Y=              1.8520    Z=             -1.0757  Tot=              2.1594
 Quadrupole moment (field-independent basis, Debye-Ang):
   XX=            -80.8125   YY=            -81.0251   ZZ=            -82.5371
   XY=             -9.5141   XZ=              2.4611   YZ=             -2.9075
 Traceless Quadrupole moment (field-independent basis, Debye-Ang):
   XX=              0.6457   YY=              0.4332   ZZ=             -1.0789
   XY=             -9.5141   XZ=              2.4611   YZ=             -2.9075
 Octapole moment (field-independent basis, Debye-Ang**2):
  XXX=            -31.4901  YYY=             25.6656  ZZZ=            -16.4241  XYY=             15.7446
  XXY=             -9.7423  XXZ=             29.2327  XZZ=            -19.9353  YZZ=              0.9618
  YYZ=             -0.2811  XYZ=             10.5516
 Hexadecapole moment (field-independent basis, Debye-Ang**3):
 XXXX=          -1775.4065 YYYY=          -1116.6362 ZZZZ=           -512.0877 XXXY=           -151.2849
 XXXZ=            -12.9738 YYYX=            -33.1813 YYYZ=              9.5777 ZZZX=             -6.7541
 ZZZY=            -15.9330 XXYY=           -507.0124 XXZZ=           -283.1211 YYZZ=           -264.4187
 XXYZ=            -27.9720 YYXZ=             25.7982 ZZXY=            -28.8614
 N-N= 1.123654788778D+03 E-N=-4.220089853084D+03  KE= 8.330216089809D+02
  Exact polarizability:   0.000   0.000   0.000   0.000   0.000   0.000
 Approx polarizability: 134.951   3.163 128.716  -1.282   0.342 124.505

 This type of calculation cannot be archived.


 ALL PAPERS THAT YOU SAVE WILL NEVER BE NEEDED UNTIL
 SUCH TIME AS THEY ARE DISPOSED OF, WHEN THEY BECOME
 ESSENTIAL.

           -- JOHN CORCORAN IN
              PAUL DICKSON'S "THE OFFICIAL RULES"
 Job cpu time:       0 days  1 hours  7 minutes 23.6 seconds.
 File lengths (MBytes):  RWF=    220 Int=      0 D2E=      0 Chk=      9 Scr=      1
 Normal termination of Gaussian 09 at Sat Jan 14 00:51:57 2017.
