 Entering Gaussian System, Link 0=g09
 Initial command:
 /global/software/gaussian/g09.d01/l1.exe "/home/iawad/Gau-29840.inp" -scrdir="/home/iawad/"
 Entering Link 1 = /global/software/gaussian/g09.d01/l1.exe PID=     29841.
  
 Copyright (c) 1988,1990,1992,1993,1995,1998,2003,2009,2013,
            Gaussian, Inc.  All Rights Reserved.
  
 This is part of the Gaussian(R) 09 program.  It is based on
 the Gaussian(R) 03 system (copyright 2003, Gaussian, Inc.),
 the Gaussian(R) 98 system (copyright 1998, Gaussian, Inc.),
 the Gaussian(R) 94 system (copyright 1995, Gaussian, Inc.),
 the Gaussian 92(TM) system (copyright 1992, Gaussian, Inc.),
 the Gaussian 90(TM) system (copyright 1990, Gaussian, Inc.),
 the Gaussian 88(TM) system (copyright 1988, Gaussian, Inc.),
 the Gaussian 86(TM) system (copyright 1986, Carnegie Mellon
 University), and the Gaussian 82(TM) system (copyright 1983,
 Carnegie Mellon University). Gaussian is a federally registered
 trademark of Gaussian, Inc.
  
 This software contains proprietary and confidential information,
 including trade secrets, belonging to Gaussian, Inc.
  
 This software is provided under written license and may be
 used, copied, transmitted, or stored only in accord with that
 written license.
  
 The following legend is applicable only to US Government
 contracts under FAR:
  
                    RESTRICTED RIGHTS LEGEND
  
 Use, reproduction and disclosure by the US Government is
 subject to restrictions as set forth in subparagraphs (a)
 and (c) of the Commercial Computer Software - Restricted
 Rights clause in FAR 52.227-19.
  
 Gaussian, Inc.
 340 Quinnipiac St., Bldg. 40, Wallingford CT 06492
  
  
 ---------------------------------------------------------------
 Warning -- This program may not be used in any manner that
 competes with the business of Gaussian, Inc. or will provide
 assistance to any competitor of Gaussian, Inc.  The licensee
 of this program is prohibited from giving any competitor of
 Gaussian, Inc. access to this program.  By using this program,
 the user acknowledges that Gaussian, Inc. is engaged in the
 business of creating and licensing software in the field of
 computational chemistry and represents and warrants to the
 licensee that it is not a competitor of Gaussian, Inc. and that
 it will not use this program in any manner prohibited above.
 ---------------------------------------------------------------
  

 Cite this work as:
 Gaussian 09, Revision D.01,
 M. J. Frisch, G. W. Trucks, H. B. Schlegel, G. E. Scuseria, 
 M. A. Robb, J. R. Cheeseman, G. Scalmani, V. Barone, B. Mennucci, 
 G. A. Petersson, H. Nakatsuji, M. Caricato, X. Li, H. P. Hratchian, 
 A. F. Izmaylov, J. Bloino, G. Zheng, J. L. Sonnenberg, M. Hada, 
 M. Ehara, K. Toyota, R. Fukuda, J. Hasegawa, M. Ishida, T. Nakajima, 
 Y. Honda, O. Kitao, H. Nakai, T. Vreven, J. A. Montgomery, Jr., 
 J. E. Peralta, F. Ogliaro, M. Bearpark, J. J. Heyd, E. Brothers, 
 K. N. Kudin, V. N. Staroverov, T. Keith, R. Kobayashi, J. Normand, 
 K. Raghavachari, A. Rendell, J. C. Burant, S. S. Iyengar, J. Tomasi, 
 M. Cossi, N. Rega, J. M. Millam, M. Klene, J. E. Knox, J. B. Cross, 
 V. Bakken, C. Adamo, J. Jaramillo, R. Gomperts, R. E. Stratmann, 
 O. Yazyev, A. J. Austin, R. Cammi, C. Pomelli, J. W. Ochterski, 
 R. L. Martin, K. Morokuma, V. G. Zakrzewski, G. A. Voth, 
 P. Salvador, J. J. Dannenberg, S. Dapprich, A. D. Daniels, 
 O. Farkas, J. B. Foresman, J. V. Ortiz, J. Cioslowski, 
 and D. J. Fox, Gaussian, Inc., Wallingford CT, 2013.
 
 ******************************************
 Gaussian 09:  ES64L-G09RevD.01 24-Apr-2013
                25-Jan-2017 
 ******************************************
 %nproc=8
 Will use up to    8 processors via shared memory.
 --------------------------------------------------
 # b3lyp/6-31g(d) irc=(calcfc,reverse,maxpoints=20)
 --------------------------------------------------
 1/10=4,14=-1,18=10,22=2,26=3,38=1,42=20,44=3/1,23;
 2/12=2,17=6,18=5,29=1,40=1/2;
 3/5=1,6=6,7=1,11=2,16=1,25=1,30=1,71=2,74=-5,140=1/1,2,3;
 4//1;
 5/5=2,38=5/2;
 8/6=4,10=90,11=11/1;
 11/6=1,8=1,9=11,15=111,16=1/1,2,10;
 10/6=1,13=1/2;
 6/7=2,8=2,9=2,10=2,28=1/1;
 7/10=1,18=20,25=1/1,2,3,16;
 1/10=4,14=-1,18=10,22=2,26=3,42=20,44=3/23(2);
 2/29=1/2;
 99/5=20/99;
 2/29=1/2;
 3/5=1,6=6,7=1,11=2,16=1,25=1,30=1,71=2,74=-5,140=1/1,2,3;
 4/5=5,16=3,69=1/1;
 5/5=2,38=5/2;
 8/6=4,10=90,11=11/1;
 11/6=1,8=1,9=11,15=111,16=1/1,2,10;
 10/6=1,13=1/2;
 7/10=1,18=20,25=1/1,2,3,16;
 1/14=-1,18=10,22=2,26=3,42=20,44=3/23(-8);
 2/29=1/2;
 6/7=2,8=2,9=2,10=2,19=2,28=1/1;
 99/5=20,9=1/99;
 --------------------------------
 glo_1w_beta_ts_boat3_B3LYP_631Gd
 --------------------------------
 Symbolic Z-matrix:
 Charge =  0 Multiplicity = 1
 6                    0     0.57797  -0.93926  -0.38364 
 6                    0    -1.4724   -0.18384   1.00376 
 8                    0     0.71509   1.181     0.8448 
 6                    0    -0.99778   1.19215   0.57211 
 6                    0     1.42314  -0.03586   0.53025 
 6                    0    -0.73131  -1.34428   0.29402 
 1                    0    -1.17147   1.95033   1.34881 
 1                    0    -0.46559  -2.0691    1.07877 
 1                    0    -2.53313  -0.23155   0.71978 
 1                    0     1.60121  -0.56192   1.47867 
 1                    0     0.33776  -0.38429  -1.30129 
 6                    0     2.77034   0.36218  -0.099 
 1                    0     3.29887   1.05093   0.5746 
 1                    0     2.59774   0.88413  -1.04473 
 8                    0    -1.20056   1.51927  -0.67336 
 8                    0     3.58542  -0.76778  -0.4239 
 1                    0     3.85388  -1.1947    0.40602 
 8                    0    -1.2897   -0.2457    2.4159 
 1                    0    -1.83781  -0.97227   2.74925 
 8                    0    -1.59899  -1.96523  -0.65231 
 1                    0    -1.05013  -2.60186  -1.14196 
 8                    0     1.23437  -2.1666   -0.68613 
 1                    0     2.13496  -1.94432  -0.99017 
 8                    0     0.74929   2.87715  -0.84602 
 1                    0    -0.30649   2.41284  -0.93809 
 1                    0     0.93867   2.07997   0.07995 
 1                    0     0.67622   3.78775  -0.51591 
 8                    0    -3.62748   0.01676  -1.38153 
 1                    0    -2.93206   0.69865  -1.39503 
 1                    0    -3.10181  -0.80207  -1.39323 
 
 IRC-IRC-IRC-IRC-IRC-IRC-IRC-IRC-IRC-IRC-IRC-IRC-IRC-IRC-IRC-IRC-IRC-IRC
 ------------------------------------------------------------------------
 INPUT DATA FOR L123
 ------------------------------------------------------------------------
 GENERAL PARAMETERS:
 Rxn path following direction = Reverse
 Maximum points per path      =  20
 Step size                    =   0.100 bohr
 Integration scheme           = HPC                                 
    Redo corrector integration= Yes                                 
    DWI Weight Power          =  2
    DWI will use Hessian update vectors when possible.
    Max correction cycles     =  20
 Initial Hessian              = CalcFC
 Hessian evaluation           = All updating
 Hessian updating method      = Bofill                              
 ------------------------------------------------------------------------
 IRC-IRC-IRC-IRC-IRC-IRC-IRC-IRC-IRC-IRC-IRC-IRC-IRC-IRC-IRC-IRC-IRC-IRC
                          Input orientation:                          
 ---------------------------------------------------------------------
 Center     Atomic      Atomic             Coordinates (Angstroms)
 Number     Number       Type             X           Y           Z
 ---------------------------------------------------------------------
      1          6           0        0.577973   -0.939256   -0.383644
      2          6           0       -1.472404   -0.183838    1.003758
      3          8           0        0.715086    1.180996    0.844795
      4          6           0       -0.997781    1.192147    0.572105
      5          6           0        1.423143   -0.035857    0.530248
      6          6           0       -0.731308   -1.344277    0.294020
      7          1           0       -1.171467    1.950334    1.348809
      8          1           0       -0.465593   -2.069100    1.078774
      9          1           0       -2.533127   -0.231547    0.719776
     10          1           0        1.601205   -0.561922    1.478672
     11          1           0        0.337756   -0.384289   -1.301293
     12          6           0        2.770335    0.362183   -0.099004
     13          1           0        3.298867    1.050934    0.574595
     14          1           0        2.597739    0.884127   -1.044727
     15          8           0       -1.200556    1.519271   -0.673360
     16          8           0        3.585417   -0.767784   -0.423896
     17          1           0        3.853882   -1.194698    0.406015
     18          8           0       -1.289703   -0.245699    2.415903
     19          1           0       -1.837807   -0.972265    2.749246
     20          8           0       -1.598991   -1.965232   -0.652312
     21          1           0       -1.050126   -2.601860   -1.141957
     22          8           0        1.234368   -2.166602   -0.686131
     23          1           0        2.134956   -1.944321   -0.990173
     24          8           0        0.749287    2.877146   -0.846016
     25          1           0       -0.306491    2.412837   -0.938091
     26          1           0        0.938665    2.079974    0.079953
     27          1           0        0.676215    3.787748   -0.515905
     28          8           0       -3.627478    0.016761   -1.381526
     29          1           0       -2.932058    0.698646   -1.395027
     30          1           0       -3.101806   -0.802073   -1.393226
 ---------------------------------------------------------------------
                    Distance matrix (angstroms):
                    1          2          3          4          5
     1  C    0.000000
     2  C    2.588356   0.000000
     3  O    2.454248   2.583245   0.000000
     4  C    2.817683   1.518198   1.734473   0.000000
     5  C    1.538064   2.937738   1.442573   2.714888   0.000000
     6  C    1.528884   1.549055   2.961826   2.565499   2.531684
     7  H    3.796270   2.182731   2.098808   1.099219   3.368531
     8  H    2.122320   2.138576   3.465815   3.343003   2.828830
     9  H    3.375993   1.099116   3.544262   2.099047   3.965638
    10  H    2.158149   3.132980   2.055425   3.263947   1.099072
    11  H    1.098987   2.937707   2.682944   2.788984   2.157316
    12  C    2.565388   4.417585   2.405257   3.916366   1.539260
    13  H    3.504617   4.947107   2.601124   4.298969   2.168276
    14  H    2.800216   4.680054   2.683805   3.954338   2.169468
    15  O    3.048189   2.405661   2.467571   1.303576   3.278855
    16  O    3.012597   5.287792   3.694066   5.083213   2.474174
    17  H    3.379407   5.454215   3.960870   5.409552   2.695707
    18  O    3.436088   1.425258   2.919421   2.356313   3.310478
    19  H    3.956271   1.949837   3.844571   3.182808   4.053962
    20  O    2.421566   2.435561   4.182706   3.439432   3.775477
    21  H    2.447447   3.260252   4.623111   4.163561   3.936712
    22  O    1.424335   3.756819   3.717499   4.224552   2.460750
    23  H    1.949931   4.481976   3.892396   4.700232   2.541770
    24  O    3.848124   4.210368   2.395190   2.811145   3.291469
    25  H    3.510871   3.445700   2.395774   2.061227   3.338226
    26  H    3.075837   3.433877   1.201304   2.186384   2.216805
    27  H    4.729874   4.764392   2.940777   3.274626   4.033893
    28  O    4.426687   3.220895   5.016952   3.480447   5.400595
    29  H    4.003241   2.943389   4.307102   2.802602   4.818086
    30  H    3.818226   2.963562   4.848708   3.502336   4.976143
                    6          7          8          9         10
     6  C    0.000000
     7  H    3.487231   0.000000
     8  H    1.100823   4.089869   0.000000
     9  H    2.160090   2.647717   2.789297   0.000000
    10  H    2.730585   3.743795   2.589046   4.216370   0.000000
    11  H    2.146974   3.840737   3.024678   3.514259   3.058768
    12  C    3.915096   4.489564   4.215392   5.399039   2.170230
    13  H    4.696602   4.625172   4.915279   5.973105   2.510123
    14  H    4.223811   4.590504   4.755503   5.539313   3.074359
    15  O    3.058746   2.067808   4.060363   2.604215   4.100301
    16  O    4.413826   5.758350   4.512441   6.247569   2.756672
    17  H    4.588996   6.002851   4.458144   6.466838   2.574015
    18  O    2.453786   2.444428   2.406629   2.103129   3.055446
    19  H    2.718615   3.308598   2.424148   2.269555   3.689111
    20  O    1.426185   4.418022   2.071724   2.400187   4.092875
    21  H    1.935249   5.190483   2.357363   3.359126   4.249541
    22  O    2.345378   5.184418   2.452400   4.462626   2.719548
    23  H    3.197604   5.618862   3.325502   5.258186   2.879429
    24  O    4.616520   3.060316   5.444823   4.784341   4.237585
    25  H    3.976741   2.488374   4.917399   3.833953   4.281266
    26  H    3.815774   2.465656   4.492705   4.219697   3.061860
    27  H    5.382823   3.204244   6.176520   5.289756   4.873764
    28  O    3.612157   4.150352   4.516792   2.382169   5.987882
    29  H    3.445245   3.492140   4.456855   2.344525   5.513406
    30  H    2.959737   4.338284   3.829590   2.261343   5.515776
                   11         12         13         14         15
    11  H    0.000000
    12  C    2.814278   0.000000
    13  H    3.787743   1.098845   0.000000
    14  H    2.604271   1.093895   1.772458   0.000000
    15  O    2.526706   4.175729   4.692711   3.868897   0.000000
    16  O    3.385882   1.430643   2.094476   2.022313   5.310216
    17  H    3.991842   1.962905   2.319337   2.829145   5.837638
    18  O    4.060219   4.814373   5.111423   5.325849   3.559018
    19  H    4.635262   5.579270   5.933621   6.124907   4.281130
    20  O    2.582934   4.981367   5.881460   5.087768   3.507272
    21  H    2.620921   4.946638   5.933228   5.046630   4.150414
    22  O    2.087816   3.016400   4.025435   3.360702   4.417542
    23  H    2.400088   2.553008   3.574177   2.866577   4.818971
    24  O    3.318673   3.311752   3.442898   2.725506   2.382335
    25  H    2.893248   3.791584   4.140242   3.283729   1.291470
    26  H    2.888170   2.517508   2.621860   2.333984   2.336265
    27  H    4.258789   4.036538   3.944318   3.521778   2.948398
    28  O    3.986271   6.534232   7.271188   6.294369   2.940916
    29  H    3.445754   5.857488   6.544306   5.543985   2.047517
    30  H    3.466061   6.124748   6.947990   5.953951   3.085708
                   16         17         18         19         20
    16  O    0.000000
    17  H    0.971124   0.000000
    18  O    5.666024   5.603277   0.000000
    19  H    6.286653   6.159183   0.969244   0.000000
    20  O    5.325800   5.607816   3.530778   3.551565   0.000000
    21  H    5.036636   5.331568   4.274021   4.291559   0.972780
    22  O    2.748252   2.999872   4.436600   4.760936   2.840707
    23  H    1.951601   2.337944   5.120055   5.541750   3.749260
    24  O    4.637600   5.271243   4.954771   5.868299   5.385216
    25  H    5.052494   5.668301   4.391332   5.234529   4.573807
    26  H    3.920317   4.396394   3.978824   4.914274   4.831108
    27  H    5.405996   5.980993   5.359946   6.295970   6.188049
    28  O    7.318362   7.786763   4.467051   4.609162   2.928277
    29  H    6.750629   7.271691   4.255855   4.600470   3.070006
    30  H    6.757198   7.195347   4.254731   4.334367   2.039692
                   21         22         23         24         25
    21  H    0.000000
    22  O    2.369840   0.000000
    23  H    3.255786   0.976171   0.000000
    24  O    5.774511   5.069542   5.018705   0.000000
    25  H    5.073632   4.838284   4.994817   1.157034   0.000000
    26  H    5.231436   4.325244   4.332578   1.236433   1.642445
    27  H    6.648254   5.982875   5.933757   0.971344   1.741934
    28  O    3.682026   5.374774   6.099561   5.255915   4.119074
    29  H    3.807762   5.106005   5.729207   4.312723   3.168729
    30  H    2.740759   4.600470   5.375022   5.354158   4.284458
                   26         27         28         29         30
    26  H    0.000000
    27  H    1.827681   0.000000
    28  O    5.219428   5.787177   0.000000
    29  H    4.366478   4.830636   0.974042   0.000000
    30  H    5.177051   6.009126   0.973117   1.510290   0.000000
 Symmetry turned off by external request.
 Stoichiometry    C6H16O8
 Framework group  C1[X(C6H16O8)]
 Deg. of freedom    84
 Full point group                 C1      NOp   1
 Rotational constants (GHZ):      0.7690785      0.5038990      0.4125523
 Standard basis: 6-31G(d) (6D, 7F)
   242 basis functions,   456 primitive gaussians,   242 cartesian basis functions
    58 alpha electrons       58 beta electrons
       nuclear repulsion energy      1122.3678574336 Hartrees.
 NAtoms=   30 NActive=   30 NUniq=   30 SFac= 1.00D+00 NAtFMM=   60 NAOKFM=F Big=F
 Integral buffers will be    131072 words long.
 Raffenetti 2 integral format.
 Two-electron integral symmetry is turned off.
 One-electron integrals computed using PRISM.
 NBasis=   242 RedAO= T EigKep=  1.27D-03  NBF=   242
 NBsUse=   242 1.00D-06 EigRej= -1.00D+00 NBFU=   242
 ExpMin= 1.61D-01 ExpMax= 5.48D+03 ExpMxC= 8.25D+02 IAcc=1 IRadAn=         1 AccDes= 0.00D+00
 Harris functional with IExCor=  402 and IRadAn=       1 diagonalized for initial guess.
 HarFok:  IExCor=  402 AccDes= 0.00D+00 IRadAn=         1 IDoV= 1 UseB2=F ITyADJ=14
 ICtDFT=  3500011 ScaDFX=  1.000000  1.000000  1.000000  1.000000
 FoFCou: FMM=F IPFlag=           0 FMFlag=      100000 FMFlg1=           0
         NFxFlg=           0 DoJE=T BraDBF=F KetDBF=T FulRan=T
         wScrn=  0.000000 ICntrl=     500 IOpCl=  0 I1Cent=   200000004 NGrid=           0
         NMat0=    1 NMatS0=      1 NMatT0=    0 NMatD0=    1 NMtDS0=    0 NMtDT0=    0
 Symmetry not used in FoFCou.
 Requested convergence on RMS density matrix=1.00D-08 within 128 cycles.
 Requested convergence on MAX density matrix=1.00D-06.
 Requested convergence on             energy=1.00D-06.
 No special actions if energy rises.
 Integral accuracy reduced to 1.0D-05 until final iterations.
 Initial convergence to 1.0D-05 achieved.  Increase integral accuracy.
 SCF Done:  E(RB3LYP) =  -839.950236740     A.U. after   14 cycles
            NFock= 14  Conv=0.60D-08     -V/T= 2.0086
 DoSCS=F DFT=T ScalE2(SS,OS)=  1.000000  1.000000
 Range of M.O.s used for correlation:     1   242
 NBasis=   242 NAE=    58 NBE=    58 NFC=     0 NFV=     0
 NROrb=    242 NOA=    58 NOB=    58 NVA=   184 NVB=   184
 Symmetrizing basis deriv contribution to polar:
 IMax=3 JMax=2 DiffMx= 0.00D+00
 G2DrvN: will do    31 centers at a time, making    1 passes.
 Calling FoFCou, ICntrl=  3107 FMM=F I1Cent=   0 AccDes= 0.00D+00.
 End of G2Drv F.D. properties file   721 does not exist.
 End of G2Drv F.D. properties file   722 does not exist.
 End of G2Drv F.D. properties file   788 does not exist.
          IDoAtm=111111111111111111111111111111
          Differentiating once with respect to nuclear coordinates.
          There are    93 degrees of freedom in the 1st order CPHF.  IDoFFX=6 NUNeed=     0.
     87 vectors produced by pass  0 Test12= 1.15D-14 1.08D-09 XBig12= 1.29D-01 8.57D-02.
 AX will form    87 AO Fock derivatives at one time.
     87 vectors produced by pass  1 Test12= 1.15D-14 1.08D-09 XBig12= 1.17D-02 1.49D-02.
     87 vectors produced by pass  2 Test12= 1.15D-14 1.08D-09 XBig12= 1.38D-04 2.06D-03.
     87 vectors produced by pass  3 Test12= 1.15D-14 1.08D-09 XBig12= 2.83D-07 5.54D-05.
     87 vectors produced by pass  4 Test12= 1.15D-14 1.08D-09 XBig12= 5.32D-10 1.80D-06.
     68 vectors produced by pass  5 Test12= 1.15D-14 1.08D-09 XBig12= 4.19D-13 7.17D-08.
      2 vectors produced by pass  6 Test12= 1.15D-14 1.08D-09 XBig12= 3.36D-16 1.91D-09.
 InvSVY:  IOpt=1 It=  1 EMax= 7.77D-16
 Solved reduced A of dimension   505 with    93 vectors.
 End of Minotr F.D. properties file   721 does not exist.
 End of Minotr F.D. properties file   722 does not exist.
 End of Minotr F.D. properties file   788 does not exist.

 **********************************************************************

            Population analysis using the SCF density.

 **********************************************************************

 Alpha  occ. eigenvalues --  -19.18749 -19.18683 -19.17425 -19.15966 -19.15803
 Alpha  occ. eigenvalues --  -19.15237 -19.13189 -19.08981 -10.29885 -10.26074
 Alpha  occ. eigenvalues --  -10.25934 -10.24633 -10.24607 -10.24489  -1.07388
 Alpha  occ. eigenvalues --   -1.05690  -1.04267  -1.03048  -1.01785  -1.01133
 Alpha  occ. eigenvalues --   -1.00461  -0.94944  -0.78800  -0.76524  -0.70676
 Alpha  occ. eigenvalues --   -0.65362  -0.63730  -0.57871  -0.56521  -0.55453
 Alpha  occ. eigenvalues --   -0.55124  -0.51722  -0.51393  -0.50288  -0.48506
 Alpha  occ. eigenvalues --   -0.47937  -0.47128  -0.45545  -0.44536  -0.43595
 Alpha  occ. eigenvalues --   -0.42260  -0.41666  -0.41171  -0.39355  -0.38692
 Alpha  occ. eigenvalues --   -0.36820  -0.36242  -0.34978  -0.34514  -0.33182
 Alpha  occ. eigenvalues --   -0.31766  -0.30001  -0.29533  -0.29082  -0.27526
 Alpha  occ. eigenvalues --   -0.26762  -0.26242  -0.24670
 Alpha virt. eigenvalues --    0.01936   0.04249   0.05678   0.06687   0.08175
 Alpha virt. eigenvalues --    0.09554   0.11682   0.12516   0.12860   0.13786
 Alpha virt. eigenvalues --    0.14741   0.15471   0.16597   0.17136   0.18204
 Alpha virt. eigenvalues --    0.20168   0.20365   0.21578   0.22985   0.23674
 Alpha virt. eigenvalues --    0.24726   0.25828   0.27147   0.28358   0.29900
 Alpha virt. eigenvalues --    0.29932   0.32108   0.34149   0.50893   0.51757
 Alpha virt. eigenvalues --    0.53548   0.54288   0.56571   0.56696   0.58893
 Alpha virt. eigenvalues --    0.60190   0.62005   0.62074   0.63952   0.67021
 Alpha virt. eigenvalues --    0.67606   0.69429   0.70797   0.71759   0.74044
 Alpha virt. eigenvalues --    0.75489   0.76756   0.77934   0.78487   0.80426
 Alpha virt. eigenvalues --    0.82013   0.82300   0.84274   0.84731   0.85277
 Alpha virt. eigenvalues --    0.86165   0.86497   0.86892   0.88390   0.90542
 Alpha virt. eigenvalues --    0.90685   0.91487   0.91792   0.94097   0.95657
 Alpha virt. eigenvalues --    0.98173   0.98405   0.99408   1.01565   1.02341
 Alpha virt. eigenvalues --    1.02656   1.03391   1.04649   1.06372   1.07646
 Alpha virt. eigenvalues --    1.08284   1.11387   1.12441   1.14280   1.16494
 Alpha virt. eigenvalues --    1.19372   1.21131   1.23012   1.23727   1.24125
 Alpha virt. eigenvalues --    1.28780   1.31321   1.34273   1.37318   1.40357
 Alpha virt. eigenvalues --    1.42484   1.44509   1.45379   1.46725   1.50226
 Alpha virt. eigenvalues --    1.51320   1.53270   1.55138   1.56312   1.58376
 Alpha virt. eigenvalues --    1.63059   1.63537   1.64250   1.67117   1.67656
 Alpha virt. eigenvalues --    1.70093   1.71540   1.72131   1.74846   1.75058
 Alpha virt. eigenvalues --    1.77450   1.78330   1.78860   1.79655   1.80944
 Alpha virt. eigenvalues --    1.82230   1.82985   1.85368   1.86198   1.87019
 Alpha virt. eigenvalues --    1.88474   1.88588   1.90723   1.91950   1.92984
 Alpha virt. eigenvalues --    1.94724   1.98875   2.00002   2.00544   2.03821
 Alpha virt. eigenvalues --    2.04514   2.07291   2.08471   2.12348   2.13881
 Alpha virt. eigenvalues --    2.15455   2.18466   2.20888   2.21681   2.26984
 Alpha virt. eigenvalues --    2.27958   2.33310   2.34966   2.37427   2.38395
 Alpha virt. eigenvalues --    2.42316   2.43326   2.46184   2.49153   2.50503
 Alpha virt. eigenvalues --    2.52282   2.53176   2.54606   2.57883   2.59046
 Alpha virt. eigenvalues --    2.62392   2.63375   2.64475   2.66118   2.71593
 Alpha virt. eigenvalues --    2.71647   2.74793   2.79812   2.83048   2.88202
 Alpha virt. eigenvalues --    2.92101   2.95815   2.99334   3.06696   3.09350
 Alpha virt. eigenvalues --    3.72473   3.75992   3.77257   3.79351   3.86341
 Alpha virt. eigenvalues --    3.95978   4.05158   4.13652   4.25758   4.32556
 Alpha virt. eigenvalues --    4.47541   4.54221   4.60988   4.84267
          Condensed to atoms (all electrons):
               1          2          3          4          5          6
     1  C    4.992194  -0.020314  -0.031273  -0.003569   0.279752   0.341267
     2  C   -0.020314   5.147947  -0.009993   0.315291  -0.012433   0.260843
     3  O   -0.031273  -0.009993   8.597409   0.071056   0.141118  -0.007778
     4  C   -0.003569   0.315291   0.071056   4.767862  -0.011503  -0.029770
     5  C    0.279752  -0.012433   0.141118  -0.011503   5.034292  -0.027652
     6  C    0.341267   0.260843  -0.007778  -0.029770  -0.027652   4.969285
     7  H    0.000325  -0.069189  -0.041087   0.362674   0.002946   0.005685
     8  H   -0.044528  -0.060079   0.000321   0.003623  -0.004646   0.351213
     9  H    0.003818   0.323629   0.001830  -0.037582   0.000217  -0.046494
    10  H   -0.057236  -0.000875  -0.033840  -0.000770   0.359936  -0.008498
    11  H    0.341326  -0.007462   0.001471   0.002608  -0.045745  -0.042407
    12  C   -0.027418   0.000327  -0.029229   0.000778   0.328338   0.003402
    13  H    0.005072   0.000007   0.003709  -0.000094  -0.047224  -0.000125
    14  H   -0.008341  -0.000028   0.002086  -0.000090  -0.036828   0.000051
    15  O   -0.005063  -0.053276  -0.047383   0.284297   0.001343   0.007641
    16  O   -0.001397   0.000005   0.001392  -0.000018  -0.036173  -0.000014
    17  H   -0.001442   0.000001   0.000003  -0.000001  -0.002073  -0.000004
    18  O    0.000802   0.179757   0.001174  -0.045021   0.003382  -0.043079
    19  H   -0.000081  -0.021448   0.000002   0.006445  -0.000059  -0.001391
    20  O   -0.030378  -0.026316   0.000010   0.000939   0.003828   0.197969
    21  H   -0.010223   0.005627  -0.000015  -0.000211   0.000716  -0.024637
    22  O    0.209767   0.003077   0.001280   0.000099  -0.032120  -0.048828
    23  H   -0.021184  -0.000219   0.000021   0.000012  -0.008192   0.005233
    24  O   -0.000898  -0.000135  -0.099494   0.021495   0.006596   0.000041
    25  H    0.000317   0.004061   0.009829  -0.022356  -0.000889  -0.000357
    26  H    0.002360   0.002052   0.110439  -0.011680  -0.014625  -0.000143
    27  H    0.000024   0.000061   0.003756   0.000595  -0.000195  -0.000004
    28  O   -0.000067  -0.009639  -0.000003  -0.000270  -0.000001  -0.000184
    29  H   -0.000080   0.001451   0.000123  -0.003008   0.000008   0.000390
    30  H    0.000066   0.001103   0.000001  -0.000133   0.000003  -0.002594
               7          8          9         10         11         12
     1  C    0.000325  -0.044528   0.003818  -0.057236   0.341326  -0.027418
     2  C   -0.069189  -0.060079   0.323629  -0.000875  -0.007462   0.000327
     3  O   -0.041087   0.000321   0.001830  -0.033840   0.001471  -0.029229
     4  C    0.362674   0.003623  -0.037582  -0.000770   0.002608   0.000778
     5  C    0.002946  -0.004646   0.000217   0.359936  -0.045745   0.328338
     6  C    0.005685   0.351213  -0.046494  -0.008498  -0.042407   0.003402
     7  H    0.631653  -0.000218  -0.001016  -0.000169   0.000410  -0.000144
     8  H   -0.000218   0.635887   0.001031   0.006647   0.007622  -0.000278
     9  H   -0.001016   0.001031   0.558163   0.000026  -0.000243   0.000010
    10  H   -0.000169   0.006647   0.000026   0.621118   0.006882  -0.051461
    11  H    0.000410   0.007622  -0.000243   0.006882   0.616353  -0.011246
    12  C   -0.000144  -0.000278   0.000010  -0.051461  -0.011246   4.961947
    13  H    0.000005   0.000007   0.000000  -0.006433  -0.000124   0.363892
    14  H   -0.000011   0.000005   0.000000   0.005629   0.005022   0.368164
    15  O   -0.045420   0.000051  -0.000457  -0.000118   0.012552  -0.000209
    16  O    0.000000  -0.000009   0.000000   0.000760   0.000093   0.221567
    17  H    0.000000   0.000006   0.000000   0.005346   0.000135  -0.028139
    18  O    0.008970   0.004076  -0.019543   0.002873  -0.000009   0.000049
    19  H   -0.000544   0.003433  -0.005567  -0.000115  -0.000001  -0.000001
    20  O   -0.000085  -0.037007   0.000680   0.000008   0.000895  -0.000052
    21  H    0.000008  -0.002631  -0.000067  -0.000011  -0.000195  -0.000011
    22  O    0.000003   0.001046  -0.000060   0.004735  -0.037232  -0.000895
    23  H    0.000000  -0.000107   0.000005  -0.000479  -0.002496  -0.003074
    24  O    0.001747   0.000000   0.000002  -0.000161   0.000486  -0.000947
    25  H   -0.003975   0.000006  -0.000014   0.000047   0.000057   0.000019
    26  H    0.000853  -0.000001  -0.000068   0.001111   0.000170  -0.002939
    27  H    0.000126   0.000000  -0.000001   0.000009   0.000000   0.000061
    28  O   -0.000064  -0.000044   0.037575   0.000000  -0.000053   0.000000
    29  H    0.000367   0.000013  -0.003400   0.000001   0.000329   0.000000
    30  H    0.000002   0.000376  -0.003901   0.000000   0.000395   0.000000
              13         14         15         16         17         18
     1  C    0.005072  -0.008341  -0.005063  -0.001397  -0.001442   0.000802
     2  C    0.000007  -0.000028  -0.053276   0.000005   0.000001   0.179757
     3  O    0.003709   0.002086  -0.047383   0.001392   0.000003   0.001174
     4  C   -0.000094  -0.000090   0.284297  -0.000018  -0.000001  -0.045021
     5  C   -0.047224  -0.036828   0.001343  -0.036173  -0.002073   0.003382
     6  C   -0.000125   0.000051   0.007641  -0.000014  -0.000004  -0.043079
     7  H    0.000005  -0.000011  -0.045420   0.000000   0.000000   0.008970
     8  H    0.000007   0.000005   0.000051  -0.000009   0.000006   0.004076
     9  H    0.000000   0.000000  -0.000457   0.000000   0.000000  -0.019543
    10  H   -0.006433   0.005629  -0.000118   0.000760   0.005346   0.002873
    11  H   -0.000124   0.005022   0.012552   0.000093   0.000135  -0.000009
    12  C    0.363892   0.368164  -0.000209   0.221567  -0.028139   0.000049
    13  H    0.599506  -0.037886   0.000016  -0.028680  -0.007178   0.000000
    14  H   -0.037886   0.537864  -0.000008  -0.032374   0.006677  -0.000001
    15  O    0.000016  -0.000008   8.415654   0.000001   0.000000   0.001318
    16  O   -0.028680  -0.032374   0.000001   8.223309   0.234843   0.000000
    17  H   -0.007178   0.006677   0.000000   0.234843   0.386670   0.000000
    18  O    0.000000  -0.000001   0.001318   0.000000   0.000000   8.304941
    19  H    0.000000   0.000000  -0.000118   0.000000   0.000000   0.233637
    20  O    0.000000  -0.000001  -0.000354   0.000000   0.000000   0.001139
    21  H    0.000000   0.000000   0.000036   0.000005  -0.000001  -0.000116
    22  O   -0.000198   0.000209   0.000058  -0.016808   0.002984  -0.000019
    23  H    0.000763  -0.000925   0.000000   0.050666  -0.003691   0.000003
    24  O   -0.000167   0.004621  -0.101836   0.000010  -0.000001   0.000002
    25  H    0.000009   0.000238   0.125299   0.000000   0.000000  -0.000056
    26  H    0.001875   0.001021   0.012348   0.000059   0.000009  -0.000016
    27  H    0.000010  -0.000072   0.004182   0.000000   0.000000  -0.000001
    28  O    0.000000   0.000000  -0.008524   0.000000   0.000000   0.000063
    29  H    0.000000   0.000000   0.034588   0.000000   0.000000   0.000000
    30  H    0.000000   0.000000   0.000928   0.000000   0.000000   0.000001
              19         20         21         22         23         24
     1  C   -0.000081  -0.030378  -0.010223   0.209767  -0.021184  -0.000898
     2  C   -0.021448  -0.026316   0.005627   0.003077  -0.000219  -0.000135
     3  O    0.000002   0.000010  -0.000015   0.001280   0.000021  -0.099494
     4  C    0.006445   0.000939  -0.000211   0.000099   0.000012   0.021495
     5  C   -0.000059   0.003828   0.000716  -0.032120  -0.008192   0.006596
     6  C   -0.001391   0.197969  -0.024637  -0.048828   0.005233   0.000041
     7  H   -0.000544  -0.000085   0.000008   0.000003   0.000000   0.001747
     8  H    0.003433  -0.037007  -0.002631   0.001046  -0.000107   0.000000
     9  H   -0.005567   0.000680  -0.000067  -0.000060   0.000005   0.000002
    10  H   -0.000115   0.000008  -0.000011   0.004735  -0.000479  -0.000161
    11  H   -0.000001   0.000895  -0.000195  -0.037232  -0.002496   0.000486
    12  C   -0.000001  -0.000052  -0.000011  -0.000895  -0.003074  -0.000947
    13  H    0.000000   0.000000   0.000000  -0.000198   0.000763  -0.000167
    14  H    0.000000  -0.000001   0.000000   0.000209  -0.000925   0.004621
    15  O   -0.000118  -0.000354   0.000036   0.000058   0.000000  -0.101836
    16  O    0.000000   0.000000   0.000005  -0.016808   0.050666   0.000010
    17  H    0.000000   0.000000  -0.000001   0.002984  -0.003691  -0.000001
    18  O    0.233637   0.001139  -0.000116  -0.000019   0.000003   0.000002
    19  H    0.383347  -0.000012  -0.000015  -0.000003   0.000000   0.000000
    20  O   -0.000012   8.282818   0.232982  -0.003463   0.000018   0.000000
    21  H   -0.000015   0.232982   0.366697   0.017431  -0.000337   0.000000
    22  O   -0.000003  -0.003463   0.017431   8.357107   0.221164   0.000001
    23  H    0.000000   0.000018  -0.000337   0.221164   0.343060   0.000000
    24  O    0.000000   0.000000   0.000000   0.000001   0.000000   8.513400
    25  H    0.000004   0.000009  -0.000002  -0.000004   0.000000   0.131658
    26  H    0.000004   0.000003   0.000000  -0.000033   0.000002   0.127316
    27  H    0.000000   0.000000   0.000000   0.000000   0.000000   0.225587
    28  O    0.000009  -0.009374   0.000384   0.000000   0.000000   0.000000
    29  H   -0.000003   0.000648   0.000000   0.000000   0.000000   0.000034
    30  H    0.000003   0.035726  -0.001093  -0.000003   0.000000   0.000000
              25         26         27         28         29         30
     1  C    0.000317   0.002360   0.000024  -0.000067  -0.000080   0.000066
     2  C    0.004061   0.002052   0.000061  -0.009639   0.001451   0.001103
     3  O    0.009829   0.110439   0.003756  -0.000003   0.000123   0.000001
     4  C   -0.022356  -0.011680   0.000595  -0.000270  -0.003008  -0.000133
     5  C   -0.000889  -0.014625  -0.000195  -0.000001   0.000008   0.000003
     6  C   -0.000357  -0.000143  -0.000004  -0.000184   0.000390  -0.002594
     7  H   -0.003975   0.000853   0.000126  -0.000064   0.000367   0.000002
     8  H    0.000006  -0.000001   0.000000  -0.000044   0.000013   0.000376
     9  H   -0.000014  -0.000068  -0.000001   0.037575  -0.003400  -0.003901
    10  H    0.000047   0.001111   0.000009   0.000000   0.000001   0.000000
    11  H    0.000057   0.000170   0.000000  -0.000053   0.000329   0.000395
    12  C    0.000019  -0.002939   0.000061   0.000000   0.000000   0.000000
    13  H    0.000009   0.001875   0.000010   0.000000   0.000000   0.000000
    14  H    0.000238   0.001021  -0.000072   0.000000   0.000000   0.000000
    15  O    0.125299   0.012348   0.004182  -0.008524   0.034588   0.000928
    16  O    0.000000   0.000059   0.000000   0.000000   0.000000   0.000000
    17  H    0.000000   0.000009   0.000000   0.000000   0.000000   0.000000
    18  O   -0.000056  -0.000016  -0.000001   0.000063   0.000000   0.000001
    19  H    0.000004   0.000004   0.000000   0.000009  -0.000003   0.000003
    20  O    0.000009   0.000003   0.000000  -0.009374   0.000648   0.035726
    21  H   -0.000002   0.000000   0.000000   0.000384   0.000000  -0.001093
    22  O   -0.000004  -0.000033   0.000000   0.000000   0.000000  -0.000003
    23  H    0.000000   0.000002   0.000000   0.000000   0.000000   0.000000
    24  O    0.131658   0.127316   0.225587   0.000000   0.000034   0.000000
    25  H    0.312391  -0.021136  -0.003379   0.000028   0.000111  -0.000007
    26  H   -0.021136   0.318998  -0.002385   0.000001  -0.000019  -0.000001
    27  H   -0.003379  -0.002385   0.363424   0.000000  -0.000004   0.000000
    28  O    0.000028   0.000001   0.000000   8.358580   0.236830   0.235553
    29  H    0.000111  -0.000019  -0.000004   0.236830   0.352157  -0.025557
    30  H   -0.000007  -0.000001   0.000000   0.235553  -0.025557   0.355128
 Mulliken charges:
               1
     1  C    0.086403
     2  C    0.046169
     3  O   -0.646936
     4  C    0.328303
     5  C    0.117885
     6  C    0.140937
     7  H    0.146146
     8  H    0.134185
     9  H    0.191429
    10  H    0.145037
    11  H    0.150412
    12  C   -0.092508
    13  H    0.153238
    14  H    0.184977
    15  O   -0.637548
    16  O   -0.617238
    17  H    0.405856
    18  O   -0.634326
    19  H    0.402474
    20  O   -0.650630
    21  H    0.415681
    22  O   -0.679294
    23  H    0.419758
    24  O   -0.829354
    25  H    0.468090
    26  H    0.474424
    27  H    0.408205
    28  O   -0.840798
    29  H    0.405020
    30  H    0.404001
 Sum of Mulliken charges =   0.00000
 Mulliken charges with hydrogens summed into heavy atoms:
               1
     1  C    0.236814
     2  C    0.237599
     3  O   -0.172512
     4  C    0.474449
     5  C    0.262922
     6  C    0.275122
    12  C    0.245707
    15  O   -0.637548
    16  O   -0.211382
    18  O   -0.231852
    20  O   -0.234949
    22  O   -0.259536
    24  O    0.046941
    28  O   -0.031777
 APT charges:
               1
     1  C   -0.105098
     2  C   -0.292292
     3  O   -0.424330
     4  C   -0.268481
     5  C   -0.264101
     6  C   -0.259301
     7  H    0.505124
     8  H    0.402992
     9  H    0.432603
    10  H    0.393588
    11  H    0.276045
    12  C   -0.684472
    13  H    0.527134
    14  H    0.337230
    15  O   -0.480731
    16  O   -0.793288
    17  H    0.710877
    18  O   -0.956125
    19  H    0.809386
    20  O   -0.795705
    21  H    0.657517
    22  O   -0.835122
    23  H    0.628303
    24  O   -1.255310
    25  H    0.368344
    26  H    0.406345
    27  H    0.899550
    28  O   -0.440298
    29  H    0.216797
    30  H    0.282817
 Sum of APT charges =   0.00000
 APT charges with hydrogens summed into heavy atoms:
               1
     1  C    0.170947
     2  C    0.140311
     3  O   -0.017984
     4  C    0.236643
     5  C    0.129487
     6  C    0.143691
    12  C    0.179892
    15  O   -0.480731
    16  O   -0.082410
    18  O   -0.146739
    20  O   -0.138188
    22  O   -0.206819
    24  O    0.012584
    28  O    0.059316
 Electronic spatial extent (au):  <R**2>=           3021.2322
 Charge=              0.0000 electrons
 Dipole moment (field-independent basis, Debye):
    X=              5.0985    Y=              0.5107    Z=              2.9733  Tot=              5.9242
 Quadrupole moment (field-independent basis, Debye-Ang):
   XX=            -95.9881   YY=            -71.1940   ZZ=            -86.2902
   XY=              1.7422   XZ=             -4.0878   YZ=             -1.3181
 Traceless Quadrupole moment (field-independent basis, Debye-Ang):
   XX=            -11.4973   YY=             13.2967   ZZ=             -1.7994
   XY=              1.7422   XZ=             -4.0878   YZ=             -1.3181
 Octapole moment (field-independent basis, Debye-Ang**2):
  XXX=             94.7782  YYY=             51.1519  ZZZ=             -5.3068  XYY=             -2.5883
  XXY=            -13.7097  XXZ=             58.2860  XZZ=             -0.5133  YZZ=            -19.9193
  YYZ=              2.6807  XYZ=              0.2750
 Hexadecapole moment (field-independent basis, Debye-Ang**3):
 XXXX=          -2188.7465 YYYY=           -823.0109 ZZZZ=           -564.5988 XXXY=            -27.9877
 XXXZ=            -49.8964 YYYX=             22.0479 YYYZ=             13.6754 ZZZX=            -31.2551
 ZZZY=            -22.0224 XXYY=           -455.8232 XXZZ=           -418.4531 YYZZ=           -253.3337
 XXYZ=            -22.8186 YYXZ=             12.6302 ZZXY=             16.4237
 N-N= 1.122367857434D+03 E-N=-4.216843536669D+03  KE= 8.328214998923D+02
  Exact polarizability:   0.000   0.000   0.000   0.000   0.000   0.000
 Approx polarizability: 139.209  -1.266 137.602   7.186  -4.018 129.429
 Calling FoFJK, ICntrl=    100147 FMM=F ISym2X=0 I1Cent= 0 IOpClX= 0 NMat=1 NMatS=1 NMatT=0.
 -------------------------------------------------------------------
 Center     Atomic                   Forces (Hartrees/Bohr)
 Number     Number              X              Y              Z
 -------------------------------------------------------------------
      1        6          -0.000005752   -0.000003232   -0.000000649
      2        6          -0.000001957    0.000004121   -0.000002477
      3        8           0.000003242   -0.000001937    0.000000438
      4        6           0.000001693    0.000005164   -0.000004114
      5        6          -0.000001625   -0.000001716    0.000001395
      6        6          -0.000005272    0.000000028   -0.000002876
      7        1           0.000002310    0.000000083   -0.000001389
      8        1          -0.000003799    0.000001906   -0.000003239
      9        1           0.000000492    0.000002713    0.000001439
     10        1          -0.000001683   -0.000001210   -0.000001248
     11        1           0.000000585   -0.000002310    0.000002604
     12        6           0.000015311   -0.000002892   -0.000004354
     13        1          -0.000007245   -0.000021196   -0.000015700
     14        1           0.000008450   -0.000017051    0.000022629
     15        8           0.000009782    0.000003943    0.000004588
     16        8           0.000002252   -0.000014400    0.000051158
     17        1          -0.000018461    0.000019936   -0.000043961
     18        8          -0.000011212   -0.000007103    0.000002143
     19        1           0.000004775    0.000012128   -0.000004095
     20        8          -0.000003730    0.000008646    0.000000292
     21        1          -0.000002908    0.000001649    0.000000388
     22        8           0.000027484    0.000009382   -0.000012907
     23        1          -0.000034876   -0.000013596    0.000013123
     24        8           0.000011104    0.000008180    0.000005938
     25        1           0.000002078    0.000000148    0.000000920
     26        1           0.000001948   -0.000001792    0.000001009
     27        1           0.000005909   -0.000011113   -0.000001845
     28        8           0.000050659    0.000052296   -0.000002338
     29        1          -0.000045269   -0.000037009   -0.000004092
     30        1          -0.000004284    0.000006237   -0.000002778
 -------------------------------------------------------------------
 Cartesian Forces:  Max     0.000052296 RMS     0.000014913
 IRC-IRC-IRC-IRC-IRC-IRC-IRC-IRC-IRC-IRC-IRC-IRC-IRC-IRC-IRC-IRC-IRC-IRC
          ******** Start new reaction path calculation ********
 Supplied step size of   0.1000 bohr.
    Integration on MW PES will use step size of   0.1065 sqrt(amu)*bohr.
 Point Number:   0          Path Number:   1
 Calculating another point on the path.
 IRC-IRC-IRC-IRC-IRC-IRC-IRC-IRC-IRC-IRC-IRC-IRC-IRC-IRC-IRC-IRC-IRC-IRC
                          Input orientation:                          
 ---------------------------------------------------------------------
 Center     Atomic      Atomic             Coordinates (Angstroms)
 Number     Number       Type             X           Y           Z
 ---------------------------------------------------------------------
      1          6           0        0.587445   -0.929641   -0.384895
      2          6           0       -1.463254   -0.174037    1.002248
      3          8           0        0.722715    1.190067    0.843415
      4          6           0       -0.984709    1.201160    0.572824
      5          6           0        1.431824   -0.025962    0.529186
      6          6           0       -0.721916   -1.334602    0.292661
      7          1           0       -1.163174    1.959877    1.347058
      8          1           0       -0.456349   -2.059348    1.077477
      9          1           0       -2.523991   -0.221843    0.718337
     10          1           0        1.611230   -0.553502    1.476948
     11          1           0        0.347297   -0.374770   -1.302730
     12          6           0        2.779464    0.371948   -0.100304
     13          1           0        3.308090    1.060630    0.573263
     14          1           0        2.607048    0.893794   -1.046110
     15          8           0       -1.190254    1.530187   -0.676027
     16          8           0        3.594752   -0.758128   -0.425230
     17          1           0        3.863003   -1.185026    0.404752
     18          8           0       -1.280418   -0.235981    2.414480
     19          1           0       -1.828558   -0.962629    2.747588
     20          8           0       -1.589694   -1.955554   -0.653664
     21          1           0       -1.040679   -2.592078   -1.143294
     22          8           0        1.243659   -2.157000   -0.687541
     23          1           0        2.144390   -1.934513   -0.991076
     24          8           0        0.759035    2.886029   -0.846344
     25          1           0       -0.325197    2.400091   -0.934889
     26          1           0        0.948339    2.118824    0.054219
     27          1           0        0.687614    3.796469   -0.514962
     28          8           0       -3.618139    0.026413   -1.382849
     29          1           0       -2.923226    0.708512   -1.397168
     30          1           0       -3.092409   -0.792447   -1.394517
 ---------------------------------------------------------------------
                    Distance matrix (angstroms):
                    1          2          3          4          5
     1  C    0.000000
     2  C    2.588527   0.000000
     3  O    2.453611   2.581564   0.000000
     4  C    2.815885   1.518084   1.728769   0.000000
     5  C    1.537906   2.937208   1.442325   2.710603   0.000000
     6  C    1.528888   1.549195   2.960446   2.564691   2.531220
     7  H    3.796531   2.182323   2.098295   1.098608   3.368455
     8  H    2.122328   2.138671   3.464633   3.341370   2.828512
     9  H    3.376260   1.099114   3.542631   2.101309   3.965175
    10  H    2.157794   3.133973   2.056905   3.261163   1.099426
    11  H    1.099079   2.937910   2.682460   2.788458   2.157262
    12  C    2.565165   4.417508   2.406271   3.912760   1.539715
    13  H    3.504448   4.947136   2.602671   4.295099   2.168640
    14  H    2.800164   4.680106   2.684919   3.951726   2.169945
    15  O    3.048889   2.407388   2.466544   1.307722   3.278632
    16  O    3.012464   5.287937   3.695066   5.079999   2.474921
    17  H    3.379059   5.454183   3.961678   5.405779   2.696209
    18  O    3.436070   1.425365   2.917945   2.354679   3.309788
    19  H    3.956085   1.949753   3.843042   3.181771   4.053239
    20  O    2.421708   2.435536   4.181318   3.440222   3.775186
    21  H    2.447377   3.260190   4.621818   4.163755   3.936421
    22  O    1.424297   3.756981   3.717266   4.222722   2.461128
    23  H    1.949693   4.481932   3.892239   4.697818   2.541951
    24  O    3.847300   4.209498   2.394346   2.809531   3.290049
    25  H    3.496072   3.416696   2.392622   2.036072   3.334122
    26  H    3.101001   3.460022   1.239486   2.201757   2.249324
    27  H    4.728960   4.763725   2.939345   3.273464   4.031758
    28  O    4.426837   3.220620   5.015312   3.484198   5.400069
    29  H    4.004129   2.944080   4.306390   2.807386   4.818376
    30  H    3.818309   2.963285   4.847049   3.505325   4.975622
                    6          7          8          9         10
     6  C    0.000000
     7  H    3.487127   0.000000
     8  H    1.100781   4.089798   0.000000
     9  H    2.160302   2.647077   2.789363   0.000000
    10  H    2.730608   3.745833   2.588829   4.217290   0.000000
    11  H    2.147036   3.841025   3.024737   3.514597   3.058771
    12  C    3.914893   4.490075   4.215312   5.399017   2.170012
    13  H    4.696469   4.625971   4.915231   5.973186   2.510260
    14  H    4.223749   4.591118   4.755531   5.539448   3.074433
    15  O    3.060181   2.068391   4.061792   2.606284   4.101875
    16  O    4.413763   5.759029   4.512507   6.247748   2.755814
    17  H    4.588727   6.003400   4.458004   6.466818   2.572724
    18  O    2.453774   2.444366   2.406519   2.103229   3.056372
    19  H    2.718399   3.308362   2.423844   2.269416   3.689722
    20  O    1.426237   4.417625   2.071736   2.400219   4.092819
    21  H    1.935155   5.190102   2.357343   3.359151   4.249009
    22  O    2.345339   5.184700   2.452520   4.462791   2.718700
    23  H    3.197434   5.618997   3.325409   5.258243   2.877950
    24  O    4.615655   3.060010   5.443804   4.783864   4.237251
    25  H    3.951226   2.470481   4.894222   3.800314   4.276729
    26  H    3.843534   2.480965   4.525188   4.239912   3.099179
    27  H    5.382091   3.203999   6.175362   5.289826   4.872681
    28  O    3.612174   4.149401   4.516693   2.381969   5.988408
    29  H    3.446100   3.492058   4.457622   2.345275   5.514935
    30  H    2.959686   4.337450   3.829439   2.261160   5.516034
                   11         12         13         14         15
    11  H    0.000000
    12  C    2.814045   0.000000
    13  H    3.787613   1.098827   0.000000
    14  H    2.604147   1.093891   1.772473   0.000000
    15  O    2.526990   4.175121   4.692154   3.868005   0.000000
    16  O    3.385695   1.430854   2.094527   2.022349   5.309950
    17  H    3.991515   1.962984   2.319331   2.829118   5.837454
    18  O    4.060341   4.814182   5.111329   5.325830   3.560718
    19  H    4.635192   5.579019   5.933500   6.124790   4.282839
    20  O    2.583041   4.981266   5.881412   5.087774   3.508624
    21  H    2.620755   4.946390   5.933013   5.046451   4.151359
    22  O    2.087646   3.016475   4.025500   3.360766   4.418078
    23  H    2.399890   2.552755   3.573827   2.866427   4.819051
    24  O    3.318227   3.310485   3.441663   2.724713   2.380555
    25  H    2.878786   3.801159   4.155652   3.298388   1.253821
    26  H    2.901822   2.535443   2.637727   2.337250   2.335237
    27  H    4.258594   4.034243   3.941565   3.520208   2.947603
    28  O    3.986483   6.534036   7.271081   6.294338   2.942033
    29  H    3.446555   5.857969   6.544912   5.544502   2.048996
    30  H    3.466188   6.124516   6.947837   5.953874   3.086916
                   16         17         18         19         20
    16  O    0.000000
    17  H    0.971117   0.000000
    18  O    5.666027   5.603076   0.000000
    19  H    6.286564   6.158912   0.969245   0.000000
    20  O    5.325832   5.607661   3.530735   3.551264   0.000000
    21  H    5.036488   5.331260   4.273924   4.291250   0.972788
    22  O    2.748325   2.999800   4.436644   4.760793   2.840707
    23  H    1.951311   2.337455   5.119779   5.541344   3.749357
    24  O    4.636649   5.270042   4.953714   5.867210   5.384662
    25  H    5.059653   5.673509   4.368019   5.208514   4.544192
    26  H    3.938302   4.419679   4.010398   4.945781   4.852141
    27  H    5.404058   5.978649   5.358678   6.294789   6.187983
    28  O    7.318356   7.786564   4.466934   4.608831   2.928223
    29  H    6.751276   7.272228   4.256706   4.601089   3.070563
    30  H    6.757131   7.195084   4.254577   4.333973   2.039567
                   21         22         23         24         25
    21  H    0.000000
    22  O    2.369642   0.000000
    23  H    3.255799   0.976192   0.000000
    24  O    5.773804   5.068750   5.017747   0.000000
    25  H    5.047484   4.825926   4.989069   1.191442   0.000000
    26  H    5.251936   4.349724   4.353473   1.198104   1.636868
    27  H    6.647957   5.981869   5.932372   0.971501   1.775386
    28  O    3.682007   5.374739   6.099628   5.255939   4.083930
    29  H    3.808193   5.106628   5.729854   4.313239   3.134468
    30  H    2.740690   4.600359   5.375049   5.353999   4.249826
                   26         27         28         29         30
    26  H    0.000000
    27  H    1.790652   0.000000
    28  O    5.224564   5.788442   0.000000
    29  H    4.368583   4.832383   0.973843   0.000000
    30  H    5.186712   6.010020   0.973170   1.510467   0.000000
 Symmetry turned off by external request.
 Stoichiometry    C6H16O8
 Framework group  C1[X(C6H16O8)]
 Deg. of freedom    84
 Full point group                 C1      NOp   1
 Rotational constants (GHZ):      0.7691202      0.5039745      0.4126177
 Standard basis: 6-31G(d) (6D, 7F)
   242 basis functions,   456 primitive gaussians,   242 cartesian basis functions
    58 alpha electrons       58 beta electrons
       nuclear repulsion energy      1122.3791555777 Hartrees.
 NAtoms=   30 NActive=   30 NUniq=   30 SFac= 1.00D+00 NAtFMM=   60 NAOKFM=F Big=F
 Integral buffers will be    131072 words long.
 Raffenetti 2 integral format.
 Two-electron integral symmetry is turned off.
 One-electron integrals computed using PRISM.
 NBasis=   242 RedAO= T EigKep=  1.27D-03  NBF=   242
 NBsUse=   242 1.00D-06 EigRej= -1.00D+00 NBFU=   242
 Initial guess from the checkpoint file:  "/home/iawad/Gau-29841.chk"
 B after Tr=     0.017428    0.018303   -0.002686
         Rot=    1.000000    0.000037   -0.000019   -0.000035 Ang=   0.01 deg.
 ExpMin= 1.61D-01 ExpMax= 5.48D+03 ExpMxC= 8.25D+02 IAcc=1 IRadAn=         1 AccDes= 0.00D+00
 Harris functional with IExCor=  402 and IRadAn=       1 diagonalized for initial guess.
 HarFok:  IExCor=  402 AccDes= 0.00D+00 IRadAn=         1 IDoV= 1 UseB2=F ITyADJ=14
 ICtDFT=  3500011 ScaDFX=  1.000000  1.000000  1.000000  1.000000
 FoFCou: FMM=F IPFlag=           0 FMFlag=      100000 FMFlg1=           0
         NFxFlg=           0 DoJE=T BraDBF=F KetDBF=T FulRan=T
         wScrn=  0.000000 ICntrl=     500 IOpCl=  0 I1Cent=   200000004 NGrid=           0
         NMat0=    1 NMatS0=      1 NMatT0=    0 NMatD0=    1 NMtDS0=    0 NMtDT0=    0
 Symmetry not used in FoFCou.
 Requested convergence on RMS density matrix=1.00D-08 within 128 cycles.
 Requested convergence on MAX density matrix=1.00D-06.
 Requested convergence on             energy=1.00D-06.
 No special actions if energy rises.
 Integral accuracy reduced to 1.0D-05 until final iterations.
 Initial convergence to 1.0D-05 achieved.  Increase integral accuracy.
 SCF Done:  E(RB3LYP) =  -839.950673746     A.U. after   11 cycles
            NFock= 11  Conv=0.92D-08     -V/T= 2.0086
 DoSCS=F DFT=T ScalE2(SS,OS)=  1.000000  1.000000
 Range of M.O.s used for correlation:     1   242
 NBasis=   242 NAE=    58 NBE=    58 NFC=     0 NFV=     0
 NROrb=    242 NOA=    58 NOB=    58 NVA=   184 NVB=   184
 Symmetrizing basis deriv contribution to polar:
 IMax=3 JMax=2 DiffMx= 0.00D+00
 Calling FoFJK, ICntrl=      2147 FMM=F ISym2X=0 I1Cent= 0 IOpClX= 0 NMat=1 NMatS=1 NMatT=0.
 -------------------------------------------------------------------
 Center     Atomic                   Forces (Hartrees/Bohr)
 Number     Number              X              Y              Z
 -------------------------------------------------------------------
      1        6           0.000220342   -0.000086469    0.000150400
      2        6          -0.000315942    0.000223531   -0.000292980
      3        8          -0.003902868   -0.001867528    0.000369602
      4        6           0.006225354   -0.001096414    0.003472634
      5        6          -0.001109339    0.000371592    0.000476611
      6        6           0.000087053    0.000017293   -0.000030995
      7        1          -0.000153208   -0.000016162   -0.000071874
      8        1          -0.000016372    0.000013628    0.000002076
      9        1          -0.000028582    0.000003521   -0.000008376
     10        1           0.000096077   -0.000178904   -0.000057641
     11        1           0.000030763   -0.000022661   -0.000013323
     12        6          -0.000332344    0.000173714    0.000057681
     13        1          -0.000022589   -0.000016658   -0.000015277
     14        1           0.000002506   -0.000015068    0.000020278
     15        8           0.001991521    0.002646722   -0.002896625
     16        8          -0.000003604   -0.000033520    0.000066498
     17        1          -0.000048432    0.000020719   -0.000033217
     18        8          -0.000125075    0.000113942   -0.000186598
     19        1          -0.000007965    0.000008355   -0.000048994
     20        8          -0.000092411    0.000037592   -0.000030445
     21        1           0.000012401    0.000017605    0.000000562
     22        8          -0.000076214   -0.000128046   -0.000171426
     23        1          -0.000020726    0.000006814    0.000074162
     24        8           0.001638992   -0.000858130    0.001946433
     25        1          -0.004539483   -0.003404945    0.000527719
     26        1           0.000210923    0.004227896   -0.003495776
     27        1           0.000339256   -0.000170572    0.000272015
     28        8           0.000061135    0.000028251    0.000034168
     29        1          -0.000125465   -0.000014207   -0.000121808
     30        1           0.000004298   -0.000001888    0.000004518
 -------------------------------------------------------------------
 Cartesian Forces:  Max     0.006225354 RMS     0.001344144
 IRC-IRC-IRC-IRC-IRC-IRC-IRC-IRC-IRC-IRC-IRC-IRC-IRC-IRC-IRC-IRC-IRC-IRC
 Pt  1 Step number   1 out of a maximum of  20
 Modified Bulirsch-Stoer Extrapolation Cycles:
    EPS =    0.000010000000000
 Maximum DWI energy   std dev =  0.000002904 at pt    51
 Maximum DWI gradient std dev =  0.045570017 at pt     1
 CORRECTOR INTEGRATION CONVERGENCE:
   Recorrection delta-x convergence threshold:    0.010000
   Delta-x Convergence Met
 Point Number:   1          Path Number:   1
   CHANGE IN THE REACTION COORDINATE =    0.10645
   NET REACTION COORDINATE UP TO THIS POINT =    0.10645
  # OF POINTS ALONG THE PATH =   1
  # OF STEPS =   1

 Calculating another point on the path.
 IRC-IRC-IRC-IRC-IRC-IRC-IRC-IRC-IRC-IRC-IRC-IRC-IRC-IRC-IRC-IRC-IRC-IRC
                          Input orientation:                          
 ---------------------------------------------------------------------
 Center     Atomic      Atomic             Coordinates (Angstroms)
 Number     Number       Type             X           Y           Z
 ---------------------------------------------------------------------
      1          6           0        0.587572   -0.929690   -0.384811
      2          6           0       -1.463443   -0.173917    1.002085
      3          8           0        0.721091    1.189233    0.843632
      4          6           0       -0.981264    1.200541    0.574812
      5          6           0        1.431218   -0.025781    0.529456
      6          6           0       -0.721864   -1.334593    0.292641
      7          1           0       -1.164204    1.959826    1.346541
      8          1           0       -0.456463   -2.059262    1.077509
      9          1           0       -2.524207   -0.221867    0.718288
     10          1           0        1.611914   -0.554782    1.476556
     11          1           0        0.347509   -0.374917   -1.302836
     12          6           0        2.779281    0.372035   -0.100271
     13          1           0        3.307999    1.060594    0.573250
     14          1           0        2.607031    0.893786   -1.046093
     15          8           0       -1.189456    1.531281   -0.677276
     16          8           0        3.594746   -0.758137   -0.425218
     17          1           0        3.862765   -1.185025    0.404776
     18          8           0       -1.280464   -0.235926    2.414397
     19          1           0       -1.828663   -0.962616    2.747282
     20          8           0       -1.589734   -1.955537   -0.653677
     21          1           0       -1.040592   -2.591966   -1.143297
     22          8           0        1.243612   -2.157055   -0.687608
     23          1           0        2.144448   -1.934411   -0.990653
     24          8           0        0.759756    2.885723   -0.845597
     25          1           0       -0.355130    2.377168   -0.930913
     26          1           0        0.949438    2.147376    0.030593
     27          1           0        0.689963    3.795858   -0.513050
     28          8           0       -3.618131    0.026408   -1.382833
     29          1           0       -2.923825    0.708688   -1.398038
     30          1           0       -3.092370   -0.792484   -1.394498
 ---------------------------------------------------------------------
                    Distance matrix (angstroms):
                    1          2          3          4          5
     1  C    0.000000
     2  C    2.588694   0.000000
     3  O    2.452903   2.579821   0.000000
     4  C    2.814251   1.517957   1.723486   0.000000
     5  C    1.537750   2.936731   1.441959   2.706657   0.000000
     6  C    1.528892   1.549329   2.958954   2.563945   2.530777
     7  H    3.796788   2.181984   2.097872   1.097974   3.368453
     8  H    2.122339   2.138744   3.463244   3.339826   2.828206
     9  H    3.376538   1.099117   3.541027   2.103450   3.964781
    10  H    2.157434   3.134965   2.058093   3.258661   1.099769
    11  H    1.099169   2.938130   2.682061   2.788058   2.157224
    12  C    2.564964   4.417461   2.407262   3.909457   1.540158
    13  H    3.504260   4.947179   2.604179   4.291546   2.168971
    14  H    2.800103   4.680148   2.686097   3.949341   2.170367
    15  O    3.049548   2.408946   2.465836   1.311662   3.278502
    16  O    3.012335   5.288080   3.695960   5.077041   2.475601
    17  H    3.378688   5.454137   3.962298   5.402264   2.696630
    18  O    3.436049   1.425466   2.916266   2.353090   3.309137
    19  H    3.955917   1.949652   3.841300   3.180716   4.052559
    20  O    2.421840   2.435501   4.179883   3.440966   3.774905
    21  H    2.447321   3.260128   4.620485   4.163956   3.936147
    22  O    1.424255   3.757134   3.716904   4.221047   2.461457
    23  H    1.949454   4.481877   3.892004   4.695602   2.542105
    24  O    3.846992   4.209268   2.394382   2.808657   3.289146
    25  H    3.481698   3.387163   2.391328   2.010896   3.331348
    26  H    3.125995   3.486287   1.277189   2.218171   2.281137
    27  H    4.728396   4.763602   2.938715   3.272936   4.030037
    28  O    4.426975   3.220348   5.013796   3.487697   5.399583
    29  H    4.005099   2.944877   4.305975   2.812046   4.818825
    30  H    3.818411   2.963045   4.845504   3.508147   4.975166
                    6          7          8          9         10
     6  C    0.000000
     7  H    3.487057   0.000000
     8  H    1.100728   4.089786   0.000000
     9  H    2.160503   2.646525   2.789377   0.000000
    10  H    2.730619   3.747931   2.588607   4.218210   0.000000
    11  H    2.147110   3.841289   3.024803   3.514985   3.058773
    12  C    3.914712   4.490592   4.215259   5.399050   2.169819
    13  H    4.696324   4.626791   4.915176   5.973305   2.510399
    14  H    4.223674   4.591661   4.755542   5.539614   3.074470
    15  O    3.061473   2.068846   4.063072   2.608197   4.103452
    16  O    4.413700   5.759692   4.512584   6.247942   2.754945
    17  H    4.588438   6.003950   4.457868   6.466790   2.571429
    18  O    2.453763   2.444414   2.406409   2.103302   3.057297
    19  H    2.718204   3.308209   2.423573   2.269208   3.690344
    20  O    1.426284   4.417241   2.071730   2.400237   4.092744
    21  H    1.935069   5.189739   2.357321   3.359164   4.248475
    22  O    2.345300   5.184984   2.452643   4.462954   2.717818
    23  H    3.197244   5.619140   3.325300   5.258291   2.876472
    24  O    4.615392   3.060127   5.443381   4.784064   4.237409
    25  H    3.925397   2.452666   4.870928   3.765600   4.273347
    26  H    3.871179   2.496873   4.557236   4.260569   3.135497
    27  H    5.381814   3.204220   6.174674   5.290482   4.872021
    28  O    3.612187   4.148415   4.516575   2.381810   5.988928
    29  H    3.447031   3.492038   4.458448   2.346160   5.516573
    30  H    2.959665   4.336627   3.829301   2.261035   5.516316
                   11         12         13         14         15
    11  H    0.000000
    12  C    2.813825   0.000000
    13  H    3.787465   1.098766   0.000000
    14  H    2.604029   1.093834   1.772414   0.000000
    15  O    2.527287   4.174644   4.691744   3.867265   0.000000
    16  O    3.385501   1.431035   2.094503   2.022354   5.309760
    17  H    3.991145   1.963020   2.319257   2.829018   5.837301
    18  O    4.060473   4.814011   5.111241   5.325774   3.562267
    19  H    4.635145   5.578798   5.933387   6.124647   4.284355
    20  O    2.583152   4.981178   5.881342   5.087776   3.509798
    21  H    2.620608   4.946174   5.932788   5.046293   4.152169
    22  O    2.087468   3.016544   4.025509   3.360811   4.418569
    23  H    2.399681   2.552545   3.573472   2.866314   4.819143
    24  O    3.318250   3.309474   3.440605   2.724048   2.379553
    25  H    2.864611   3.812487   4.173055   3.314829   1.214889
    26  H    2.915873   2.552898   2.652995   2.340589   2.335705
    27  H    4.258685   4.032146   3.939014   3.518709   2.947455
    28  O    3.986698   6.533858   7.270975   6.294314   2.942944
    29  H    3.447447   5.858579   6.545643   5.545133   2.050414
    30  H    3.466342   6.124329   6.947708   5.953828   3.087940
                   16         17         18         19         20
    16  O    0.000000
    17  H    0.971060   0.000000
    18  O    5.666021   5.602872   0.000000
    19  H    6.286488   6.158664   0.969232   0.000000
    20  O    5.325861   5.607473   3.530692   3.550985   0.000000
    21  H    5.036361   5.330940   4.273833   4.290972   0.972793
    22  O    2.748391   2.999684   4.436681   4.760675   2.840706
    23  H    1.951078   2.336967   5.119496   5.540952   3.749415
    24  O    4.635903   5.269068   4.953257   5.866720   5.384676
    25  H    5.068272   5.680134   4.344606   5.182139   4.513694
    26  H    3.955682   4.442115   4.041673   4.976976   4.873348
    27  H    5.402254   5.976477   5.357967   6.294149   6.188323
    28  O    7.318342   7.786329   4.466818   4.608493   2.928168
    29  H    6.752016   7.272832   4.257651   4.601773   3.071151
    30  H    6.757085   7.194815   4.254461   4.333617   2.039466
                   21         22         23         24         25
    21  H    0.000000
    22  O    2.369470   0.000000
    23  H    3.255788   0.976171   0.000000
    24  O    5.773643   5.068401   5.017181   0.000000
    25  H    5.020683   4.813975   4.984092   1.228364   0.000000
    26  H    5.272533   4.373841   4.374012   1.161398   1.636825
    27  H    6.648032   5.981152   5.931241   0.971497   1.810942
    28  O    3.681979   5.374700   6.099666   5.256444   4.046910
    29  H    3.808645   5.107321   5.730561   4.314330   3.098423
    30  H    2.740626   4.600270   5.375067   5.354379   4.213560
                   26         27         28         29         30
    26  H    0.000000
    27  H    1.755097   0.000000
    28  O    5.230580   5.790073   0.000000
    29  H    4.371840   4.834593   0.973549   0.000000
    30  H    5.197103   6.011312   0.973214   1.510608   0.000000
 Symmetry turned off by external request.
 Stoichiometry    C6H16O8
 Framework group  C1[X(C6H16O8)]
 Deg. of freedom    84
 Full point group                 C1      NOp   1
 Rotational constants (GHZ):      0.7691126      0.5040273      0.4126636
 Standard basis: 6-31G(d) (6D, 7F)
   242 basis functions,   456 primitive gaussians,   242 cartesian basis functions
    58 alpha electrons       58 beta electrons
       nuclear repulsion energy      1122.3918226772 Hartrees.
 NAtoms=   30 NActive=   30 NUniq=   30 SFac= 1.00D+00 NAtFMM=   60 NAOKFM=F Big=F
 Integral buffers will be    131072 words long.
 Raffenetti 2 integral format.
 Two-electron integral symmetry is turned off.
 One-electron integrals computed using PRISM.
 NBasis=   242 RedAO= T EigKep=  1.27D-03  NBF=   242
 NBsUse=   242 1.00D-06 EigRej= -1.00D+00 NBFU=   242
 Initial guess from the checkpoint file:  "/home/iawad/Gau-29841.chk"
 B after Tr=    -0.000224    0.000031   -0.000156
         Rot=    1.000000    0.000038   -0.000020   -0.000034 Ang=   0.01 deg.
 ExpMin= 1.61D-01 ExpMax= 5.48D+03 ExpMxC= 8.25D+02 IAcc=1 IRadAn=         1 AccDes= 0.00D+00
 Harris functional with IExCor=  402 and IRadAn=       1 diagonalized for initial guess.
 HarFok:  IExCor=  402 AccDes= 0.00D+00 IRadAn=         1 IDoV= 1 UseB2=F ITyADJ=14
 ICtDFT=  3500011 ScaDFX=  1.000000  1.000000  1.000000  1.000000
 FoFCou: FMM=F IPFlag=           0 FMFlag=      100000 FMFlg1=           0
         NFxFlg=           0 DoJE=T BraDBF=F KetDBF=T FulRan=T
         wScrn=  0.000000 ICntrl=     500 IOpCl=  0 I1Cent=   200000004 NGrid=           0
         NMat0=    1 NMatS0=      1 NMatT0=    0 NMatD0=    1 NMtDS0=    0 NMtDT0=    0
 Symmetry not used in FoFCou.
 Requested convergence on RMS density matrix=1.00D-08 within 128 cycles.
 Requested convergence on MAX density matrix=1.00D-06.
 Requested convergence on             energy=1.00D-06.
 No special actions if energy rises.
 Integral accuracy reduced to 1.0D-05 until final iterations.
 Initial convergence to 1.0D-05 achieved.  Increase integral accuracy.
 SCF Done:  E(RB3LYP) =  -839.952016414     A.U. after   11 cycles
            NFock= 11  Conv=0.82D-08     -V/T= 2.0086
 DoSCS=F DFT=T ScalE2(SS,OS)=  1.000000  1.000000
 Range of M.O.s used for correlation:     1   242
 NBasis=   242 NAE=    58 NBE=    58 NFC=     0 NFV=     0
 NROrb=    242 NOA=    58 NOB=    58 NVA=   184 NVB=   184
 Symmetrizing basis deriv contribution to polar:
 IMax=3 JMax=2 DiffMx= 0.00D+00
 Calling FoFJK, ICntrl=      2147 FMM=F ISym2X=0 I1Cent= 0 IOpClX= 0 NMat=1 NMatS=1 NMatT=0.
 -------------------------------------------------------------------
 Center     Atomic                   Forces (Hartrees/Bohr)
 Number     Number              X              Y              Z
 -------------------------------------------------------------------
      1        6           0.000461138   -0.000176232    0.000305446
      2        6          -0.000680193    0.000426962   -0.000593005
      3        8          -0.007928977   -0.004294322    0.001271550
      4        6           0.012483119   -0.002267405    0.007188658
      5        6          -0.002209658    0.000656593    0.000977214
      6        6           0.000186538    0.000031661   -0.000061509
      7        1          -0.000327087   -0.000015869   -0.000162174
      8        1          -0.000026584    0.000023345    0.000011982
      9        1          -0.000063396   -0.000014062   -0.000011734
     10        1           0.000207164   -0.000378982   -0.000121443
     11        1           0.000065729   -0.000043243   -0.000034913
     12        6          -0.000680160    0.000346689    0.000118211
     13        1          -0.000028039    0.000006694    0.000001119
     14        1          -0.000016045    0.000011243   -0.000000051
     15        8           0.003410188    0.004850275   -0.005818806
     16        8          -0.000021537   -0.000054400    0.000038372
     17        1          -0.000062259    0.000001375    0.000018662
     18        8          -0.000221839    0.000265093   -0.000398986
     19        1          -0.000029297   -0.000003825   -0.000090700
     20        8          -0.000190747    0.000075580   -0.000064394
     21        1           0.000031652    0.000030507   -0.000000525
     22        8          -0.000228338   -0.000275035   -0.000319477
     23        1           0.000031314    0.000041775    0.000123060
     24        8           0.004049423   -0.000333845    0.003019365
     25        1          -0.009339904   -0.006919965    0.001016408
     26        1           0.000524124    0.008280351   -0.006743098
     27        1           0.000741905   -0.000261587    0.000500571
     28        8           0.000021445   -0.000036010    0.000080204
     29        1          -0.000176950    0.000047338   -0.000261124
     30        1           0.000017272   -0.000020699    0.000011115
 -------------------------------------------------------------------
 Cartesian Forces:  Max     0.012483119 RMS     0.002689142
 IRC-IRC-IRC-IRC-IRC-IRC-IRC-IRC-IRC-IRC-IRC-IRC-IRC-IRC-IRC-IRC-IRC-IRC
 Pt  2 Step number   1 out of a maximum of  20
 Modified Bulirsch-Stoer Extrapolation Cycles:
    EPS =    0.000010000000000
 Maximum DWI energy   std dev =  0.000004722 at pt    48
 Maximum DWI gradient std dev =  0.024154276 at pt    55
 CORRECTOR INTEGRATION CONVERGENCE:
   Recorrection delta-x convergence threshold:    0.010000
   Delta-x Convergence Met
 Point Number:   2          Path Number:   1
   CHANGE IN THE REACTION COORDINATE =    0.10642
   NET REACTION COORDINATE UP TO THIS POINT =    0.21287
  # OF POINTS ALONG THE PATH =   2
  # OF STEPS =   1

 Calculating another point on the path.
 IRC-IRC-IRC-IRC-IRC-IRC-IRC-IRC-IRC-IRC-IRC-IRC-IRC-IRC-IRC-IRC-IRC-IRC
                          Input orientation:                          
 ---------------------------------------------------------------------
 Center     Atomic      Atomic             Coordinates (Angstroms)
 Number     Number       Type             X           Y           Z
 ---------------------------------------------------------------------
      1          6           0        0.587700   -0.929741   -0.384727
      2          6           0       -1.463636   -0.173801    1.001919
      3          8           0        0.719411    1.188255    0.843974
      4          6           0       -0.977777    1.199903    0.576851
      5          6           0        1.430609   -0.025621    0.529730
      6          6           0       -0.721812   -1.334587    0.292623
      7          1           0       -1.165297    1.959802    1.345960
      8          1           0       -0.456551   -2.059180    1.077548
      9          1           0       -2.524426   -0.221927    0.718250
     10          1           0        1.612613   -0.556070    1.476151
     11          1           0        0.347741   -0.375063   -1.302954
     12          6           0        2.779092    0.372137   -0.100241
     13          1           0        3.307904    1.060619    0.573250
     14          1           0        2.606960    0.893850   -1.046080
     15          8           0       -1.188804    1.532244   -0.678494
     16          8           0        3.594738   -0.758150   -0.425208
     17          1           0        3.862575   -1.185017    0.404846
     18          8           0       -1.280511   -0.235869    2.414311
     19          1           0       -1.828755   -0.962628    2.746978
     20          8           0       -1.589773   -1.955520   -0.653691
     21          1           0       -1.040490   -2.591863   -1.143294
     22          8           0        1.243564   -2.157112   -0.687675
     23          1           0        2.144547   -1.934269   -0.990242
     24          8           0        0.760699    2.885800   -0.845073
     25          1           0       -0.386619    2.353807   -0.927419
     26          1           0        0.951216    2.174902    0.008269
     27          1           0        0.692545    3.795424   -0.511384
     28          8           0       -3.618128    0.026398   -1.382815
     29          1           0       -2.924410    0.708873   -1.398951
     30          1           0       -3.092328   -0.792546   -1.394464
 ---------------------------------------------------------------------
                    Distance matrix (angstroms):
                    1          2          3          4          5
     1  C    0.000000
     2  C    2.588864   0.000000
     3  O    2.452134   2.577953   0.000000
     4  C    2.812603   1.517829   1.718120   0.000000
     5  C    1.537582   2.936252   1.441543   2.702674   0.000000
     6  C    1.528897   1.549461   2.957337   2.563190   2.530321
     7  H    3.797069   2.181658   2.097475   1.097333   3.368511
     8  H    2.122344   2.138831   3.461688   3.338262   2.827868
     9  H    3.376816   1.099118   3.539337   2.105640   3.964388
    10  H    2.157069   3.135974   2.059157   3.256117   1.100098
    11  H    1.099267   2.938373   2.681678   2.787684   2.157184
    12  C    2.564765   4.417415   2.408293   3.906112   1.540611
    13  H    3.504107   4.947236   2.605739   4.287945   2.169343
    14  H    2.800050   4.680164   2.687344   3.946886   2.170808
    15  O    3.050186   2.410376   2.465263   1.315628   3.278425
    16  O    3.012202   5.288224   3.696867   5.074051   2.476280
    17  H    3.378373   5.454135   3.962920   5.398744   2.697083
    18  O    3.436028   1.425566   2.914409   2.351456   3.308477
    19  H    3.955745   1.949562   3.839385   3.179646   4.051866
    20  O    2.421973   2.435463   4.178356   3.441724   3.774613
    21  H    2.447259   3.260064   4.619067   4.164171   3.935852
    22  O    1.424210   3.757284   3.716472   4.219352   2.461770
    23  H    1.949230   4.481846   3.891724   4.693370   2.542235
    24  O    3.847102   4.209537   2.395045   2.808276   3.288652
    25  H    3.467781   3.357248   2.391578   1.985899   3.329757
    26  H    3.150460   3.512158   1.313624   2.234932   2.311718
    27  H    4.728024   4.763816   2.938544   3.272760   4.028528
    28  O    4.427117   3.220073   5.012260   3.491255   5.399099
    29  H    4.006073   2.945700   4.305573   2.816787   4.819282
    30  H    3.818507   2.962792   4.843918   3.511021   4.974701
                    6          7          8          9         10
     6  C    0.000000
     7  H    3.487003   0.000000
     8  H    1.100684   4.089815   0.000000
     9  H    2.160692   2.645977   2.789391   0.000000
    10  H    2.730635   3.750113   2.588371   4.219142   0.000000
    11  H    2.147207   3.841565   3.024885   3.515403   3.058772
    12  C    3.914534   4.491145   4.215196   5.399088   2.169621
    13  H    4.696208   4.627650   4.915139   5.973444   2.510563
    14  H    4.223598   4.592171   4.755552   5.539760   3.074515
    15  O    3.062657   2.069245   4.064260   2.609961   4.105057
    16  O    4.413634   5.760403   4.512638   6.248136   2.754056
    17  H    4.588199   6.004589   4.457751   6.466804   2.570136
    18  O    2.453749   2.444507   2.406306   2.103365   3.058241
    19  H    2.718002   3.308114   2.423297   2.268994   3.690976
    20  O    1.426333   4.416846   2.071745   2.400238   4.092672
    21  H    1.934983   5.189375   2.357303   3.359168   4.247929
    22  O    2.345258   5.185293   2.452752   4.463106   2.716924
    23  H    3.197089   5.619315   3.325217   5.258362   2.874975
    24  O    4.615610   3.060647   5.443436   4.784767   4.237960
    25  H    3.899373   2.435125   4.847602   3.729994   4.271003
    26  H    3.898255   2.513029   4.588313   4.281233   3.170226
    27  H    5.381806   3.204811   6.174262   5.291504   4.871583
    28  O    3.612204   4.147366   4.516480   2.381663   5.989458
    29  H    3.447983   3.491968   4.459315   2.347108   5.518231
    30  H    2.959632   4.335758   3.829168   2.260902   5.516595
                   11         12         13         14         15
    11  H    0.000000
    12  C    2.813591   0.000000
    13  H    3.787332   1.098744   0.000000
    14  H    2.603880   1.093812   1.772389   0.000000
    15  O    2.527595   4.174258   4.691447   3.866586   0.000000
    16  O    3.385289   1.431234   2.094544   2.022447   5.309646
    17  H    3.990823   1.963104   2.319246   2.829036   5.837257
[...]
 Alpha  occ. eigenvalues --  -10.25919 -10.24438 -10.24419 -10.24336  -1.07739
 Alpha  occ. eigenvalues --   -1.05562  -1.04146  -1.02918  -1.01937  -1.01642
 Alpha  occ. eigenvalues --   -1.01072  -0.95022  -0.78866  -0.77502  -0.70829
 Alpha  occ. eigenvalues --   -0.65136  -0.64244  -0.57469  -0.56633  -0.55789
 Alpha  occ. eigenvalues --   -0.55386  -0.52683  -0.51535  -0.49628  -0.48846
 Alpha  occ. eigenvalues --   -0.47442  -0.47138  -0.45581  -0.44182  -0.43278
 Alpha  occ. eigenvalues --   -0.41999  -0.41848  -0.41084  -0.38983  -0.38608
 Alpha  occ. eigenvalues --   -0.36773  -0.36451  -0.34951  -0.33662  -0.33137
 Alpha  occ. eigenvalues --   -0.31641  -0.30566  -0.29658  -0.29013  -0.28566
 Alpha  occ. eigenvalues --   -0.27137  -0.27056  -0.24702
 Alpha virt. eigenvalues --    0.03125   0.05861   0.06429   0.08176   0.08830
 Alpha virt. eigenvalues --    0.10450   0.11854   0.12321   0.13241   0.14046
 Alpha virt. eigenvalues --    0.14774   0.15434   0.16698   0.17293   0.18621
 Alpha virt. eigenvalues --    0.19998   0.20357   0.20589   0.22922   0.23471
 Alpha virt. eigenvalues --    0.24466   0.25737   0.26813   0.27439   0.29292
 Alpha virt. eigenvalues --    0.30467   0.30838   0.33540   0.51178   0.51982
 Alpha virt. eigenvalues --    0.53684   0.54428   0.56129   0.57010   0.59091
 Alpha virt. eigenvalues --    0.59950   0.61581   0.62789   0.65638   0.68040
 Alpha virt. eigenvalues --    0.69486   0.70412   0.71076   0.74004   0.74282
 Alpha virt. eigenvalues --    0.76600   0.77422   0.78105   0.79975   0.80807
 Alpha virt. eigenvalues --    0.82206   0.82920   0.84374   0.85003   0.85467
 Alpha virt. eigenvalues --    0.86233   0.86536   0.88227   0.88559   0.90253
 Alpha virt. eigenvalues --    0.90856   0.91486   0.91970   0.93998   0.96091
 Alpha virt. eigenvalues --    0.97529   0.98812   0.98974   1.00689   1.02595
 Alpha virt. eigenvalues --    1.02893   1.03943   1.04920   1.06525   1.06766
 Alpha virt. eigenvalues --    1.08997   1.11360   1.12354   1.13844   1.15586
 Alpha virt. eigenvalues --    1.19728   1.20842   1.23519   1.24468   1.25242
 Alpha virt. eigenvalues --    1.29157   1.31869   1.35135   1.37039   1.40218
 Alpha virt. eigenvalues --    1.41905   1.43251   1.45926   1.47025   1.49355
 Alpha virt. eigenvalues --    1.50359   1.53816   1.55787   1.57100   1.59782
 Alpha virt. eigenvalues --    1.60966   1.63380   1.64395   1.66618   1.68788
 Alpha virt. eigenvalues --    1.70278   1.71573   1.72111   1.73849   1.76126
 Alpha virt. eigenvalues --    1.77130   1.77636   1.78619   1.79739   1.80828
 Alpha virt. eigenvalues --    1.81130   1.82217   1.84664   1.85492   1.86321
 Alpha virt. eigenvalues --    1.87180   1.89056   1.90060   1.92031   1.93326
 Alpha virt. eigenvalues --    1.95319   1.98269   1.99604   2.01928   2.03419
 Alpha virt. eigenvalues --    2.06107   2.07574   2.08917   2.12011   2.13891
 Alpha virt. eigenvalues --    2.16250   2.17295   2.20411   2.24760   2.27298
 Alpha virt. eigenvalues --    2.28320   2.33724   2.35205   2.37742   2.39262
 Alpha virt. eigenvalues --    2.43037   2.44055   2.46533   2.47887   2.50413
 Alpha virt. eigenvalues --    2.52051   2.53307   2.54204   2.55459   2.57568
 Alpha virt. eigenvalues --    2.61138   2.63046   2.64478   2.66842   2.67352
 Alpha virt. eigenvalues --    2.72262   2.77626   2.81889   2.85446   2.91737
 Alpha virt. eigenvalues --    2.93584   2.96404   2.97691   3.06013   3.12301
 Alpha virt. eigenvalues --    3.72255   3.74618   3.76394   3.77269   3.85854
 Alpha virt. eigenvalues --    3.97829   4.04655   4.11097   4.26734   4.33724
 Alpha virt. eigenvalues --    4.47716   4.54989   4.63794   4.87520
          Condensed to atoms (all electrons):
               1          2          3          4          5          6
     1  C    4.984240  -0.021093  -0.025857  -0.002730   0.280949   0.340020
     2  C   -0.021093   5.086568  -0.017305   0.333452  -0.015545   0.266425
     3  O   -0.025857  -0.017305   8.467426   0.152597   0.147817  -0.010673
     4  C   -0.002730   0.333452   0.152597   4.706258  -0.018926  -0.030436
     5  C    0.280949  -0.015545   0.147817  -0.018926   5.031754  -0.028956
     6  C    0.340020   0.266425  -0.010673  -0.030436  -0.028956   4.984265
     7  H    0.000110  -0.051758  -0.050998   0.381330   0.003969   0.005577
     8  H   -0.043589  -0.059057   0.000457   0.003196  -0.004923   0.348432
     9  H    0.003769   0.323736   0.002405  -0.037031   0.000374  -0.048894
    10  H   -0.054408  -0.000346  -0.034150  -0.001112   0.356695  -0.009304
    11  H    0.342969  -0.006298   0.001267   0.002382  -0.046982  -0.044070
    12  C   -0.023821   0.000208  -0.032345   0.001321   0.321547   0.003600
    13  H    0.004819   0.000008   0.003511  -0.000153  -0.045173  -0.000127
    14  H   -0.008541  -0.000044   0.002369  -0.000042  -0.034981   0.000060
    15  O   -0.006834  -0.050273  -0.045153   0.233650   0.002410   0.006279
    16  O   -0.002129   0.000004   0.001165  -0.000026  -0.032521  -0.000016
    17  H   -0.001376   0.000001   0.000017  -0.000001  -0.001993  -0.000007
    18  O    0.001169   0.195654   0.000410  -0.051674   0.003490  -0.043549
    19  H   -0.000071  -0.023705   0.000020   0.007196  -0.000090  -0.001465
    20  O   -0.030443  -0.026136   0.000029   0.000876   0.003947   0.197758
    21  H   -0.010331   0.005623  -0.000017  -0.000231   0.000765  -0.024955
    22  O    0.212705   0.003023   0.001305   0.000059  -0.032955  -0.049102
    23  H   -0.021411  -0.000221   0.000018   0.000018  -0.008019   0.005241
    24  O   -0.000579   0.000160  -0.050800   0.014392   0.003676  -0.000002
    25  H   -0.000007   0.005939   0.004148  -0.020789  -0.000189  -0.000433
    26  H    0.001264   0.001324   0.067926  -0.007662  -0.010121  -0.000069
    27  H    0.000013   0.000024   0.001849   0.000505  -0.000102  -0.000002
    28  O   -0.000064  -0.010353  -0.000003  -0.000617  -0.000001   0.000014
    29  H   -0.000041   0.001740   0.000120  -0.001983   0.000006   0.000237
    30  H    0.000075   0.001192   0.000001  -0.000090   0.000003  -0.002793
               7          8          9         10         11         12
     1  C    0.000110  -0.043589   0.003769  -0.054408   0.342969  -0.023821
     2  C   -0.051758  -0.059057   0.323736  -0.000346  -0.006298   0.000208
     3  O   -0.050998   0.000457   0.002405  -0.034150   0.001267  -0.032345
     4  C    0.381330   0.003196  -0.037031  -0.001112   0.002382   0.001321
     5  C    0.003969  -0.004923   0.000374   0.356695  -0.046982   0.321547
     6  C    0.005577   0.348432  -0.048894  -0.009304  -0.044070   0.003600
     7  H    0.600668  -0.000232  -0.002619  -0.000099   0.000356  -0.000157
     8  H   -0.000232   0.637544   0.001470   0.007007   0.007656  -0.000286
     9  H   -0.002619   0.001470   0.562778   0.000006  -0.000311   0.000013
    10  H   -0.000099   0.007007   0.000006   0.634086   0.007165  -0.058746
    11  H    0.000356   0.007656  -0.000311   0.007165   0.617889  -0.011905
    12  C   -0.000157  -0.000286   0.000013  -0.058746  -0.011905   4.978923
    13  H    0.000000   0.000008   0.000000  -0.005529  -0.000093   0.362677
    14  H    0.000001   0.000005   0.000000   0.005650   0.005188   0.363882
    15  O   -0.043389   0.000051   0.001294  -0.000194   0.012250  -0.000125
    16  O    0.000001  -0.000009   0.000000   0.001516   0.000148   0.219003
    17  H    0.000000   0.000006   0.000000   0.005437   0.000140  -0.028231
    18  O    0.006589   0.003603  -0.020201   0.002886  -0.000020   0.000049
    19  H   -0.000332   0.003631  -0.005023  -0.000108   0.000002  -0.000001
    20  O   -0.000082  -0.037009   0.000412   0.000024   0.001053  -0.000055
    21  H    0.000008  -0.002598  -0.000090  -0.000011  -0.000221  -0.000012
    22  O    0.000004   0.000977  -0.000059   0.004394  -0.037899  -0.000674
    23  H    0.000000  -0.000100   0.000005  -0.000438  -0.002423  -0.003392
    24  O    0.000388   0.000000   0.000006  -0.000086   0.000383  -0.000357
    25  H   -0.003244   0.000010   0.000030   0.000035   0.000281  -0.000029
    26  H   -0.000568   0.000000  -0.000049   0.000617  -0.000053  -0.000921
    27  H    0.000237   0.000000  -0.000001   0.000006   0.000003   0.000035
    28  O   -0.000040  -0.000044   0.038758   0.000000  -0.000045   0.000000
    29  H    0.000251   0.000014  -0.003777   0.000001   0.000276   0.000000
    30  H   -0.000006   0.000387  -0.003955   0.000000   0.000385   0.000000
              13         14         15         16         17         18
     1  C    0.004819  -0.008541  -0.006834  -0.002129  -0.001376   0.001169
     2  C    0.000008  -0.000044  -0.050273   0.000004   0.000001   0.195654
     3  O    0.003511   0.002369  -0.045153   0.001165   0.000017   0.000410
     4  C   -0.000153  -0.000042   0.233650  -0.000026  -0.000001  -0.051674
     5  C   -0.045173  -0.034981   0.002410  -0.032521  -0.001993   0.003490
     6  C   -0.000127   0.000060   0.006279  -0.000016  -0.000007  -0.043549
     7  H    0.000000   0.000001  -0.043389   0.000001   0.000000   0.006589
     8  H    0.000008   0.000005   0.000051  -0.000009   0.000006   0.003603
     9  H    0.000000   0.000000   0.001294   0.000000   0.000000  -0.020201
    10  H   -0.005529   0.005650  -0.000194   0.001516   0.005437   0.002886
    11  H   -0.000093   0.005188   0.012250   0.000148   0.000140  -0.000020
    12  C    0.362677   0.363882  -0.000125   0.219003  -0.028231   0.000049
    13  H    0.600917  -0.037593   0.000012  -0.029230  -0.006964   0.000000
    14  H   -0.037593   0.538576  -0.000034  -0.031195   0.006553  -0.000001
    15  O    0.000012  -0.000034   8.359727   0.000000   0.000000   0.001277
    16  O   -0.029230  -0.031195   0.000000   8.223165   0.234285   0.000000
    17  H   -0.006964   0.006553   0.000000   0.234285   0.386657   0.000000
    18  O    0.000000  -0.000001   0.001277   0.000000   0.000000   8.301629
    19  H    0.000000   0.000000  -0.000120   0.000000   0.000000   0.234336
    20  O    0.000000  -0.000001  -0.000201   0.000000   0.000000   0.001111
    21  H    0.000000   0.000000   0.000028   0.000005  -0.000001  -0.000114
    22  O   -0.000197   0.000195   0.000058  -0.017053   0.002955  -0.000020
    23  H    0.000758  -0.000884  -0.000001   0.051094  -0.003714   0.000003
    24  O   -0.000272   0.006476  -0.052911   0.000012  -0.000001   0.000000
    25  H   -0.000001   0.000102   0.198887   0.000000   0.000000  -0.000085
    26  H    0.001877  -0.000228   0.006721   0.000028   0.000007  -0.000011
    27  H    0.000010  -0.000139   0.001970   0.000000   0.000000   0.000000
    28  O    0.000000   0.000000  -0.008738   0.000000   0.000000   0.000059
    29  H    0.000000   0.000000   0.031933   0.000000   0.000000  -0.000001
    30  H    0.000000   0.000000   0.000780   0.000000   0.000000  -0.000004
              19         20         21         22         23         24
     1  C   -0.000071  -0.030443  -0.010331   0.212705  -0.021411  -0.000579
     2  C   -0.023705  -0.026136   0.005623   0.003023  -0.000221   0.000160
     3  O    0.000020   0.000029  -0.000017   0.001305   0.000018  -0.050800
     4  C    0.007196   0.000876  -0.000231   0.000059   0.000018   0.014392
     5  C   -0.000090   0.003947   0.000765  -0.032955  -0.008019   0.003676
     6  C   -0.001465   0.197758  -0.024955  -0.049102   0.005241  -0.000002
     7  H   -0.000332  -0.000082   0.000008   0.000004   0.000000   0.000388
     8  H    0.003631  -0.037009  -0.002598   0.000977  -0.000100   0.000000
     9  H   -0.005023   0.000412  -0.000090  -0.000059   0.000005   0.000006
    10  H   -0.000108   0.000024  -0.000011   0.004394  -0.000438  -0.000086
    11  H    0.000002   0.001053  -0.000221  -0.037899  -0.002423   0.000383
    12  C   -0.000001  -0.000055  -0.000012  -0.000674  -0.003392  -0.000357
    13  H    0.000000   0.000000   0.000000  -0.000197   0.000758  -0.000272
    14  H    0.000000  -0.000001   0.000000   0.000195  -0.000884   0.006476
    15  O   -0.000120  -0.000201   0.000028   0.000058  -0.000001  -0.052911
    16  O    0.000000   0.000000   0.000005  -0.017053   0.051094   0.000012
    17  H    0.000000   0.000000  -0.000001   0.002955  -0.003714  -0.000001
    18  O    0.234336   0.001111  -0.000114  -0.000020   0.000003   0.000000
    19  H    0.384628  -0.000002  -0.000016  -0.000003   0.000000   0.000000
    20  O   -0.000002   8.281631   0.233504  -0.003397   0.000016   0.000000
    21  H   -0.000016   0.233504   0.366726   0.017300  -0.000342   0.000000
    22  O   -0.000003  -0.003397   0.017300   8.356496   0.221503   0.000000
    23  H    0.000000   0.000016  -0.000342   0.221503   0.342747   0.000000
    24  O    0.000000   0.000000   0.000000   0.000000   0.000000   8.402948
    25  H    0.000006   0.000017  -0.000003  -0.000005   0.000000   0.083791
    26  H    0.000002   0.000001   0.000000  -0.000013   0.000003   0.177778
    27  H    0.000000   0.000000   0.000000   0.000000   0.000000   0.233651
    28  O    0.000009  -0.009596   0.000392   0.000000   0.000000   0.000000
    29  H   -0.000004   0.000685  -0.000005   0.000000   0.000000   0.000018
    30  H    0.000005   0.036650  -0.001145  -0.000003   0.000000   0.000000
              25         26         27         28         29         30
     1  C   -0.000007   0.001264   0.000013  -0.000064  -0.000041   0.000075
     2  C    0.005939   0.001324   0.000024  -0.010353   0.001740   0.001192
     3  O    0.004148   0.067926   0.001849  -0.000003   0.000120   0.000001
     4  C   -0.020789  -0.007662   0.000505  -0.000617  -0.001983  -0.000090
     5  C   -0.000189  -0.010121  -0.000102  -0.000001   0.000006   0.000003
     6  C   -0.000433  -0.000069  -0.000002   0.000014   0.000237  -0.002793
     7  H   -0.003244  -0.000568   0.000237  -0.000040   0.000251  -0.000006
     8  H    0.000010   0.000000   0.000000  -0.000044   0.000014   0.000387
     9  H    0.000030  -0.000049  -0.000001   0.038758  -0.003777  -0.003955
    10  H    0.000035   0.000617   0.000006   0.000000   0.000001   0.000000
    11  H    0.000281  -0.000053   0.000003  -0.000045   0.000276   0.000385
    12  C   -0.000029  -0.000921   0.000035   0.000000   0.000000   0.000000
    13  H   -0.000001   0.001877   0.000010   0.000000   0.000000   0.000000
    14  H    0.000102  -0.000228  -0.000139   0.000000   0.000000   0.000000
    15  O    0.198887   0.006721   0.001970  -0.008738   0.031933   0.000780
    16  O    0.000000   0.000028   0.000000   0.000000   0.000000   0.000000
    17  H    0.000000   0.000007   0.000000   0.000000   0.000000   0.000000
    18  O   -0.000085  -0.000011   0.000000   0.000059  -0.000001  -0.000004
    19  H    0.000006   0.000002   0.000000   0.000009  -0.000004   0.000005
    20  O    0.000017   0.000001   0.000000  -0.009596   0.000685   0.036650
    21  H   -0.000003   0.000000   0.000000   0.000392  -0.000005  -0.001145
    22  O   -0.000005  -0.000013   0.000000   0.000000   0.000000  -0.000003
    23  H    0.000000   0.000003   0.000000   0.000000   0.000000   0.000000
    24  O    0.083791   0.177778   0.233651   0.000000   0.000018   0.000000
    25  H    0.304075  -0.011883  -0.003303   0.000099   0.000121   0.000000
    26  H   -0.011883   0.336674  -0.004867   0.000000  -0.000008   0.000000
    27  H   -0.003303  -0.004867   0.371418   0.000000  -0.000002   0.000000
    28  O    0.000099   0.000000   0.000000   8.355016   0.239196   0.235845
    29  H    0.000121  -0.000008  -0.000002   0.239196   0.352000  -0.025901
    30  H    0.000000   0.000000   0.000000   0.235845  -0.025901   0.353629
 Mulliken charges:
               1
     1  C    0.081225
     2  C    0.057054
     3  O   -0.587557
     4  C    0.336271
     5  C    0.124074
     6  C    0.136945
     7  H    0.154037
     8  H    0.133394
     9  H    0.186955
    10  H    0.139005
    11  H    0.150528
    12  C   -0.090203
    13  H    0.150737
    14  H    0.184629
    15  O   -0.649354
    16  O   -0.618246
    17  H    0.406229
    18  O   -0.636586
    19  H    0.401105
    20  O   -0.650792
    21  H    0.415740
    22  O   -0.679596
    23  H    0.419539
    24  O   -0.818670
    25  H    0.442429
    26  H    0.442232
    27  H    0.398693
    28  O   -0.839887
    29  H    0.405125
    30  H    0.404945
 Sum of Mulliken charges =   0.00000
 Mulliken charges with hydrogens summed into heavy atoms:
               1
     1  C    0.231753
     2  C    0.244009
     3  O   -0.587557
     4  C    0.490308
     5  C    0.263079
     6  C    0.270340
    12  C    0.245163
    15  O   -0.206925
    16  O   -0.212017
    18  O   -0.235481
    20  O   -0.235052
    22  O   -0.260057
    24  O    0.022254
    28  O   -0.029817
 APT charges:
               1
     1  C   -0.119459
     2  C   -0.278933
     3  O   -0.415036
     4  C   -0.308411
     5  C   -0.235858
     6  C   -0.251104
     7  H    0.542207
     8  H    0.400165
     9  H    0.422354
    10  H    0.385223
    11  H    0.276426
    12  C   -0.674225
    13  H    0.528288
    14  H    0.333837
    15  O   -0.622817
    16  O   -0.790065
    17  H    0.711156
    18  O   -0.959354
    19  H    0.803106
    20  O   -0.799601
    21  H    0.657384
    22  O   -0.832978
    23  H    0.627840
    24  O   -1.191631
    25  H    0.566593
    26  H    0.245642
    27  H    0.920355
    28  O   -0.436407
    29  H    0.218078
    30  H    0.277223
 Sum of APT charges =   0.00000
 APT charges with hydrogens summed into heavy atoms:
               1
     1  C    0.156968
     2  C    0.143421
     3  O   -0.415036
     4  C    0.233796
     5  C    0.149365
     6  C    0.149062
    12  C    0.187899
    15  O   -0.056224
    16  O   -0.078909
    18  O   -0.156248
    20  O   -0.142218
    22  O   -0.205137
    24  O   -0.025634
    28  O    0.058895
 Electronic spatial extent (au):  <R**2>=           3028.1536
 Charge=              0.0000 electrons
 Dipole moment (field-independent basis, Debye):
    X=              5.0660    Y=              0.7434    Z=              2.8330  Tot=              5.8517
 Quadrupole moment (field-independent basis, Debye-Ang):
   XX=            -95.6951   YY=            -70.5542   ZZ=            -86.1506
   XY=              1.6931   XZ=             -3.3619   YZ=             -1.4751
 Traceless Quadrupole moment (field-independent basis, Debye-Ang):
   XX=            -11.5618   YY=             13.5791   ZZ=             -2.0173
   XY=              1.6931   XZ=             -3.3619   YZ=             -1.4751
 Octapole moment (field-independent basis, Debye-Ang**2):
  XXX=             93.3754  YYY=             52.7222  ZZZ=             -5.5484  XYY=             -2.0502
  XXY=            -12.1370  XXZ=             57.7528  XZZ=             -1.7210  YZZ=            -19.5880
  YYZ=              2.3553  XYZ=              1.7396
 Hexadecapole moment (field-independent basis, Debye-Ang**3):
 XXXX=          -2176.0104 YYYY=           -816.4430 ZZZZ=           -570.5435 XXXY=            -34.3920
 XXXZ=            -47.9699 YYYX=             26.7000 YYYZ=             13.7967 ZZZX=            -28.8904
 ZZZY=            -18.6292 XXYY=           -448.6644 XXZZ=           -417.4538 YYZZ=           -254.9300
 XXYZ=            -22.5123 YYXZ=             14.8876 ZZXY=             12.2738
 N-N= 1.122521666393D+03 E-N=-4.217199698441D+03  KE= 8.329088090052D+02
  Exact polarizability:   0.000   0.000   0.000   0.000   0.000   0.000
 Approx polarizability: 131.926  -2.479 132.769   5.365  -0.980 123.293

 This type of calculation cannot be archived.


 The cat could very well be man's best friend
 but would never stoop to admitting it.
                               -- Doug Larson
 Job cpu time:       0 days  2 hours  0 minutes 21.9 seconds.
 File lengths (MBytes):  RWF=    329 Int=      0 D2E=      0 Chk=      9 Scr=      2
 Normal termination of Gaussian 09 at Wed Jan 25 14:21:02 2017.
