 Entering Gaussian System, Link 0=g09
 Initial command:
 /global/software/gaussian/g09.e01/l1.exe "/scratch/10464869.yak.local/Gau-32591.inp" -scrdir="/scratch/10464869.yak.local/"
 Entering Link 1 = /global/software/gaussian/g09.e01/l1.exe PID=     32592.
  
 Copyright (c) 1988,1990,1992,1993,1995,1998,2003,2009,2015,
            Gaussian, Inc.  All Rights Reserved.
  
 This is part of the Gaussian(R) 09 program.  It is based on
 the Gaussian(R) 03 system (copyright 2003, Gaussian, Inc.),
 the Gaussian(R) 98 system (copyright 1998, Gaussian, Inc.),
 the Gaussian(R) 94 system (copyright 1995, Gaussian, Inc.),
 the Gaussian 92(TM) system (copyright 1992, Gaussian, Inc.),
 the Gaussian 90(TM) system (copyright 1990, Gaussian, Inc.),
 the Gaussian 88(TM) system (copyright 1988, Gaussian, Inc.),
 the Gaussian 86(TM) system (copyright 1986, Carnegie Mellon
 University), and the Gaussian 82(TM) system (copyright 1983,
 Carnegie Mellon University). Gaussian is a federally registered
 trademark of Gaussian, Inc.
  
 This software contains proprietary and confidential information,
 including trade secrets, belonging to Gaussian, Inc.
  
 This software is provided under written license and may be
 used, copied, transmitted, or stored only in accord with that
 written license.
  
 The following legend is applicable only to US Government
 contracts under FAR:
  
                    RESTRICTED RIGHTS LEGEND
  
 Use, reproduction and disclosure by the US Government is
 subject to restrictions as set forth in subparagraphs (a)
 and (c) of the Commercial Computer Software - Restricted
 Rights clause in FAR 52.227-19.
  
 Gaussian, Inc.
 340 Quinnipiac St., Bldg. 40, Wallingford CT 06492
  
  
 ---------------------------------------------------------------
 Warning -- This program may not be used in any manner that
 competes with the business of Gaussian, Inc. or will provide
 assistance to any competitor of Gaussian, Inc.  The licensee
 of this program is prohibited from giving any competitor of
 Gaussian, Inc. access to this program.  By using this program,
 the user acknowledges that Gaussian, Inc. is engaged in the
 business of creating and licensing software in the field of
 computational chemistry and represents and warrants to the
 licensee that it is not a competitor of Gaussian, Inc. and that
 it will not use this program in any manner prohibited above.
 ---------------------------------------------------------------
  

 Cite this work as:
 Gaussian 09, Revision E.01,
 M. J. Frisch, G. W. Trucks, H. B. Schlegel, G. E. Scuseria, 
 M. A. Robb, J. R. Cheeseman, G. Scalmani, V. Barone, B. Mennucci, 
 G. A. Petersson, H. Nakatsuji, M. Caricato, X. Li, H. P. Hratchian, 
 A. F. Izmaylov, J. Bloino, G. Zheng, J. L. Sonnenberg, M. Hada, 
 M. Ehara, K. Toyota, R. Fukuda, J. Hasegawa, M. Ishida, T. Nakajima, 
 Y. Honda, O. Kitao, H. Nakai, T. Vreven, J. A. Montgomery, Jr., 
 J. E. Peralta, F. Ogliaro, M. Bearpark, J. J. Heyd, E. Brothers, 
 K. N. Kudin, V. N. Staroverov, T. Keith, R. Kobayashi, J. Normand, 
 K. Raghavachari, A. Rendell, J. C. Burant, S. S. Iyengar, J. Tomasi, 
 M. Cossi, N. Rega, J. M. Millam, M. Klene, J. E. Knox, J. B. Cross, 
 V. Bakken, C. Adamo, J. Jaramillo, R. Gomperts, R. E. Stratmann, 
 O. Yazyev, A. J. Austin, R. Cammi, C. Pomelli, J. W. Ochterski, 
 R. L. Martin, K. Morokuma, V. G. Zakrzewski, G. A. Voth, 
 P. Salvador, J. J. Dannenberg, S. Dapprich, A. D. Daniels, 
 O. Farkas, J. B. Foresman, J. V. Ortiz, J. Cioslowski, 
 and D. J. Fox, Gaussian, Inc., Wallingford CT, 2013.
 
 ******************************************
 Gaussian 09:  ES64L-G09RevE.01 30-Nov-2015
                15-Jan-2017 
 ******************************************
 -------------------------
 # b3lyp/6-31g(d) opt freq
 -------------------------
 1/14=-1,18=20,19=15,26=3,38=1/1,3;
 2/9=110,12=2,17=6,18=5,40=1/2;
 3/5=1,6=6,7=1,11=2,16=1,25=1,30=1,71=1,74=-5/1,2,3;
 4//1;
 5/5=2,38=5/2;
 6/7=2,8=2,9=2,10=2,28=1/1;
 7//1,2,3,16;
 1/14=-1,18=20,19=15,26=3/3(2);
 2/9=110/2;
 99//99;
 2/9=110/2;
 3/5=1,6=6,7=1,11=2,16=1,25=1,30=1,71=1,74=-5/1,2,3;
 4/5=5,16=3,69=1/1;
 5/5=2,38=5/2;
 7//1,2,3,16;
 1/14=-1,18=20,19=15,26=3/3(-5);
 2/9=110/2;
 6/7=2,8=2,9=2,10=2,19=2,28=1/1;
 99/9=1/99;
 ----------------------------------
 glo_2w_beta_ircf_boat6_B3LYP_631Gd
 ----------------------------------
 Symbolic Z-matrix:
 Charge =  0 Multiplicity = 1
 6                    -1.11963   0.73596  -0.1968 
 6                    -0.4438   -1.50224   0.84274 
 6                    -1.36588  -0.25933   0.95909 
 6                    -0.21007  -1.80364  -0.64947 
 1                     0.36977  -2.72792  -0.75982 
 1                    -0.96458  -2.34729   1.31866 
 1                    -1.7795    0.4718   -1.02921 
 1                    -1.18716   0.2167    1.9335 
 6                     0.6876   -0.65492  -1.19447 
 1                     0.60945  -0.5627   -2.28397 
 8                     0.24439   0.64977  -0.64568 
 6                    -1.44868   2.16572   0.21489 
 1                    -2.43581   2.13319   0.7045 
 1                    -0.71154   2.51578   0.9544 
 8                    -1.464     2.98005  -0.94464 
 1                    -1.64209   3.89116  -0.66771 
 8                     1.98187  -0.93068  -0.77467 
 8                    -1.42395  -1.94848  -1.3701 
 1                    -2.16591  -1.68184  -0.79733 
 8                     0.79896  -1.30401   1.51175 
 1                     1.49877  -1.33507   0.81363 
 8                    -2.74444  -0.6485    0.83333 
 1                    -2.98055  -1.18577   1.60716 
 8                     1.78229   1.26718   1.33184 
 1                     3.07411   1.06797   0.58537 
 1                     1.5135    0.44579   1.78861 
 1                     1.20102   1.23788   0.53412 
 8                     3.66013   0.78106  -0.18444 
 1                     2.65141  -0.16168  -0.76379 
 1                     4.39878   0.2837    0.19644 
 
 Add virtual bond connecting atoms H29        and O28        Dist= 2.83D+00.
 Add virtual bond connecting atoms O11        and H27        Dist= 3.08D+00.
 Add virtual bond connecting atoms H25        and O24        Dist= 2.84D+00.

 GradGradGradGradGradGradGradGradGradGradGradGradGradGradGradGradGradGrad
 Berny optimization.
 Initialization pass.
                           ----------------------------
                           !    Initial Parameters    !
                           ! (Angstroms and Degrees)  !
 --------------------------                            --------------------------
 ! Name  Definition              Value          Derivative Info.                !
 --------------------------------------------------------------------------------
 ! R1    R(1,3)                  1.5451         estimate D2E/DX2                !
 ! R2    R(1,7)                  1.0946         estimate D2E/DX2                !
 ! R3    R(1,11)                 1.4386         estimate D2E/DX2                !
 ! R4    R(1,12)                 1.5238         estimate D2E/DX2                !
 ! R5    R(2,3)                  1.552          estimate D2E/DX2                !
 ! R6    R(2,4)                  1.5402         estimate D2E/DX2                !
 ! R7    R(2,6)                  1.1008         estimate D2E/DX2                !
 ! R8    R(2,20)                 1.4252         estimate D2E/DX2                !
 ! R9    R(3,8)                  1.0991         estimate D2E/DX2                !
 ! R10   R(3,22)                 1.4379         estimate D2E/DX2                !
 ! R11   R(4,5)                  1.0967         estimate D2E/DX2                !
 ! R12   R(4,9)                  1.5564         estimate D2E/DX2                !
 ! R13   R(4,18)                 1.4191         estimate D2E/DX2                !
 ! R14   R(9,10)                 1.0962         estimate D2E/DX2                !
 ! R15   R(9,11)                 1.4832         estimate D2E/DX2                !
 ! R16   R(9,17)                 1.3883         estimate D2E/DX2                !
 ! R17   R(11,27)                1.6288         estimate D2E/DX2                !
 ! R18   R(12,13)                1.1024         estimate D2E/DX2                !
 ! R19   R(12,14)                1.1013         estimate D2E/DX2                !
 ! R20   R(12,15)                1.417          estimate D2E/DX2                !
 ! R21   R(15,16)                0.9688         estimate D2E/DX2                !
 ! R22   R(17,29)                1.0197         estimate D2E/DX2                !
 ! R23   R(18,19)                0.9745         estimate D2E/DX2                !
 ! R24   R(20,21)                0.989          estimate D2E/DX2                !
 ! R25   R(22,23)                0.9712         estimate D2E/DX2                !
 ! R26   R(24,25)                1.5052         estimate D2E/DX2                !
 ! R27   R(24,26)                0.9775         estimate D2E/DX2                !
 ! R28   R(24,27)                0.9875         estimate D2E/DX2                !
 ! R29   R(25,28)                1.0091         estimate D2E/DX2                !
 ! R30   R(28,29)                1.4973         estimate D2E/DX2                !
 ! R31   R(28,30)                0.9685         estimate D2E/DX2                !
 ! A1    A(3,1,7)              108.504          estimate D2E/DX2                !
 ! A2    A(3,1,11)             110.2401         estimate D2E/DX2                !
 ! A3    A(3,1,12)             111.5847         estimate D2E/DX2                !
 ! A4    A(7,1,11)             108.6538         estimate D2E/DX2                !
 ! A5    A(7,1,12)             107.5615         estimate D2E/DX2                !
 ! A6    A(11,1,12)            110.1985         estimate D2E/DX2                !
 ! A7    A(3,2,4)              108.6334         estimate D2E/DX2                !
 ! A8    A(3,2,6)              107.5352         estimate D2E/DX2                !
 ! A9    A(3,2,20)             111.8074         estimate D2E/DX2                !
 ! A10   A(4,2,6)              109.903          estimate D2E/DX2                !
 ! A11   A(4,2,20)             110.4674         estimate D2E/DX2                !
 ! A12   A(6,2,20)             108.4426         estimate D2E/DX2                !
 ! A13   A(1,3,2)              111.4144         estimate D2E/DX2                !
 ! A14   A(1,3,8)              110.9967         estimate D2E/DX2                !
 ! A15   A(1,3,22)             105.1712         estimate D2E/DX2                !
 ! A16   A(2,3,8)              108.4641         estimate D2E/DX2                !
 ! A17   A(2,3,22)             110.2611         estimate D2E/DX2                !
 ! A18   A(8,3,22)             110.5271         estimate D2E/DX2                !
 ! A19   A(2,4,5)              110.0387         estimate D2E/DX2                !
 ! A20   A(2,4,9)              106.4007         estimate D2E/DX2                !
 ! A21   A(2,4,18)             112.468          estimate D2E/DX2                !
 ! A22   A(5,4,9)              106.3712         estimate D2E/DX2                !
 ! A23   A(5,4,18)             108.3697         estimate D2E/DX2                !
 ! A24   A(9,4,18)             113.0085         estimate D2E/DX2                !
 ! A25   A(4,9,10)             111.6543         estimate D2E/DX2                !
 ! A26   A(4,9,11)             110.324          estimate D2E/DX2                !
 ! A27   A(4,9,17)             106.5708         estimate D2E/DX2                !
 ! A28   A(10,9,11)            105.8102         estimate D2E/DX2                !
 ! A29   A(10,9,17)            112.5632         estimate D2E/DX2                !
 ! A30   A(11,9,17)            109.9639         estimate D2E/DX2                !
 ! A31   A(1,11,9)             116.8401         estimate D2E/DX2                !
 ! A32   A(1,11,27)            108.0129         estimate D2E/DX2                !
 ! A33   A(9,11,27)            114.2129         estimate D2E/DX2                !
 ! A34   A(1,12,13)            106.5992         estimate D2E/DX2                !
 ! A35   A(1,12,14)            109.581          estimate D2E/DX2                !
 ! A36   A(1,12,15)            108.6913         estimate D2E/DX2                !
 ! A37   A(13,12,14)           108.0908         estimate D2E/DX2                !
 ! A38   A(13,12,15)           111.7598         estimate D2E/DX2                !
 ! A39   A(14,12,15)           111.9661         estimate D2E/DX2                !
 ! A40   A(12,15,16)           107.9717         estimate D2E/DX2                !
 ! A41   A(9,17,29)            117.7467         estimate D2E/DX2                !
 ! A42   A(4,18,19)            108.9578         estimate D2E/DX2                !
 ! A43   A(2,20,21)            106.3374         estimate D2E/DX2                !
 ! A44   A(3,22,23)            108.2466         estimate D2E/DX2                !
 ! A45   A(25,24,26)           110.8852         estimate D2E/DX2                !
 ! A46   A(25,24,27)            95.7757         estimate D2E/DX2                !
 ! A47   A(26,24,27)           100.9927         estimate D2E/DX2                !
 ! A48   A(24,25,28)           156.1095         estimate D2E/DX2                !
 ! A49   A(11,27,24)           160.3224         estimate D2E/DX2                !
 ! A50   A(25,28,29)            94.7589         estimate D2E/DX2                !
 ! A51   A(25,28,30)           106.7914         estimate D2E/DX2                !
 ! A52   A(29,28,30)           110.037          estimate D2E/DX2                !
 ! A53   A(17,29,28)           157.1192         estimate D2E/DX2                !
 ! D1    D(7,1,3,2)             89.4815         estimate D2E/DX2                !
 ! D2    D(7,1,3,8)           -149.5269         estimate D2E/DX2                !
 ! D3    D(7,1,3,22)           -29.9744         estimate D2E/DX2                !
 ! D4    D(11,1,3,2)           -29.3925         estimate D2E/DX2                !
 ! D5    D(11,1,3,8)            91.599          estimate D2E/DX2                !
 ! D6    D(11,1,3,22)         -148.8485         estimate D2E/DX2                !
 ! D7    D(12,1,3,2)          -152.1867         estimate D2E/DX2                !
 ! D8    D(12,1,3,8)           -31.1951         estimate D2E/DX2                !
 ! D9    D(12,1,3,22)           88.3573         estimate D2E/DX2                !
 ! D10   D(3,1,11,9)            61.5817         estimate D2E/DX2                !
 ! D11   D(3,1,11,27)          -68.7999         estimate D2E/DX2                !
 ! D12   D(7,1,11,9)           -57.2008         estimate D2E/DX2                !
 ! D13   D(7,1,11,27)          172.4175         estimate D2E/DX2                !
 ! D14   D(12,1,11,9)         -174.8154         estimate D2E/DX2                !
 ! D15   D(12,1,11,27)          54.803          estimate D2E/DX2                !
 ! D16   D(3,1,12,13)          -47.757          estimate D2E/DX2                !
 ! D17   D(3,1,12,14)           68.9836         estimate D2E/DX2                !
 ! D18   D(3,1,12,15)         -168.3692         estimate D2E/DX2                !
 ! D19   D(7,1,12,13)           71.1372         estimate D2E/DX2                !
 ! D20   D(7,1,12,14)         -172.1221         estimate D2E/DX2                !
 ! D21   D(7,1,12,15)          -49.475          estimate D2E/DX2                !
 ! D22   D(11,1,12,13)        -170.575          estimate D2E/DX2                !
 ! D23   D(11,1,12,14)         -53.8344         estimate D2E/DX2                !
 ! D24   D(11,1,12,15)          68.8128         estimate D2E/DX2                !
 ! D25   D(4,2,3,1)            -33.031          estimate D2E/DX2                !
 ! D26   D(4,2,3,8)           -155.4919         estimate D2E/DX2                !
 ! D27   D(4,2,3,22)            83.3554         estimate D2E/DX2                !
 ! D28   D(6,2,3,1)           -151.9328         estimate D2E/DX2                !
 ! D29   D(6,2,3,8)             85.6062         estimate D2E/DX2                !
 ! D30   D(6,2,3,22)           -35.5464         estimate D2E/DX2                !
 ! D31   D(20,2,3,1)            89.1351         estimate D2E/DX2                !
 ! D32   D(20,2,3,8)           -33.3259         estimate D2E/DX2                !
 ! D33   D(20,2,3,22)         -154.4785         estimate D2E/DX2                !
 ! D34   D(3,2,4,5)           -175.2577         estimate D2E/DX2                !
 ! D35   D(3,2,4,9)             69.9013         estimate D2E/DX2                !
 ! D36   D(3,2,4,18)           -54.3371         estimate D2E/DX2                !
 ! D37   D(6,2,4,5)            -57.8553         estimate D2E/DX2                !
 ! D38   D(6,2,4,9)           -172.6963         estimate D2E/DX2                !
 ! D39   D(6,2,4,18)            63.0653         estimate D2E/DX2                !
 ! D40   D(20,2,4,5)            61.7652         estimate D2E/DX2                !
 ! D41   D(20,2,4,9)           -53.0758         estimate D2E/DX2                !
 ! D42   D(20,2,4,18)         -177.3142         estimate D2E/DX2                !
 ! D43   D(3,2,20,21)         -116.2456         estimate D2E/DX2                !
 ! D44   D(4,2,20,21)            4.8633         estimate D2E/DX2                !
 ! D45   D(6,2,20,21)          125.3613         estimate D2E/DX2                !
 ! D46   D(1,3,22,23)         -172.7207         estimate D2E/DX2                !
 ! D47   D(2,3,22,23)           67.058          estimate D2E/DX2                !
 ! D48   D(8,3,22,23)          -52.8562         estimate D2E/DX2                !
 ! D49   D(2,4,9,10)          -158.837          estimate D2E/DX2                !
 ! D50   D(2,4,9,11)           -41.4722         estimate D2E/DX2                !
 ! D51   D(2,4,9,17)            77.8739         estimate D2E/DX2                !
 ! D52   D(5,4,9,10)            83.8567         estimate D2E/DX2                !
 ! D53   D(5,4,9,11)          -158.7786         estimate D2E/DX2                !
 ! D54   D(5,4,9,17)           -39.4325         estimate D2E/DX2                !
 ! D55   D(18,4,9,10)          -34.9335         estimate D2E/DX2                !
 ! D56   D(18,4,9,11)           82.4313         estimate D2E/DX2                !
 ! D57   D(18,4,9,17)         -158.2226         estimate D2E/DX2                !
 ! D58   D(2,4,18,19)            9.217          estimate D2E/DX2                !
 ! D59   D(5,4,18,19)          131.0902         estimate D2E/DX2                !
 ! D60   D(9,4,18,19)         -111.2853         estimate D2E/DX2                !
 ! D61   D(4,9,11,1)           -23.2573         estimate D2E/DX2                !
 ! D62   D(4,9,11,27)          104.1549         estimate D2E/DX2                !
 ! D63   D(10,9,11,1)           97.6637         estimate D2E/DX2                !
 ! D64   D(10,9,11,27)        -134.9241         estimate D2E/DX2                !
 ! D65   D(17,9,11,1)         -140.5235         estimate D2E/DX2                !
 ! D66   D(17,9,11,27)         -13.1113         estimate D2E/DX2                !
 ! D67   D(4,9,17,29)         -160.3382         estimate D2E/DX2                !
 ! D68   D(10,9,17,29)          76.9411         estimate D2E/DX2                !
 ! D69   D(11,9,17,29)         -40.7583         estimate D2E/DX2                !
 ! D70   D(1,11,27,24)          92.3465         estimate D2E/DX2                !
 ! D71   D(9,11,27,24)         -39.4735         estimate D2E/DX2                !
 ! D72   D(1,12,15,16)        -177.976          estimate D2E/DX2                !
 ! D73   D(13,12,15,16)         64.6525         estimate D2E/DX2                !
 ! D74   D(14,12,15,16)        -56.7814         estimate D2E/DX2                !
 ! D75   D(9,17,29,28)         123.7265         estimate D2E/DX2                !
 ! D76   D(26,24,25,28)         82.6003         estimate D2E/DX2                !
 ! D77   D(27,24,25,28)        -21.5065         estimate D2E/DX2                !
 ! D78   D(25,24,27,11)         90.3927         estimate D2E/DX2                !
 ! D79   D(26,24,27,11)        -22.2301         estimate D2E/DX2                !
 ! D80   D(24,25,28,29)        -20.1815         estimate D2E/DX2                !
 ! D81   D(24,25,28,30)       -132.7783         estimate D2E/DX2                !
 ! D82   D(25,28,29,17)        -52.6304         estimate D2E/DX2                !
 ! D83   D(30,28,29,17)         57.1811         estimate D2E/DX2                !
 --------------------------------------------------------------------------------
 Trust Radius=3.00D-01 FncErr=1.00D-07 GrdErr=1.00D-06
 Number of steps in this run=    177 maximum allowed number of steps=    180.
 GradGradGradGradGradGradGradGradGradGradGradGradGradGradGradGradGradGrad

                          Input orientation:                          
 ---------------------------------------------------------------------
 Center     Atomic      Atomic             Coordinates (Angstroms)
 Number     Number       Type             X           Y           Z
 ---------------------------------------------------------------------
      1          6           0       -1.119628    0.735963   -0.196797
      2          6           0       -0.443795   -1.502243    0.842743
      3          6           0       -1.365881   -0.259333    0.959088
      4          6           0       -0.210071   -1.803639   -0.649469
      5          1           0        0.369766   -2.727915   -0.759823
      6          1           0       -0.964579   -2.347291    1.318655
      7          1           0       -1.779497    0.471796   -1.029206
      8          1           0       -1.187155    0.216701    1.933495
      9          6           0        0.687595   -0.654916   -1.194471
     10          1           0        0.609453   -0.562702   -2.283965
     11          8           0        0.244389    0.649766   -0.645684
     12          6           0       -1.448675    2.165723    0.214894
     13          1           0       -2.435812    2.133194    0.704502
     14          1           0       -0.711540    2.515784    0.954396
     15          8           0       -1.464001    2.980049   -0.944640
     16          1           0       -1.642086    3.891155   -0.667710
     17          8           0        1.981865   -0.930681   -0.774674
     18          8           0       -1.423947   -1.948483   -1.370103
     19          1           0       -2.165912   -1.681842   -0.797328
     20          8           0        0.798962   -1.304006    1.511746
     21          1           0        1.498765   -1.335068    0.813632
     22          8           0       -2.744437   -0.648500    0.833326
     23          1           0       -2.980550   -1.185773    1.607162
     24          8           0        1.782285    1.267183    1.331843
     25          1           0        3.074113    1.067972    0.585368
     26          1           0        1.513503    0.445792    1.788607
     27          1           0        1.201016    1.237875    0.534119
     28          8           0        3.660125    0.781061   -0.184440
     29          1           0        2.651410   -0.161678   -0.763792
     30          1           0        4.398775    0.283698    0.196443
 ---------------------------------------------------------------------
                    Distance matrix (angstroms):
                    1          2          3          4          5
     1  C    0.000000
     2  C    2.558703   0.000000
     3  C    1.545097   1.551968   0.000000
     4  C    2.735285   1.540183   2.511620   0.000000
     5  H    3.812315   2.175401   3.472898   1.096665   0.000000
     6  H    3.439054   1.100824   2.156363   2.176776   2.499084
     7  H    1.094585   3.030697   2.158458   2.790144   3.863942
     8  H    2.193704   2.167278   1.099100   3.421720   4.283542
     9  C    2.489167   2.479566   3.001844   1.556405   2.141789
    10  H    3.005415   3.430506   3.809379   2.209779   2.658685
    11  O    1.438566   2.705578   2.448412   2.495144   3.381934
    12  C    1.523803   3.854602   2.538026   4.247010   5.310790
    13  H    2.120598   4.147728   2.633202   4.720785   5.800508
    14  H    2.158598   4.028485   2.851221   4.634789   5.621757
    15  O    2.390352   4.932190   3.758644   4.954103   5.998142
    16  H    3.232639   5.727662   4.466465   5.872110   6.918679
    17  O    3.568039   2.970951   3.829366   2.362692   2.414360
    18  O    2.945421   2.460999   2.877800   1.419080   2.048747
    19  H    2.702060   2.384906   2.397619   1.965200   2.743235
    20  O    3.280485   1.425240   2.466438   2.436931   2.715097
    21  H    3.487996   1.949958   3.063423   2.297900   2.385461
    22  O    2.370210   2.453960   1.437944   3.155319   4.069441
    23  H    3.226510   2.668261   1.971154   3.626251   4.382401
    24  O    3.322655   3.586694   3.518543   4.162334   4.725578
    25  H    4.278957   4.364393   4.649188   4.533965   4.850958
    26  H    3.310500   2.918992   3.078336   3.738297   4.227889
    27  H    2.484259   3.210747   3.001865   3.555679   4.253558
    28  O    4.779982   4.807363   5.258404   4.677108   4.844630
    29  H    3.917649   3.736089   4.372240   3.301088   3.433874
    30  H    5.550852   5.201709   5.840186   5.129718   5.120271
                    6          7          8          9         10
     6  H    0.000000
     7  H    3.758164   0.000000
     8  H    2.646058   3.032085   0.000000
     9  C    3.451031   2.717229   3.749477   0.000000
    10  H    4.317546   2.889929   4.649972   1.096178   0.000000
    11  O    3.781875   2.067578   2.981447   1.483170   2.070583
    12  C    4.671181   2.127585   2.611641   3.808670   4.233732
    13  H    4.755676   2.489324   2.596635   4.597317   5.047022
    14  H    4.883258   3.041890   2.543743   4.077811   4.659300
    15  O    5.809688   2.529431   3.999550   4.231401   4.317880
    16  H    6.582011   3.441159   4.524913   5.135334   5.245813
    17  O    3.882054   4.022384   4.323581   1.388312   2.072892
    18  O    2.756717   2.469894   3.957000   2.482493   2.624928
    19  H    2.522580   2.200282   3.466962   3.058562   3.341439
    20  O    2.058107   4.032166   2.536746   2.785199   3.872062
    21  H    2.710665   4.172267   3.297915   2.270040   3.313990
    22  O    2.507854   2.378066   2.093818   3.986332   4.579677
    23  H    2.344461   3.337739   2.299933   4.646100   5.330779
    24  O    4.539808   4.346664   3.206723   3.357838   4.218777
    25  H    5.339734   5.149738   4.549782   3.439715   4.119068
    26  H    3.763384   4.334120   2.714227   3.285184   4.291877
    27  H    4.261304   3.451713   2.950324   2.614246   3.396119
    28  O    5.782194   5.513507   5.319800   3.452264   3.939582
    29  H    4.710506   4.483823   4.706709   2.070106   2.577079
    30  H    6.078407   6.301479   5.850167   4.072898   4.607361
                   11         12         13         14         15
    11  O    0.000000
    12  C    2.430059   0.000000
    13  H    3.347691   1.102367   0.000000
    14  H    2.637438   1.101260   1.783798   0.000000
    15  O    2.904856   1.416997   2.093143   2.094774   0.000000
    16  H    3.750450   1.947694   2.367149   2.321377   0.968772
    17  O    2.352291   4.726052   5.575945   4.703428   5.215045
    18  O    3.171597   4.409027   4.689130   5.083355   4.947024
    19  H    3.356925   4.042620   4.108873   4.775332   4.716737
    20  O    2.962985   4.332749   4.788502   4.145244   5.432123
    21  H    2.764530   4.615347   5.246108   4.442333   5.521751
    22  O    3.578554   3.159321   2.801726   3.762980   4.238755
    23  H    4.341054   3.939236   3.482395   4.390448   5.115241
    24  O    2.580105   3.534693   4.351537   2.814362   4.319104
    25  H    3.114117   4.668824   5.613213   4.069829   5.156689
    26  H    2.752822   3.769514   4.429413   3.151443   4.770600
    27  H    1.628786   2.825539   3.749286   2.338280   3.510586
    28  O    3.449237   5.308163   6.307054   4.839180   5.627621
    29  H    2.542861   4.815114   5.770802   4.629299   5.180711
    30  H    4.254657   6.142885   7.098615   5.627790   6.553207
                   16         17         18         19         20
    16  H    0.000000
    17  O    6.032791   0.000000
    18  O    5.885772   3.604166   0.000000
    19  H    5.599062   4.215307   0.974516   0.000000
    20  O    6.139906   2.601220   3.696178   3.776912   0.000000
    21  H    6.274769   1.708693   3.699625   4.018122   0.988965
    22  O    4.906807   5.000322   2.879019   2.015321   3.666827
    23  H    5.722039   5.510334   3.445119   2.586753   3.782565
    24  O    4.754972   3.050877   5.284027   5.368275   2.758678
    25  H    5.637650   2.652797   5.758074   6.077104   3.414787
    26  H    5.278424   2.946939   4.933418   4.975136   1.910239
    27  H    4.070321   2.650528   4.546358   4.651204   2.752919
    28  O    6.166010   2.468804   5.891010   6.354859   3.925660
    29  H    5.904981   1.019693   4.490971   5.051595   3.148738
    30  H    7.088900   2.873889   6.429680   6.924308   4.148431
                   21         22         23         24         25
    21  H    0.000000
    22  O    4.298433   0.000000
    23  H    4.551510   0.971202   0.000000
    24  O    2.668452   4.940604   5.364456   0.000000
    25  H    2.882434   6.071514   6.540824   1.505234   0.000000
    26  H    2.030334   4.498899   4.784500   0.977528   2.066494
    27  H    2.605152   4.383439   4.950857   0.987470   1.881485
    28  O    3.185220   6.640625   7.153799   2.462054   1.009125
    29  H    2.278969   5.648269   6.195899   2.681177   1.873753
    30  H    3.378074   7.231880   7.655319   3.017018   1.587790
                   26         27         28         29         30
    26  H    0.000000
    27  H    1.516174   0.000000
    28  O    2.934843   2.602350   0.000000
    29  H    2.859824   2.397283   1.497301   0.000000
    30  H    3.299402   3.354123   0.968528   2.042962   0.000000
 Stoichiometry    C6H16O8
 Framework group  C1[X(C6H16O8)]
 Deg. of freedom    84
 Full point group                 C1      NOp   1
 Largest Abelian subgroup         C1      NOp   1
 Largest concise Abelian subgroup C1      NOp   1
                         Standard orientation:                         
 ---------------------------------------------------------------------
 Center     Atomic      Atomic             Coordinates (Angstroms)
 Number     Number       Type             X           Y           Z
 ---------------------------------------------------------------------
      1          6           0       -1.123456    0.730821   -0.211936
      2          6           0       -0.454054   -1.509172    0.827917
      3          6           0       -1.370545   -0.262264    0.945672
      4          6           0       -0.225941   -1.813053   -0.664659
      5          1           0        0.349668   -2.739880   -0.775755
      6          1           0       -0.977013   -2.351535    1.306198
      7          1           0       -1.786850    0.468605   -1.042157
      8          1           0       -1.186981    0.213992    1.919071
      9          6           0        0.674976   -0.668679   -1.213434
     10          1           0        0.594058   -0.577232   -2.302790
     11          8           0        0.238875    0.638414   -0.664691
     12          6           0       -1.445269    2.162371    0.199252
     13          1           0       -2.431108    2.134502    0.691756
     14          1           0       -0.704518    2.510060    0.936255
     15          8           0       -1.460529    2.975587   -0.961061
     16          1           0       -1.633963    3.887715   -0.684543
     17          8           0        1.969285   -0.949484   -0.797114
     18          8           0       -1.442507   -1.953496   -1.381620
     19          1           0       -2.181672   -1.683148   -0.806966
     20          8           0        0.791468   -1.315511    1.493108
     21          1           0        1.489102   -1.350230    0.792998
     22          8           0       -2.751091   -0.645733    0.824307
     23          1           0       -2.987218   -1.181226    1.599372
     24          8           0        1.785103    1.251321    1.307735
     25          1           0        3.073904    1.045907    0.557717
     26          1           0        1.514187    0.431532    1.766113
     27          1           0        1.201400    1.223665    0.511731
     28          8           0        3.656461    0.755750   -0.213496
     29          1           0        2.642098   -0.183304   -0.788958
     30          1           0        4.394110    0.255656    0.165748
 ---------------------------------------------------------------------
 Rotational constants (GHZ):      0.7442453      0.5801232      0.4413367
 Standard basis: 6-31G(d) (6D, 7F)
 There are   242 symmetry adapted cartesian basis functions of A   symmetry.
 There are   242 symmetry adapted basis functions of A   symmetry.
   242 basis functions,   456 primitive gaussians,   242 cartesian basis functions
    58 alpha electrons       58 beta electrons
       nuclear repulsion energy      1147.9263629958 Hartrees.
 NAtoms=   30 NActive=   30 NUniq=   30 SFac= 1.00D+00 NAtFMM=   60 NAOKFM=F Big=F
 Integral buffers will be    131072 words long.
 Raffenetti 2 integral format.
 Two-electron integral symmetry is turned on.
 One-electron integrals computed using PRISM.
 NBasis=   242 RedAO= T EigKep=  1.55D-03  NBF=   242
 NBsUse=   242 1.00D-06 EigRej= -1.00D+00 NBFU=   242
 ExpMin= 1.61D-01 ExpMax= 5.48D+03 ExpMxC= 8.25D+02 IAcc=1 IRadAn=         1 AccDes= 0.00D+00
 Harris functional with IExCor=  402 and IRadAn=       1 diagonalized for initial guess.
 HarFok:  IExCor=  402 AccDes= 0.00D+00 IRadAn=         1 IDoV= 1 UseB2=F ITyADJ=14
 ICtDFT=  3500011 ScaDFX=  1.000000  1.000000  1.000000  1.000000
 FoFCou: FMM=F IPFlag=           0 FMFlag=      100000 FMFlg1=           0
         NFxFlg=           0 DoJE=T BraDBF=F KetDBF=T FulRan=T
         wScrn=  0.000000 ICntrl=     500 IOpCl=  0 I1Cent=   200000004 NGrid=           0
         NMat0=    1 NMatS0=      1 NMatT0=    0 NMatD0=    1 NMtDS0=    0 NMtDT0=    0
 Petite list used in FoFCou.
 Requested convergence on RMS density matrix=1.00D-08 within 128 cycles.
 Requested convergence on MAX density matrix=1.00D-06.
 Requested convergence on             energy=1.00D-06.
 No special actions if energy rises.
 Integral accuracy reduced to 1.0D-05 until final iterations.
 Initial convergence to 1.0D-05 achieved.  Increase integral accuracy.
 SCF Done:  E(RB3LYP) =  -839.984558252     A.U. after   14 cycles
            NFock= 14  Conv=0.39D-08     -V/T= 2.0084

 **********************************************************************

            Population analysis using the SCF density.

 **********************************************************************

 Orbital symmetries:
       Occupied  (A) (A) (A) (A) (A) (A) (A) (A) (A) (A) (A) (A)
                 (A) (A) (A) (A) (A) (A) (A) (A) (A) (A) (A) (A)
                 (A) (A) (A) (A) (A) (A) (A) (A) (A) (A) (A) (A)
                 (A) (A) (A) (A) (A) (A) (A) (A) (A) (A) (A) (A)
                 (A) (A) (A) (A) (A) (A) (A) (A) (A) (A)
       Virtual   (A) (A) (A) (A) (A) (A) (A) (A) (A) (A) (A) (A)
                 (A) (A) (A) (A) (A) (A) (A) (A) (A) (A) (A) (A)
                 (A) (A) (A) (A) (A) (A) (A) (A) (A) (A) (A) (A)
                 (A) (A) (A) (A) (A) (A) (A) (A) (A) (A) (A) (A)
                 (A) (A) (A) (A) (A) (A) (A) (A) (A) (A) (A) (A)
                 (A) (A) (A) (A) (A) (A) (A) (A) (A) (A) (A) (A)
                 (A) (A) (A) (A) (A) (A) (A) (A) (A) (A) (A) (A)
                 (A) (A) (A) (A) (A) (A) (A) (A) (A) (A) (A) (A)
                 (A) (A) (A) (A) (A) (A) (A) (A) (A) (A) (A) (A)
                 (A) (A) (A) (A) (A) (A) (A) (A) (A) (A) (A) (A)
                 (A) (A) (A) (A) (A) (A) (A) (A) (A) (A) (A) (A)
                 (A) (A) (A) (A) (A) (A) (A) (A) (A) (A) (A) (A)
                 (A) (A) (A) (A) (A) (A) (A) (A) (A) (A) (A) (A)
                 (A) (A) (A) (A) (A) (A) (A) (A) (A) (A) (A) (A)
                 (A) (A) (A) (A) (A) (A) (A) (A) (A) (A) (A) (A)
                 (A) (A) (A) (A)
 The electronic state is 1-A.
 Alpha  occ. eigenvalues --  -19.18697 -19.17318 -19.15541 -19.15016 -19.15005
 Alpha  occ. eigenvalues --  -19.14970 -19.13876 -19.13643 -10.29541 -10.26121
 Alpha  occ. eigenvalues --  -10.25695 -10.25367 -10.24911 -10.24338  -1.07907
 Alpha  occ. eigenvalues --   -1.05548  -1.03149  -1.02458  -1.02293  -1.01388
 Alpha  occ. eigenvalues --   -1.00924  -0.98130  -0.79197  -0.76902  -0.70539
 Alpha  occ. eigenvalues --   -0.65639  -0.63325  -0.58469  -0.56551  -0.55808
 Alpha  occ. eigenvalues --   -0.53893  -0.53508  -0.52271  -0.50680  -0.49386
 Alpha  occ. eigenvalues --   -0.48826  -0.47457  -0.45750  -0.43614  -0.42527
 Alpha  occ. eigenvalues --   -0.42170  -0.41394  -0.40523  -0.40148  -0.39056
 Alpha  occ. eigenvalues --   -0.37567  -0.36394  -0.35502  -0.34256  -0.33611
 Alpha  occ. eigenvalues --   -0.31607  -0.30357  -0.29531  -0.29105  -0.27898
 Alpha  occ. eigenvalues --   -0.27647  -0.27421  -0.25920
 Alpha virt. eigenvalues --    0.03960   0.06215   0.07372   0.08758   0.09263
 Alpha virt. eigenvalues --    0.10694   0.12439   0.12731   0.14361   0.14386
 Alpha virt. eigenvalues --    0.15481   0.16624   0.17334   0.17879   0.19052
 Alpha virt. eigenvalues --    0.20964   0.21109   0.21735   0.22554   0.23653
 Alpha virt. eigenvalues --    0.24739   0.26164   0.28073   0.29133   0.30045
 Alpha virt. eigenvalues --    0.31044   0.32097   0.33616   0.50989   0.52755
 Alpha virt. eigenvalues --    0.54582   0.56506   0.56792   0.57140   0.57955
 Alpha virt. eigenvalues --    0.58293   0.61104   0.62241   0.63653   0.65380
 Alpha virt. eigenvalues --    0.67965   0.68825   0.70507   0.72750   0.73377
 Alpha virt. eigenvalues --    0.75784   0.76402   0.78303   0.79124   0.79364
 Alpha virt. eigenvalues --    0.81288   0.82432   0.83795   0.84290   0.84761
 Alpha virt. eigenvalues --    0.85018   0.86165   0.87523   0.88688   0.89182
 Alpha virt. eigenvalues --    0.90187   0.91574   0.92559   0.94218   0.95444
 Alpha virt. eigenvalues --    0.98485   0.98962   1.00528   1.02235   1.04219
 Alpha virt. eigenvalues --    1.05413   1.06091   1.07671   1.09077   1.10040
 Alpha virt. eigenvalues --    1.11406   1.15155   1.17332   1.18551   1.20599
 Alpha virt. eigenvalues --    1.21070   1.22770   1.24185   1.25326   1.26863
 Alpha virt. eigenvalues --    1.29040   1.31693   1.31975   1.32304   1.34965
 Alpha virt. eigenvalues --    1.40245   1.42585   1.43816   1.46817   1.49054
 Alpha virt. eigenvalues --    1.51046   1.54262   1.56299   1.58601   1.60129
 Alpha virt. eigenvalues --    1.60828   1.64977   1.66221   1.67973   1.70296
 Alpha virt. eigenvalues --    1.72197   1.72994   1.73301   1.74484   1.74987
 Alpha virt. eigenvalues --    1.75159   1.76940   1.77482   1.79275   1.79639
 Alpha virt. eigenvalues --    1.80946   1.81916   1.82600   1.83636   1.86135
 Alpha virt. eigenvalues --    1.86461   1.89363   1.92245   1.92926   1.95446
 Alpha virt. eigenvalues --    1.95889   1.99708   2.00683   2.01405   2.04793
 Alpha virt. eigenvalues --    2.05544   2.09085   2.10689   2.13814   2.16035
 Alpha virt. eigenvalues --    2.17670   2.18520   2.19779   2.24022   2.25740
 Alpha virt. eigenvalues --    2.32765   2.33560   2.36070   2.38301   2.40916
 Alpha virt. eigenvalues --    2.42353   2.44306   2.47079   2.48067   2.51169
 Alpha virt. eigenvalues --    2.52529   2.54468   2.56253   2.58248   2.60906
 Alpha virt. eigenvalues --    2.62982   2.66787   2.67329   2.69119   2.71082
 Alpha virt. eigenvalues --    2.74649   2.79144   2.82414   2.86754   2.89232
 Alpha virt. eigenvalues --    2.91709   2.95798   3.01242   3.06369   3.09737
 Alpha virt. eigenvalues --    3.76255   3.77289   3.80794   3.84194   3.92059
 Alpha virt. eigenvalues --    4.03825   4.08624   4.13561   4.30386   4.39416
 Alpha virt. eigenvalues --    4.47523   4.58603   4.75000   4.78408
          Condensed to atoms (all electrons):
               1          2          3          4          5          6
     1  C    4.950609  -0.038601   0.269020  -0.014536   0.000379   0.005573
     2  C   -0.038601   4.965479   0.281715   0.310392  -0.039311   0.375616
     3  C    0.269020   0.281715   5.176881  -0.002865   0.006522  -0.075843
     4  C   -0.014536   0.310392  -0.002865   5.001364   0.372717  -0.045729
     5  H    0.000379  -0.039311   0.006522   0.372717   0.593459  -0.009002
     6  H    0.005573   0.375616  -0.075843  -0.045729  -0.009002   0.636807
     7  H    0.356167  -0.003957  -0.052939  -0.000738   0.000236  -0.000296
     8  H   -0.040977  -0.057313   0.362184   0.004944  -0.000161  -0.000982
     9  C   -0.010613  -0.013525  -0.035997   0.272808  -0.063913   0.007402
    10  H    0.000210   0.005035  -0.000243  -0.062345   0.000001  -0.000146
    11  O    0.182511  -0.002788  -0.040353  -0.028111   0.003507   0.000073
    12  C    0.344207   0.002219  -0.024903   0.000293   0.000022  -0.000141
    13  H   -0.047701   0.000523   0.005056  -0.000013  -0.000000  -0.000002
    14  H   -0.028188  -0.000306  -0.006319   0.000012  -0.000000   0.000003
    15  O   -0.047405  -0.000036   0.002245  -0.000003  -0.000000   0.000000
    16  H    0.006532   0.000003  -0.000266   0.000000   0.000000  -0.000000
    17  O    0.002562  -0.001772   0.000839  -0.035546   0.006317  -0.000339
    18  O   -0.005020  -0.027803   0.004857   0.235088  -0.037940   0.001528
    19  H   -0.001600  -0.010591  -0.007483  -0.031288   0.002773   0.002053
    20  O    0.002572   0.206560  -0.041956  -0.025153  -0.000062  -0.034474
    21  H   -0.000158  -0.024658   0.004795  -0.015174   0.003970   0.000249
    22  O   -0.036391  -0.031526   0.162639  -0.003021  -0.000208   0.002724
    23  H    0.006320  -0.000988  -0.022150  -0.000473  -0.000015   0.007544
    24  O    0.004896   0.000201   0.001153  -0.000273   0.000016  -0.000042
    25  H   -0.000029   0.000064  -0.000029  -0.000005  -0.000003   0.000001
    26  H   -0.000172  -0.003847  -0.001118   0.000018  -0.000053   0.000340
    27  H   -0.007272  -0.000424  -0.000157   0.000253  -0.000074   0.000024
    28  O    0.000016  -0.000024   0.000004  -0.000080   0.000002  -0.000000
    29  H   -0.000191  -0.000150  -0.000038   0.003700  -0.000042   0.000019
    30  H   -0.000000   0.000002  -0.000000  -0.000004  -0.000001   0.000000
               7          8          9         10         11         12
     1  C    0.356167  -0.040977  -0.010613   0.000210   0.182511   0.344207
     2  C   -0.003957  -0.057313  -0.013525   0.005035  -0.002788   0.002219
     3  C   -0.052939   0.362184  -0.035997  -0.000243  -0.040353  -0.024903
     4  C   -0.000738   0.004944   0.272808  -0.062345  -0.028111   0.000293
     5  H    0.000236  -0.000161  -0.063913   0.000001   0.003507   0.000022
     6  H   -0.000296  -0.000982   0.007402  -0.000146   0.000073  -0.000141
     7  H    0.575104   0.005508  -0.008342   0.003785  -0.035242  -0.036124
     8  H    0.005508   0.604354   0.000371   0.000032   0.002060  -0.007819
     9  C   -0.008342   0.000371   4.763518   0.386917   0.163432   0.002092
    10  H    0.003785   0.000032   0.386917   0.596777  -0.048903  -0.000278
    11  O   -0.035242   0.002060   0.163432  -0.048903   8.423868  -0.037248
    12  C   -0.036124  -0.007819   0.002092  -0.000278  -0.037248   4.896792
    13  H   -0.003471  -0.000332  -0.000105   0.000008   0.003262   0.357452
    14  H    0.006157   0.005460  -0.000039   0.000003  -0.005013   0.341188
    15  O    0.003673   0.000073  -0.000077   0.000027   0.002936   0.251531
    16  H   -0.000122  -0.000011   0.000009  -0.000001  -0.000083  -0.021730
    17  O   -0.000062   0.000033   0.219655  -0.040279  -0.047559  -0.000095
    18  O    0.011988  -0.000056  -0.042690   0.003653   0.000873   0.000511
    19  H    0.001177   0.000947   0.003098  -0.000300   0.000055  -0.000181
    20  O   -0.000105   0.002786   0.015530  -0.000224  -0.004266  -0.000113
    21  H    0.000052  -0.000273  -0.015303   0.001714   0.001963   0.000027
    22  O    0.001191  -0.029725   0.000786   0.000020   0.001132  -0.001201
    23  H   -0.000155  -0.004729  -0.000005  -0.000002  -0.000114  -0.000240
    24  O   -0.000081   0.000545   0.001678  -0.000083  -0.042870  -0.002358
    25  H    0.000001  -0.000007  -0.000077   0.000040   0.000960   0.000017
    26  H    0.000031   0.002325   0.000893   0.000041   0.002484  -0.000191
    27  H    0.000897   0.000590  -0.003089   0.000650   0.067312  -0.002213
    28  O   -0.000000   0.000001   0.001179   0.000047  -0.000332  -0.000003
    29  H   -0.000011  -0.000012  -0.006232  -0.004017   0.003276   0.000008
    30  H    0.000000  -0.000000   0.000007   0.000005   0.000023   0.000000
              13         14         15         16         17         18
     1  C   -0.047701  -0.028188  -0.047405   0.006532   0.002562  -0.005020
     2  C    0.000523  -0.000306  -0.000036   0.000003  -0.001772  -0.027803
     3  C    0.005056  -0.006319   0.002245  -0.000266   0.000839   0.004857
     4  C   -0.000013   0.000012  -0.000003   0.000000  -0.035546   0.235088
     5  H   -0.000000  -0.000000  -0.000000   0.000000   0.006317  -0.037940
     6  H   -0.000002   0.000003   0.000000  -0.000000  -0.000339   0.001528
     7  H   -0.003471   0.006157   0.003673  -0.000122  -0.000062   0.011988
     8  H   -0.000332   0.005460   0.000073  -0.000011   0.000033  -0.000056
     9  C   -0.000105  -0.000039  -0.000077   0.000009   0.219655  -0.042690
    10  H    0.000008   0.000003   0.000027  -0.000001  -0.040279   0.003653
    11  O    0.003262  -0.005013   0.002936  -0.000083  -0.047559   0.000873
    12  C    0.357452   0.341188   0.251531  -0.021730  -0.000095   0.000511
    13  H    0.632097  -0.049109  -0.038177  -0.003388   0.000001  -0.000003
    14  H   -0.049109   0.622472  -0.036725  -0.004301  -0.000010  -0.000006
    15  O   -0.038177  -0.036725   8.239253   0.234293   0.000000  -0.000001
    16  H   -0.003388  -0.004301   0.234293   0.390444  -0.000000   0.000000
    17  O    0.000001  -0.000010   0.000000  -0.000000   8.441331   0.001285
    18  O   -0.000003  -0.000006  -0.000001   0.000000   0.001285   8.292631
    19  H    0.000011  -0.000004  -0.000003   0.000000  -0.000096   0.226565
    20  O   -0.000007  -0.000001   0.000000  -0.000000  -0.041307   0.001420
    21  H    0.000000  -0.000015  -0.000000   0.000000   0.082173   0.000233
    22  O    0.004220   0.000255  -0.000012   0.000003  -0.000001  -0.012090
    23  H   -0.000095   0.000001   0.000002  -0.000001  -0.000000   0.000612
    24  O    0.000046   0.006836   0.000003   0.000001  -0.002089   0.000000
    25  H   -0.000000  -0.000009  -0.000001  -0.000000   0.007260  -0.000000
    26  H   -0.000007   0.000218   0.000001  -0.000001   0.000295  -0.000007
    27  H    0.000101   0.002851   0.000159  -0.000014   0.001743  -0.000007
    28  O    0.000000   0.000008   0.000000   0.000000  -0.066719   0.000000
    29  H   -0.000000  -0.000011  -0.000000   0.000000   0.158546  -0.000032
    30  H   -0.000000  -0.000000  -0.000000  -0.000000   0.004083  -0.000000
              19         20         21         22         23         24
     1  C   -0.001600   0.002572  -0.000158  -0.036391   0.006320   0.004896
     2  C   -0.010591   0.206560  -0.024658  -0.031526  -0.000988   0.000201
     3  C   -0.007483  -0.041956   0.004795   0.162639  -0.022150   0.001153
     4  C   -0.031288  -0.025153  -0.015174  -0.003021  -0.000473  -0.000273
     5  H    0.002773  -0.000062   0.003970  -0.000208  -0.000015   0.000016
     6  H    0.002053  -0.034474   0.000249   0.002724   0.007544  -0.000042
     7  H    0.001177  -0.000105   0.000052   0.001191  -0.000155  -0.000081
     8  H    0.000947   0.002786  -0.000273  -0.029725  -0.004729   0.000545
     9  C    0.003098   0.015530  -0.015303   0.000786  -0.000005   0.001678
    10  H   -0.000300  -0.000224   0.001714   0.000020  -0.000002  -0.000083
    11  O    0.000055  -0.004266   0.001963   0.001132  -0.000114  -0.042870
    12  C   -0.000181  -0.000113   0.000027  -0.001201  -0.000240  -0.002358
    13  H    0.000011  -0.000007   0.000000   0.004220  -0.000095   0.000046
    14  H   -0.000004  -0.000001  -0.000015   0.000255   0.000001   0.006836
    15  O   -0.000003   0.000000  -0.000000  -0.000012   0.000002   0.000003
    16  H    0.000000  -0.000000   0.000000   0.000003  -0.000001   0.000001
    17  O   -0.000096  -0.041307   0.082173  -0.000001  -0.000000  -0.002089
    18  O    0.226565   0.001420   0.000233  -0.012090   0.000612   0.000000
    19  H    0.348706   0.000218  -0.000007   0.046877  -0.001415  -0.000001
    20  O    0.000218   8.367790   0.192478   0.001444   0.000036  -0.018413
    21  H   -0.000007   0.192478   0.338400  -0.000094  -0.000008   0.006112
    22  O    0.046877   0.001444  -0.000094   8.292877   0.229833   0.000002
    23  H   -0.001415   0.000036  -0.000008   0.229833   0.380073  -0.000000
    24  O   -0.000001  -0.018413   0.006112   0.000002  -0.000000   8.451305
    25  H    0.000000   0.000348   0.000136  -0.000000   0.000000   0.091085
    26  H    0.000001   0.053915  -0.004762   0.000025   0.000004   0.224406
    27  H    0.000007   0.001025  -0.000155  -0.000006   0.000004   0.205606
    28  O   -0.000000  -0.000267   0.001833   0.000000  -0.000000  -0.070707
    29  H    0.000003   0.002073  -0.004269  -0.000000   0.000000   0.005234
    30  H    0.000000  -0.000004   0.000234  -0.000000   0.000000   0.003464
              25         26         27         28         29         30
     1  C   -0.000029  -0.000172  -0.007272   0.000016  -0.000191  -0.000000
     2  C    0.000064  -0.003847  -0.000424  -0.000024  -0.000150   0.000002
     3  C   -0.000029  -0.001118  -0.000157   0.000004  -0.000038  -0.000000
     4  C   -0.000005   0.000018   0.000253  -0.000080   0.003700  -0.000004
     5  H   -0.000003  -0.000053  -0.000074   0.000002  -0.000042  -0.000001
     6  H    0.000001   0.000340   0.000024  -0.000000   0.000019   0.000000
     7  H    0.000001   0.000031   0.000897  -0.000000  -0.000011   0.000000
     8  H   -0.000007   0.002325   0.000590   0.000001  -0.000012  -0.000000
     9  C   -0.000077   0.000893  -0.003089   0.001179  -0.006232   0.000007
    10  H    0.000040   0.000041   0.000650   0.000047  -0.004017   0.000005
    11  O    0.000960   0.002484   0.067312  -0.000332   0.003276   0.000023
    12  C    0.000017  -0.000191  -0.002213  -0.000003   0.000008   0.000000
    13  H   -0.000000  -0.000007   0.000101   0.000000  -0.000000  -0.000000
    14  H   -0.000009   0.000218   0.002851   0.000008  -0.000011  -0.000000
    15  O   -0.000001   0.000001   0.000159   0.000000  -0.000000  -0.000000
    16  H   -0.000000  -0.000001  -0.000014   0.000000   0.000000  -0.000000
    17  O    0.007260   0.000295   0.001743  -0.066719   0.158546   0.004083
    18  O   -0.000000  -0.000007  -0.000007   0.000000  -0.000032  -0.000000
    19  H    0.000000   0.000001   0.000007  -0.000000   0.000003   0.000000
    20  O    0.000348   0.053915   0.001025  -0.000267   0.002073  -0.000004
    21  H    0.000136  -0.004762  -0.000155   0.001833  -0.004269   0.000234
    22  O   -0.000000   0.000025  -0.000006   0.000000  -0.000000  -0.000000
    23  H    0.000000   0.000004   0.000004  -0.000000   0.000000   0.000000
    24  O    0.091085   0.224406   0.205606  -0.070707   0.005234   0.003464
    25  H    0.310156  -0.003843  -0.008350   0.179661  -0.012986  -0.005716
    26  H   -0.003843   0.333022  -0.022692   0.003996  -0.000448  -0.000244
    27  H   -0.008350  -0.022692   0.303997   0.005575   0.000830  -0.000257
    28  O    0.179661   0.003996   0.005575   8.426141   0.108769   0.234341
    29  H   -0.012986  -0.000448   0.000830   0.108769   0.299845  -0.008418
    30  H   -0.005716  -0.000244  -0.000257   0.234341  -0.008418   0.377821
 Mulliken charges:
               1
     1  C    0.147280
     2  C    0.109812
     3  C    0.034751
     4  C    0.063766
     5  H    0.160865
     6  H    0.127038
     7  H    0.175677
     8  H    0.150181
     9  C    0.360631
    10  H    0.157854
    11  O   -0.566844
    12  C   -0.061520
    13  H    0.139636
    14  H    0.144592
    15  O   -0.611756
    16  H    0.398632
    17  O   -0.690248
    18  O   -0.655590
    19  H    0.420480
    20  O   -0.681843
    21  H    0.430507
    22  O   -0.629749
    23  H    0.405962
    24  O   -0.865672
    25  H    0.441325
    26  H    0.415369
    27  H    0.453083
    28  O   -0.823440
    29  H    0.454557
    30  H    0.394665
 Sum of Mulliken charges =  -0.00000
 Mulliken charges with hydrogens summed into heavy atoms:
               1
     1  C    0.322957
     2  C    0.236850
     3  C    0.184932
     4  C    0.224631
     9  C    0.518485
    11  O   -0.566844
    12  C    0.222708
    15  O   -0.213123
    17  O   -0.235692
    18  O   -0.235110
    20  O   -0.251336
    22  O   -0.223788
    24  O    0.002780
    28  O    0.012550
 Electronic spatial extent (au):  <R**2>=           2839.6979
 Charge=             -0.0000 electrons
 Dipole moment (field-independent basis, Debye):
    X=             -1.8676    Y=             -0.4297    Z=              3.3459  Tot=              3.8558
 Quadrupole moment (field-independent basis, Debye-Ang):
   XX=            -77.2498   YY=            -80.4685   ZZ=            -87.3433
   XY=             -5.9309   XZ=             -5.7089   YZ=             -1.6263
 Traceless Quadrupole moment (field-independent basis, Debye-Ang):
   XX=              4.4374   YY=              1.2187   ZZ=             -5.6561
   XY=             -5.9309   XZ=             -5.7089   YZ=             -1.6263
 Octapole moment (field-independent basis, Debye-Ang**2):
  XXX=             40.2068  YYY=             47.9923  ZZZ=              5.5619  XYY=            -27.5956
  XXY=            -16.8824  XXZ=             32.7351  XZZ=             -3.5920  YZZ=             -1.8794
  YYZ=             11.2606  XYZ=              7.8560
 Hexadecapole moment (field-independent basis, Debye-Ang**3):
 XXXX=          -1337.5759 YYYY=           -970.8222 ZZZZ=           -545.6192 XXXY=            -27.7635
 XXXZ=             46.1241 YYYX=            -92.7562 YYYZ=            -31.4305 ZZZX=            -36.4979
 ZZZY=            -13.4864 XXYY=           -450.7655 XXZZ=           -336.9864 YYZZ=           -329.0060
 XXYZ=            -24.2615 YYXZ=            -32.8222 ZZXY=             10.5505
 N-N= 1.147926362996D+03 E-N=-4.267880330410D+03  KE= 8.329667567415D+02
 Calling FoFJK, ICntrl=      2127 FMM=F ISym2X=0 I1Cent= 0 IOpClX= 0 NMat=1 NMatS=1 NMatT=0.
 ***** Axes restored to original set *****
 -------------------------------------------------------------------
 Center     Atomic                   Forces (Hartrees/Bohr)
 Number     Number              X              Y              Z
 -------------------------------------------------------------------
      1        6          -0.000474757   -0.001678619   -0.001235327
      2        6           0.000498610   -0.001126108   -0.000679734
      3        6           0.000684233   -0.000539991   -0.000395491
      4        6           0.001027384    0.001549937   -0.000488970
      5        1           0.000438285    0.000394397   -0.000267645
      6        1          -0.000137470   -0.000117693   -0.000296463
      7        1          -0.000201081   -0.000043279    0.000021516
      8        1           0.000115598    0.000013389   -0.000074155
      9        6          -0.010173082    0.006347883   -0.000816084
     10        1          -0.000336235   -0.000100326   -0.000181044
     11        8          -0.000291394   -0.006966344   -0.008055796
     12        6           0.002940158   -0.001082591   -0.000697091
     13        1           0.000300546   -0.000152485    0.000095774
     14        1           0.000358051   -0.000161812   -0.000150237
     15        8          -0.000148846   -0.000621818   -0.000206783
     16        1           0.000305483   -0.000000623    0.000073772
     17        8          -0.009024773   -0.010158574   -0.003361467
     18        8           0.002798578    0.000000431   -0.000094550
     19        1           0.000107838   -0.000080061   -0.000042607
     20        8          -0.004221284   -0.003482538    0.005314860
     21        1           0.000159047   -0.000085671    0.000763807
     22        8           0.000789529   -0.000395420   -0.000394739
     23        1          -0.000035396    0.000174728    0.000087587
     24        8          -0.004977007    0.010499064    0.018181333
     25        1           0.002192413    0.000672111   -0.000363289
     26        1          -0.000944266    0.000516092    0.000784246
     27        1           0.001496668    0.000929330    0.001555601
     28        8           0.016967515    0.005722626   -0.006421595
     29        1          -0.000898050    0.000221245   -0.002132411
     30        1           0.000683707   -0.000247279   -0.000523016
 -------------------------------------------------------------------
 Cartesian Forces:  Max     0.018181333 RMS     0.003931299

 GradGradGradGradGradGradGradGradGradGradGradGradGradGradGradGradGradGrad
 Berny optimization.
 FormGI is forming the generalized inverse of G from B-inverse, IUseBI=4.
 Internal  Forces:  Max     0.014855664 RMS     0.003553474
 Search for a local minimum.
 Step number   1 out of a maximum of  177
 All quantities printed in internal units (Hartrees-Bohrs-Radians)
 Mixed Optimization -- RFO/linear search
 Second derivative matrix not updated -- first step.
 ITU=  0
     Eigenvalues ---    0.00297   0.00433   0.00451   0.00524   0.00571
     Eigenvalues ---    0.00868   0.01190   0.01253   0.01358   0.01439
     Eigenvalues ---    0.01467   0.02034   0.02744   0.03275   0.03613
     Eigenvalues ---    0.04301   0.04532   0.04782   0.04815   0.04949
     Eigenvalues ---    0.05155   0.05326   0.05773   0.05998   0.06235
     Eigenvalues ---    0.06414   0.06556   0.06719   0.07014   0.07566
     Eigenvalues ---    0.07992   0.08396   0.08923   0.09305   0.09811
     Eigenvalues ---    0.10607   0.10970   0.11236   0.11404   0.11683
     Eigenvalues ---    0.12552   0.13666   0.14421   0.16000   0.16000
     Eigenvalues ---    0.16000   0.16000   0.16055   0.16126   0.16765
     Eigenvalues ---    0.17767   0.18646   0.18869   0.21063   0.22018
     Eigenvalues ---    0.23403   0.25471   0.25793   0.26747   0.28029
     Eigenvalues ---    0.30003   0.31932   0.33422   0.33543   0.33591
     Eigenvalues ---    0.33782   0.34054   0.34108   0.34288   0.37546
     Eigenvalues ---    0.39869   0.41681   0.42408   0.42599   0.42916
     Eigenvalues ---    0.44701   0.46171   0.49024   0.49682   0.51868
     Eigenvalues ---    0.52465   0.53132   0.53629   0.53679
 RFO step:  Lambda=-1.57374246D-02 EMin= 2.96734422D-03
 Linear search not attempted -- first point.
 Iteration  1 RMS(Cart)=  0.12574923 RMS(Int)=  0.00409794
 Iteration  2 RMS(Cart)=  0.00654695 RMS(Int)=  0.00057036
 Iteration  3 RMS(Cart)=  0.00002519 RMS(Int)=  0.00057012
 Iteration  4 RMS(Cart)=  0.00000003 RMS(Int)=  0.00057012
 Variable       Old X    -DE/DX   Delta X   Delta X   Delta X     New X
                                 (Linear)    (Quad)   (Total)
    R1        2.91981   0.00227   0.00000   0.00765   0.00808   2.92789
    R2        2.06847   0.00012   0.00000   0.00032   0.00032   2.06879
    R3        2.71850  -0.00188   0.00000  -0.00721  -0.00695   2.71154
    R4        2.87957  -0.00295   0.00000  -0.00933  -0.00933   2.87024
    R5        2.93279  -0.00146   0.00000   0.00023   0.00025   2.93305
    R6        2.91052   0.00212   0.00000   0.01116   0.01077   2.92129
    R7        2.08026   0.00003   0.00000   0.00007   0.00007   2.08033
    R8        2.69331  -0.00118   0.00000  -0.00273  -0.00273   2.69058
    R9        2.07700  -0.00004   0.00000  -0.00012  -0.00012   2.07688
   R10        2.71732  -0.00064   0.00000  -0.00154  -0.00154   2.71578
   R11        2.07240  -0.00007   0.00000  -0.00020  -0.00020   2.07219
   R12        2.94118   0.00010   0.00000  -0.00015  -0.00049   2.94068
   R13        2.68167  -0.00241   0.00000  -0.00546  -0.00546   2.67621
   R14        2.07148   0.00020   0.00000   0.00055   0.00055   2.07203
   R15        2.80279  -0.00453   0.00000  -0.02026  -0.02006   2.78273
   R16        2.62353  -0.00102   0.00000  -0.00307  -0.00341   2.62012
   R17        3.07796   0.01393   0.00000   0.13432   0.13464   3.21260
   R18        2.08317  -0.00022   0.00000  -0.00062  -0.00062   2.08255
   R19        2.08108   0.00009   0.00000   0.00025   0.00025   2.08133
   R20        2.67774  -0.00026   0.00000  -0.00059  -0.00059   2.67714
   R21        1.83071  -0.00003   0.00000  -0.00006  -0.00006   1.83065
   R22        1.92694   0.01240   0.00000   0.02789   0.02709   1.95403
   R23        1.84157  -0.00013   0.00000  -0.00025  -0.00025   1.84132
   R24        1.86887  -0.00042   0.00000  -0.00082  -0.00082   1.86806
   R25        1.83531  -0.00001   0.00000  -0.00003  -0.00003   1.83528
   R26        2.84448   0.01486   0.00000   0.12142   0.12201   2.96649
   R27        1.84726   0.00019   0.00000   0.00036   0.00036   1.84762
   R28        1.86605   0.00953   0.00000   0.01843   0.01857   1.88462
   R29        1.90697   0.01388   0.00000   0.03069   0.03112   1.93808
   R30        2.82949   0.01322   0.00000   0.10516   0.10452   2.93401
   R31        1.83025   0.00044   0.00000   0.00079   0.00079   1.83104
    A1        1.89375  -0.00374   0.00000  -0.02069  -0.02076   1.87299
    A2        1.92405   0.00620   0.00000   0.03367   0.03400   1.95805
    A3        1.94752   0.00161   0.00000   0.01202   0.01228   1.95980
    A4        1.89637  -0.00058   0.00000  -0.00451  -0.00421   1.89216
    A5        1.87730   0.00227   0.00000   0.00746   0.00739   1.88469
    A6        1.92333  -0.00591   0.00000  -0.02902  -0.02968   1.89365
    A7        1.89601  -0.00638   0.00000  -0.00727  -0.00895   1.88706
    A8        1.87684   0.00285   0.00000   0.00098   0.00110   1.87794
    A9        1.95141  -0.00024   0.00000  -0.00025   0.00010   1.95151
   A10        1.91817   0.00104   0.00000  -0.00670  -0.00625   1.91191
   A11        1.92802   0.00646   0.00000   0.04393   0.04455   1.97257
   A12        1.89268  -0.00376   0.00000  -0.03203  -0.03223   1.86045
   A13        1.94455   0.00113   0.00000   0.01719   0.01696   1.96150
   A14        1.93726   0.00172   0.00000   0.01041   0.01022   1.94748
   A15        1.83558  -0.00256   0.00000  -0.01647  -0.01624   1.81934
   A16        1.89306  -0.00084   0.00000   0.00088   0.00097   1.89403
   A17        1.92442   0.00012   0.00000  -0.01123  -0.01143   1.91298
   A18        1.92906   0.00044   0.00000  -0.00124  -0.00123   1.92783
   A19        1.92054  -0.00088   0.00000   0.00416   0.00406   1.92460
   A20        1.85704   0.00595   0.00000   0.05068   0.05000   1.90704
   A21        1.96294  -0.00117   0.00000  -0.01380  -0.01359   1.94935
   A22        1.85653   0.00005   0.00000   0.00463   0.00389   1.86042
   A23        1.89141   0.00084   0.00000  -0.01100  -0.01123   1.88018
   A24        1.97237  -0.00471   0.00000  -0.03272  -0.03226   1.94011
   A25        1.94874  -0.00179   0.00000  -0.02172  -0.02185   1.92689
   A26        1.92552   0.00286   0.00000   0.02335   0.02372   1.94924
   A27        1.86001   0.00061   0.00000   0.01369   0.01303   1.87305
   A28        1.84674  -0.00032   0.00000  -0.00120  -0.00088   1.84586
   A29        1.96460  -0.00053   0.00000  -0.01159  -0.01097   1.95363
   A30        1.91923  -0.00075   0.00000  -0.00188  -0.00279   1.91645
   A31        2.03925  -0.00718   0.00000  -0.02000  -0.02165   2.01760
   A32        1.88518   0.00194   0.00000   0.03061   0.02931   1.91449
   A33        1.99339   0.00729   0.00000   0.06630   0.06551   2.05890
   A34        1.86051   0.00029   0.00000   0.00177   0.00178   1.86228
   A35        1.91255  -0.00022   0.00000  -0.00304  -0.00304   1.90950
   A36        1.89702  -0.00089   0.00000  -0.00418  -0.00419   1.89283
   A37        1.88654   0.00004   0.00000   0.00149   0.00149   1.88803
   A38        1.95058   0.00039   0.00000   0.00312   0.00312   1.95370
   A39        1.95418   0.00039   0.00000   0.00080   0.00078   1.95496
   A40        1.88446  -0.00012   0.00000  -0.00067  -0.00067   1.88380
   A41        2.05507  -0.00399   0.00000  -0.01942  -0.01907   2.03600
   A42        1.90167  -0.00004   0.00000  -0.00023  -0.00023   1.90144
   A43        1.85594   0.00118   0.00000   0.00670   0.00670   1.86264
   A44        1.88926  -0.00004   0.00000  -0.00020  -0.00020   1.88906
   A45        1.93531   0.00147   0.00000   0.00658   0.00739   1.94271
   A46        1.67160  -0.01050   0.00000  -0.05047  -0.05037   1.62123
   A47        1.76266   0.00028   0.00000  -0.00122  -0.00141   1.76124
   A48        2.72462   0.00117   0.00000   0.01629   0.01637   2.74099
   A49        2.79815   0.01076   0.00000   0.04451   0.04524   2.84340
   A50        1.65385   0.00113   0.00000   0.02963   0.02886   1.68271
   A51        1.86386   0.00060   0.00000   0.00908   0.00924   1.87310
   A52        1.92051   0.00100   0.00000   0.00114   0.00108   1.92159
   A53        2.74225   0.00836   0.00000   0.03207   0.02998   2.77223
    D1        1.56175  -0.00024   0.00000  -0.00461  -0.00506   1.55668
    D2       -2.60974   0.00065   0.00000   0.01542   0.01541  -2.59433
    D3       -0.52315   0.00056   0.00000   0.00964   0.00960  -0.51355
    D4       -0.51300  -0.00090   0.00000  -0.00631  -0.00685  -0.51985
    D5        1.59870  -0.00001   0.00000   0.01371   0.01362   1.61232
    D6       -2.59790  -0.00010   0.00000   0.00794   0.00781  -2.59009
    D7       -2.65616   0.00115   0.00000  -0.00135  -0.00194  -2.65810
    D8       -0.54446   0.00204   0.00000   0.01867   0.01853  -0.52593
    D9        1.54213   0.00195   0.00000   0.01290   0.01272   1.55485
   D10        1.07480  -0.00028   0.00000  -0.02098  -0.02129   1.05351
   D11       -1.20078  -0.00624   0.00000  -0.12619  -0.12576  -1.32654
   D12       -0.99834   0.00097   0.00000  -0.01285  -0.01337  -1.01172
   D13        3.00925  -0.00498   0.00000  -0.11806  -0.11784   2.89141
   D14       -3.05110   0.00196   0.00000  -0.00256  -0.00326  -3.05436
   D15        0.95649  -0.00400   0.00000  -0.10777  -0.10772   0.84877
   D16       -0.83352   0.00248   0.00000   0.02064   0.02058  -0.81294
   D17        1.20399   0.00258   0.00000   0.02181   0.02174   1.22574
   D18       -2.93860   0.00234   0.00000   0.01821   0.01815  -2.92045
   D19        1.24158   0.00027   0.00000   0.00700   0.00697   1.24855
   D20       -3.00410   0.00037   0.00000   0.00817   0.00814  -2.99596
   D21       -0.86350   0.00013   0.00000   0.00457   0.00454  -0.85896
   D22       -2.97710  -0.00238   0.00000  -0.01021  -0.01012  -2.98721
   D23       -0.93959  -0.00229   0.00000  -0.00904  -0.00895  -0.94854
   D24        1.20101  -0.00252   0.00000  -0.01264  -0.01254   1.18846
   D25       -0.57650   0.00191   0.00000   0.04935   0.04927  -0.52723
   D26       -2.71385  -0.00041   0.00000   0.02463   0.02442  -2.68943
   D27        1.45483  -0.00049   0.00000   0.03248   0.03226   1.48709
   D28       -2.65173   0.00256   0.00000   0.06074   0.06092  -2.59081
   D29        1.49411   0.00025   0.00000   0.03602   0.03607   1.53018
   D30       -0.62040   0.00016   0.00000   0.04387   0.04391  -0.57649
   D31        1.55570   0.00551   0.00000   0.09948   0.09945   1.65515
   D32       -0.58165   0.00319   0.00000   0.07476   0.07460  -0.50704
   D33       -2.69616   0.00311   0.00000   0.08261   0.08245  -2.61371
   D34       -3.05882  -0.00060   0.00000  -0.04368  -0.04323  -3.10205
   D35        1.22001  -0.00343   0.00000  -0.07845  -0.07823   1.14178
   D36       -0.94836  -0.00093   0.00000  -0.06406  -0.06367  -1.01203
   D37       -1.00977  -0.00029   0.00000  -0.05054  -0.05053  -1.06030
   D38       -3.01412  -0.00312   0.00000  -0.08530  -0.08553  -3.09965
   D39        1.10070  -0.00062   0.00000  -0.07092  -0.07098   1.02972
   D40        1.07801  -0.00023   0.00000  -0.06685  -0.06670   1.01130
   D41       -0.92635  -0.00305   0.00000  -0.10161  -0.10170  -1.02805
   D42       -3.09472  -0.00056   0.00000  -0.08723  -0.08715   3.10132
   D43       -2.02887   0.00148   0.00000  -0.01744  -0.01700  -2.04587
   D44        0.08488  -0.00233   0.00000   0.00358   0.00342   0.08830
   D45        2.18797   0.00050   0.00000   0.00185   0.00157   2.18954
   D46       -3.01455  -0.00018   0.00000   0.00491   0.00491  -3.00964
   D47        1.17038  -0.00009   0.00000   0.00004   0.00009   1.17047
   D48       -0.92252   0.00060   0.00000   0.00698   0.00694  -0.91557
   D49       -2.77223   0.00071   0.00000   0.04281   0.04369  -2.72853
   D50       -0.72383   0.00103   0.00000   0.04271   0.04379  -0.68004
   D51        1.35916   0.00207   0.00000   0.06139   0.06202   1.42118
   D52        1.46358  -0.00117   0.00000   0.01133   0.01148   1.47506
   D53       -2.77121  -0.00085   0.00000   0.01123   0.01158  -2.75963
   D54       -0.68823   0.00019   0.00000   0.02992   0.02981  -0.65842
   D55       -0.60970   0.00044   0.00000   0.04042   0.04044  -0.56926
   D56        1.43870   0.00075   0.00000   0.04033   0.04054   1.47924
   D57       -2.76151   0.00179   0.00000   0.05901   0.05877  -2.70273
   D58        0.16087   0.00156   0.00000   0.01348   0.01325   0.17411
   D59        2.28795   0.00027   0.00000   0.00216   0.00215   2.29010
   D60       -1.94230  -0.00192   0.00000  -0.01881  -0.01856  -1.96085
   D61       -0.40592  -0.00088   0.00000  -0.00737  -0.00685  -0.41277
   D62        1.81785   0.00228   0.00000   0.08365   0.08446   1.90231
   D63        1.70455  -0.00164   0.00000  -0.02128  -0.02059   1.68396
   D64       -2.35487   0.00152   0.00000   0.06974   0.07072  -2.28415
   D65       -2.45260  -0.00289   0.00000  -0.03698  -0.03579  -2.48839
   D66       -0.22884   0.00027   0.00000   0.05404   0.05552  -0.17331
   D67       -2.79843  -0.00307   0.00000  -0.06054  -0.05981  -2.85824
   D68        1.34288  -0.00092   0.00000  -0.03562  -0.03467   1.30820
   D69       -0.71137   0.00031   0.00000  -0.02559  -0.02497  -0.73634
   D70        1.61175  -0.00134   0.00000   0.01691   0.02039   1.63214
   D71       -0.68894   0.00072   0.00000  -0.03848  -0.03868  -0.72762
   D72       -3.10627   0.00039   0.00000   0.00822   0.00821  -3.09805
   D73        1.12840   0.00037   0.00000   0.00682   0.00683   1.13523
   D74       -0.99102  -0.00024   0.00000   0.00209   0.00208  -0.98894
   D75        2.15943   0.00032   0.00000   0.00049  -0.00044   2.15900
   D76        1.44165   0.00009   0.00000   0.02806   0.02834   1.46999
   D77       -0.37536   0.00389   0.00000   0.04921   0.04952  -0.32584
   D78        1.57765  -0.00203   0.00000  -0.04853  -0.04627   1.53138
   D79       -0.38799  -0.00095   0.00000  -0.04237  -0.04154  -0.42953
   D80       -0.35223   0.00255   0.00000   0.01237   0.01255  -0.33968
   D81       -2.31742   0.00095   0.00000  -0.00151  -0.00161  -2.31903
   D82       -0.91857  -0.00036   0.00000  -0.02990  -0.03023  -0.94880
   D83        0.99800   0.00098   0.00000  -0.00741  -0.00758   0.99042
         Item               Value     Threshold  Converged?
 Maximum Force            0.014856     0.000450     NO 
 RMS     Force            0.003553     0.000300     NO 
 Maximum Displacement     0.609497     0.001800     NO 
 RMS     Displacement     0.127603     0.001200     NO 
 Predicted change in Energy=-9.827189D-03
 GradGradGradGradGradGradGradGradGradGradGradGradGradGradGradGradGradGrad

                          Input orientation:                          
 ---------------------------------------------------------------------
 Center     Atomic      Atomic             Coordinates (Angstroms)
 Number     Number       Type             X           Y           Z
 ---------------------------------------------------------------------
      1          6           0       -1.109184    0.706079   -0.168259
      2          6           0       -0.545731   -1.591588    0.853754
      3          6           0       -1.419502   -0.312948    0.956835
      4          6           0       -0.218807   -1.831547   -0.637985
      5          1           0        0.365659   -2.751880   -0.755561
      6          1           0       -1.140624   -2.433305    1.240427
      7          1           0       -1.759219    0.464226   -1.015283
      8          1           0       -1.276006    0.128550    1.953013
      9          6           0        0.673000   -0.668780   -1.161660
     10          1           0        0.576466   -0.573193   -2.249683
     11          8           0        0.254719    0.629781   -0.607403
     12          6           0       -1.400481    2.135940    0.253163
     13          1           0       -2.392926    2.128978    0.732222
     14          1           0       -0.659304    2.454704    1.002901
     15          8           0       -1.375511    2.957412   -0.900767
     16          1           0       -1.522602    3.872447   -0.618754
     17          8           0        1.977005   -0.944510   -0.779627
     18          8           0       -1.394261   -1.964812   -1.416539
     19          1           0       -2.163987   -1.719330   -0.871849
     20          8           0        0.616550   -1.505474    1.671605
     21          1           0        1.395303   -1.540609    1.063734
     22          8           0       -2.800429   -0.654835    0.753137
     23          1           0       -3.091706   -1.201470    1.501171
     24          8           0        1.880735    1.526923    1.310188
     25          1           0        3.162646    1.230788    0.453877
     26          1           0        1.653434    0.768324    1.883593
     27          1           0        1.267958    1.370910    0.538978
     28          8           0        3.708590    0.865759   -0.333863
     29          1           0        2.648109   -0.158874   -0.819781
     30          1           0        4.474564    0.401976    0.036333
 ---------------------------------------------------------------------
                    Distance matrix (angstroms):
                    1          2          3          4          5
     1  C    0.000000
     2  C    2.577065   0.000000
     3  C    1.549371   1.552103   0.000000
     4  C    2.730010   1.545880   2.508238   0.000000
     5  H    3.804939   2.183301   3.473829   1.096558   0.000000
     6  H    3.441092   1.100864   2.157338   2.177221   2.520783
     7  H    1.094755   3.031869   2.146779   2.790304   3.863406
     8  H    2.204805   2.168075   1.099037   3.416565   4.281158
     9  C    2.460338   2.529580   2.998867   1.556143   2.144453
    10  H    2.968211   3.453661   3.785944   2.193965   2.650192
    11  O    1.434887   2.776721   2.477618   2.506650   3.386722
    12  C    1.518866   3.871147   2.548052   4.234554   5.294106
    13  H    2.117429   4.155661   2.638373   4.721230   5.800523
    14  H    2.152138   4.050632   2.870526   4.610693   5.590282
    15  O    2.382436   4.945734   3.761366   4.933674   5.970659
    16  H    3.224864   5.742668   4.473325   5.851136   6.889554
    17  O    3.552855   3.074222   3.866579   2.372444   2.421487
    18  O    2.961947   2.452250   2.891747   1.416191   2.038060
    19  H    2.736833   2.369130   2.424099   1.962399   2.734738
    20  O    3.354731   1.423795   2.465465   2.477569   2.740001
    21  H    3.582997   1.953024   3.072735   2.363439   2.416025
    22  O    2.358255   2.443624   1.437129   3.159849   4.086305
    23  H    3.218095   2.655811   1.970289   3.636830   4.410214
    24  O    3.434998   3.977585   3.794937   4.413930   4.987076
    25  H    4.348667   4.677368   4.861293   4.690872   5.014730
    26  H    3.441807   3.386160   3.386881   4.077128   4.584249
    27  H    2.567682   3.487828   3.198816   3.721753   4.414451
    28  O    4.823264   5.054527   5.417802   4.774139   4.943716
    29  H    3.910227   3.879949   4.441347   3.324168   3.455052
    30  H    5.595764   5.463134   6.008199   5.241285   5.239943
                    6          7          8          9         10
     6  H    0.000000
     7  H    3.723785   0.000000
     8  H    2.662556   3.026047   0.000000
     9  C    3.488954   2.687158   3.759728   0.000000
    10  H    4.311529   2.838205   4.646154   1.096471   0.000000
    11  O    3.839785   2.061485   3.024910   1.472556   2.061007
    12  C    4.681903   2.128915   2.633363   3.763975   4.184729
    13  H    4.758252   2.495347   2.596066   4.562252   5.001077
    14  H    4.917389   3.040540   2.587282   4.026974   4.612439
    15  O    5.805145   2.525138   4.019505   4.172977   4.253817
    16  H    6.585207   3.439359   4.548797   5.073279   5.179742
    17  O    4.002092   3.999930   4.381879   1.386508   2.064086
    18  O    2.709850   2.488860   3.968631   2.453208   2.552350
    19  H    2.453312   2.225383   3.490418   3.039102   3.274468
    20  O    2.033333   4.091866   2.516146   2.954765   4.030788
    21  H    2.694263   4.276995   3.273041   2.496836   3.547552
    22  O    2.481000   2.337461   2.092191   3.966277   4.519625
    23  H    2.322095   3.298880   2.295622   4.641922   5.283855
    24  O    4.981654   4.448192   3.511934   3.519911   4.334085
    25  H    5.706345   5.193343   4.812896   3.523728   4.153542
    26  H    4.297773   4.488003   2.999292   3.507149   4.476997
    27  H    4.556901   3.521592   3.164602   2.721486   3.469053
    28  O    6.072651   5.524718   5.533487   3.500696   3.943495
    29  H    4.875653   4.455448   4.813489   2.068319   2.551076
    30  H    6.404608   6.322169   6.067741   4.127178   4.622985
                   11         12         13         14         15
    11  O    0.000000
    12  C    2.397661   0.000000
    13  H    3.324487   1.102041   0.000000
    14  H    2.599781   1.101390   1.784603   0.000000
    15  O    2.856848   1.416684   2.094776   2.095142   0.000000
    16  H    3.697821   1.946948   2.371135   2.320569   0.968739
    17  O    2.339727   4.686496   5.552325   4.656414   5.145778
    18  O    3.178954   4.427653   4.730077   5.091755   4.949208
    19  H    3.382069   4.087995   4.175516   4.816775   4.742831
    20  O    3.143900   4.397759   4.811302   4.214022   5.522930
    21  H    2.967191   4.689397   5.284548   4.493065   5.636387
    22  O    3.582630   3.162001   2.813558   3.783653   4.220677
    23  H    4.358684   3.944119   3.488762   4.419554   5.100091
    24  O    2.669447   3.500655   4.354388   2.721581   4.187811
    25  H    3.153342   4.656363   5.634590   4.050519   5.040948
    26  H    2.860185   3.722241   4.421546   2.994704   4.660394
    27  H    1.700034   2.790614   3.743539   2.259241   3.402614
    28  O    3.472713   5.297223   6.321453   4.836340   5.526706
    29  H    2.528912   4.775820   5.749349   4.592596   5.089923
    30  H    4.274738   6.129421   7.115421   5.612891   6.452270
                   16         17         18         19         20
    16  H    0.000000
    17  O    5.956190   0.000000
    18  O    5.892921   3.579400   0.000000
    19  H    5.634128   4.213866   0.974386   0.000000
    20  O    6.224447   2.859031   3.713621   3.774424   0.000000
    21  H    6.375430   2.022794   3.756777   4.055486   0.988533
    22  O    4.900122   5.025650   2.898421   2.044208   3.639082
    23  H    5.718461   5.564162   3.460787   2.600012   3.724597
    24  O    4.561250   3.237990   5.509342   5.626653   3.305181
    25  H    5.484564   2.767526   5.871603   6.231675   3.930980
[...]
 .00086097,0.00049778,0.00008022,0.00024033,-0.00015264,-0.00012667,0.1
 4653702,0.37983027,0.00375831,-0.00154099,-0.00319934,-0.00095126,0.00
 013981,-0.00052299,-0.00037337,-0.00002788,-0.00122785,0.00106988,0.00
 026597,-0.00050363,-0.00012802,-0.00016109,0.00014528,0.00000039,-0.00
 005026,0.00022462,-0.00126888,0.00013477,0.00045544,-0.00036172,0.0000
 4114,0.00054789,-0.00162270,0.00350728,0.00076540,0.00010590,-0.000736
 07,-0.00038982,-0.00894685,-0.00630903,-0.00638526,-0.00035672,-0.0003
 9183,-0.00058052,-0.00013503,0.00022900,0.00010878,0.00005850,0.000609
 81,-0.00029343,-0.00010937,-0.00002228,0.00057144,0.00004443,0.0000065
 0,-0.00006867,-0.00081236,-0.00238721,-0.00036688,-0.00068925,-0.00030
 799,0.00033791,0.00014491,0.00003544,-0.00025086,0.00079044,0.00093775
 ,0.00249508,0.00045320,0.00072179,-0.00179572,-0.00012304,-0.00001507,
 0.00080439,-0.00005477,-0.00019091,-0.00006482,0.15901610,-0.15910434,
 0.47911113,-0.00085229,0.00028314,0.00021372,-0.00083522,-0.00028745,-
 0.00034832,-0.00035280,-0.00035158,-0.00018608,-0.00011440,0.00016048,
 -0.00022726,0.00001495,0.00020040,-0.00005019,0.00017960,0.00012538,0.
 00007093,0.00029218,0.00002135,0.00000306,-0.00013462,0.00005299,0.000
 17705,0.00214487,-0.00295209,-0.00114338,-0.00010893,0.00030564,0.0002
 3643,0.00110884,0.00207849,0.00207236,-0.00057055,0.00000518,-0.000959
 28,0.00019340,0.00002653,0.00013505,-0.00024751,0.00045375,0.00027643,
 0.00030535,-0.00034652,0.00059950,-0.00012664,0.00014210,-0.00014396,-
 0.00537629,-0.00169485,0.00187697,-0.00012461,0.00012918,0.00035955,-0
 .00007786,-0.00015939,-0.00016095,0.00079653,0.00180256,0.00087466,0.0
 0033902,-0.00137554,-0.00090671,0.00049206,0.00028996,0.00012146,-0.00
 008293,-0.00002604,0.00000063,0.00010643,0.00314370,-0.00849973,0.1368
 4128,-0.00041075,0.00011081,0.00015711,-0.00040286,-0.00004372,-0.0001
 3909,-0.00002919,0.00011256,0.00009997,-0.00012329,-0.00025630,-0.0000
 0280,-0.00000864,-0.00011418,0.00000184,0.00011310,0.00001308,-0.00002
 970,0.00007646,0.00000839,-0.00001594,0.00001443,-0.00001102,-0.000057
 52,-0.00279370,0.00126687,-0.00031494,0.00039156,-0.00016865,0.0001428
 1,0.00078073,-0.00122600,-0.00054407,0.00023920,0.00032278,-0.00002702
 ,-0.00003850,-0.00009104,-0.00001082,-0.00007354,0.00000628,-0.0000633
 7,-0.00023501,-0.00025270,0.00009105,0.00018432,-0.00001214,0.00000702
 ,0.00229894,0.00103024,0.00176146,0.00045055,0.00007524,0.00005853,-0.
 00006766,0.00006835,0.00004795,0.00062822,-0.00023908,-0.00024304,-0.0
 0109663,-0.00049037,0.00060188,0.00020186,-0.00012518,-0.00007845,-0.0
 0005910,0.00004026,0.00002969,0.00410387,-0.01048986,0.00114233,-0.060
 98559,0.05790050,-0.00014862,0.00019065,0.00041306,0.00078712,0.000183
 59,0.00044568,0.00033586,0.00023506,0.00034273,-0.00013877,-0.00029625
 ,0.00026036,0.00000261,-0.00015396,0.00001951,-0.00011744,-0.00007529,
 -0.00012778,-0.00001175,-0.00003467,-0.00006993,0.00014341,-0.00005809
 ,-0.00023450,-0.00320552,0.00178210,0.00013598,0.00024427,-0.00027171,
 -0.00010945,0.00044857,-0.00187061,-0.00267390,0.00046922,0.00005659,0
 .00104221,-0.00011418,-0.00008087,-0.00016463,0.00020268,-0.00043853,-
 0.00022866,-0.00004256,0.00029127,-0.00063368,0.00002086,-0.00008619,0
 .00012247,0.00466226,0.00274790,-0.00009242,0.00040449,0.00004525,-0.0
 0033315,0.00000842,0.00011443,0.00018209,-0.00071047,-0.00151642,-0.00
 125451,-0.00044441,0.00084710,0.00160063,-0.00024844,-0.00017611,-0.00
 026547,0.00005653,0.00005896,0.00001530,-0.00703893,-0.00093816,-0.002
 70568,-0.13343323,0.08551044,0.32587211,0.00018797,0.00018956,-0.00090
 734,-0.00216552,-0.00061500,-0.00063809,-0.00084714,-0.00054627,-0.001
 02893,0.00040735,0.00002269,-0.00043636,-0.00003309,0.00003121,0.00002
 972,0.00026766,0.00014184,0.00009097,-0.00010078,-0.00003753,0.0001416
 4,-0.00054699,0.00012528,0.00048815,0.00082171,-0.00020832,-0.00043156
 ,-0.00014788,0.00000959,0.00003199,-0.00098591,-0.00078301,0.00038873,
 -0.00026739,0.00039315,-0.00015510,-0.00006726,0.00000217,0.00001568,0
 .00045449,0.00004768,-0.00018446,-0.00005574,-0.00036652,0.00038470,0.
 00007143,0.00002136,-0.00000804,-0.00133221,-0.00053168,-0.00011355,0.
 00000288,0.00003228,0.00051687,-0.00006645,-0.00006351,-0.00020146,-0.
 00056402,0.00311609,0.00137601,0.00260069,0.00075576,0.00004043,0.0007
 5123,0.00022541,0.00044002,-0.00016010,-0.00007513,0.00003809,-0.05482
 458,-0.10573890,0.05530795,0.00240870,-0.00465891,-0.00038795,0.048740
 84,0.00041463,0.00028960,-0.00027407,-0.00451145,0.00098634,-0.0016217
 7,-0.00028880,0.00074991,0.00050937,0.00079517,-0.00012977,-0.00064942
 ,-0.00001970,-0.00009819,-0.00005472,0.00084075,0.00019140,0.00035550,
 -0.00007737,-0.00004712,-0.00001296,-0.00001030,0.00009363,-0.00022801
 ,-0.00096490,0.00121574,-0.00037886,0.00011695,-0.00026200,0.00003173,
 -0.00058975,-0.00168229,-0.00109425,0.00044208,0.00036674,0.00067892,-
 0.00011816,-0.00003474,-0.00005048,0.00006645,-0.00042475,-0.00003721,
 -0.00023949,-0.00012903,-0.00029334,0.00010018,-0.00008019,0.00007433,
 -0.00027056,-0.00082190,0.00117714,0.00033411,-0.00009577,0.00092345,-
 0.00022499,0.00015278,-0.00010519,0.00508430,-0.00047631,0.00262980,0.
 00034676,-0.00279771,-0.00319091,0.00064533,-0.00063347,-0.00001079,-0
 .00023371,0.00012418,0.00010692,-0.07974703,-0.32196808,0.22260875,-0.
 00357781,0.00146506,0.00236822,0.08201116,0.32284122,-0.00130656,0.000
 20501,-0.00001282,-0.00159464,-0.00012628,-0.00136670,-0.00031909,0.00
 001620,0.00043172,-0.00025309,-0.00026890,-0.00019936,0.00001863,-0.00
 000809,-0.00003307,0.00052000,0.00018053,0.00011782,0.00019855,0.00000
 908,-0.00001272,0.00004258,-0.00004519,-0.00000027,-0.00096157,-0.0004
 5374,-0.00109240,0.00012878,0.00003242,0.00019544,0.00101566,-0.000798
 25,0.00110603,0.00000626,0.00022749,-0.00005561,0.00009865,-0.00007216
 ,0.00001117,-0.00028437,-0.00000395,0.00011397,0.00004175,-0.00019167,
 0.00005666,-0.00000353,0.00001532,0.00000211,0.00027103,0.00068537,0.0
 0145753,0.00036019,0.00011303,0.00020536,-0.00011559,0.00001329,0.0000
 0784,0.00195184,0.00329338,-0.00058282,0.00005193,-0.00384809,-0.00103
 039,0.00043678,-0.00011134,-0.00016394,-0.00008839,0.00009742,0.000101
 83,0.02637852,0.17844933,-0.16630719,0.00018753,0.00163411,-0.00156346
 ,-0.03726957,-0.21664483,0.19346411,-0.00594299,-0.00062894,-0.0009104
 1,0.00126215,-0.00094951,0.00074595,-0.00055088,-0.00099948,0.00008174
 ,-0.00085044,0.00029165,0.00030566,0.00012609,0.00044798,-0.00011463,-
 0.00024274,0.00013891,-0.00015364,0.00062830,0.00005217,0.00011602,-0.
 00016260,-0.00001696,0.00015369,0.00821886,-0.00607627,0.00055668,-0.0
 0078157,0.00147763,0.00053315,-0.00550611,0.00649061,0.00299504,-0.001
 43963,0.00064017,-0.00226382,0.00055967,-0.00011411,0.00037430,-0.0008
 5684,0.00128325,0.00106834,0.00025160,-0.00079120,0.00114355,0.0000407
 4,0.00022219,-0.00014808,-0.00427969,-0.00142445,-0.00190156,-0.000132
 35,0.00031942,-0.00009355,-0.00005387,-0.00028535,-0.00007836,-0.00212
 263,-0.00044629,-0.00092984,0.00115411,0.00117613,0.00035764,0.0004503
 5,0.00073214,-0.00014559,0.00004142,-0.00000472,0.00002493,-0.17412186
 ,-0.03686808,-0.21067288,-0.01206475,-0.00010239,0.00048030,0.00713732
 ,-0.00303493,0.00964121,0.18437652,-0.00390283,0.00217997,0.00175671,-
 0.00175819,-0.00095125,-0.00060332,-0.00033494,-0.00006028,0.00019545,
 -0.00031788,-0.00055458,-0.00019883,0.00002348,0.00002089,-0.00004747,
 0.00031982,0.00010931,-0.00003389,0.00120851,-0.00024742,-0.00030828,-
 0.00006302,0.00014036,-0.00013518,-0.00076745,-0.00354640,-0.00266790,
 -0.00010653,0.00045775,0.00051531,0.00392846,-0.00249715,0.00055635,0.
 00186576,0.00159772,0.00213351,-0.00053845,-0.00053144,-0.00047260,0.0
 0086644,-0.00101161,-0.00136212,-0.00109226,-0.00044012,-0.00062340,0.
 00062099,-0.00027585,0.00019579,-0.00099025,0.00109096,0.00151221,0.00
 054257,0.00015845,0.00026162,-0.00016853,0.00003014,0.00001718,0.00104
 896,0.00212389,-0.00054319,0.00046685,-0.00232515,0.00033025,0.0007125
 2,-0.00015131,-0.00022693,-0.00010510,0.00011803,0.00008939,-0.0646088
 6,-0.05021770,-0.05719282,0.00017440,0.00250664,0.00016398,0.02430142,
 0.00172327,0.03834731,0.03702138,0.05152974,-0.00526081,0.00271309,0.0
 0478894,0.00198580,-0.00007331,0.00144420,0.00090300,-0.00007273,0.001
 43411,-0.00162025,0.00028019,0.00081545,0.00024011,0.00046322,-0.00027
 087,-0.00025925,-0.00001199,-0.00030005,0.00193341,-0.00025148,-0.0005
 8171,0.00030813,-0.00005937,-0.00072413,0.00575320,-0.00669379,-0.0020
 1676,-0.00042822,0.00107582,0.00047968,0.00135089,0.00396342,-0.003544
 86,0.00023463,0.00108661,0.00205766,-0.00006604,-0.00047899,-0.0003762
 3,0.00007848,-0.00096613,-0.00035528,0.00010101,0.00000227,-0.00106278
 ,0.00013430,-0.00006346,0.00007715,-0.00238509,0.00086647,-0.00120075,
 0.00050807,0.00031277,-0.00041673,-0.00013824,-0.00012228,0.00024507,-
 0.00184970,-0.00309904,-0.00196189,-0.00022167,0.00062761,0.00202496,0
 .00008562,0.00021939,-0.00103118,0.00013728,0.00019932,-0.00000048,-0.
 18348484,-0.01442327,-0.29187330,0.00043051,-0.00008062,0.00649305,-0.
 01956310,-0.00432756,-0.02436382,0.19886158,0.01988102,0.31384144,0.00
 157425,-0.00029642,-0.00049559,0.00072295,0.00017111,-0.00007279,0.000
 32108,0.00015129,-0.00007302,-0.00010652,0.00081959,-0.00025064,-0.000
 01150,0.00020636,-0.00005359,-0.00025840,-0.00010539,0.00013098,-0.000
 29309,-0.00005823,0.00001712,0.00000592,0.00001537,0.00000400,0.005017
 90,-0.00312011,0.00187615,-0.00062745,0.00011094,-0.00037308,-0.002367
 63,0.00098254,0.00041132,0.00014394,-0.00036809,0.00052175,-0.00015605
 ,0.00012028,-0.00004145,0.00008131,-0.00012577,-0.00013407,-0.00019824
 ,0.00046407,-0.00042612,0.00003749,-0.00011655,0.00011040,-0.01369107,
 -0.01593521,-0.00384575,-0.00132590,-0.00050153,-0.00011474,0.00015613
 ,-0.00004658,-0.00007355,-0.00097078,-0.00085318,0.00069863,0.00049020
 ,0.00093329,-0.00154440,-0.00069394,-0.00009168,0.00014631,0.00015382,
 -0.00004658,-0.00004598,-0.00807872,0.00069882,0.01271540,-0.11513594,
 0.05257213,0.15692266,-0.00156088,0.00165886,-0.00012723,0.00280544,-0
 .00045500,0.00011313,0.50490711,0.00080927,0.00016168,-0.00018861,0.00
 057974,-0.00006256,-0.00011786,0.00014452,-0.00026181,-0.00019836,-0.0
 0026898,0.00126112,-0.00053277,0.00003565,0.00043847,-0.00010272,-0.00
 022220,-0.00001100,0.00017110,-0.00003356,-0.00006871,0.00001293,-0.00
 007395,0.00006608,0.00013357,0.00689725,-0.00819331,0.00150740,-0.0009
 9939,0.00041437,-0.00039708,-0.00136854,0.00329610,0.00156011,-0.00048
 338,-0.00066402,0.00006077,0.00004286,0.00019592,0.00002007,0.00000336
 ,0.00011218,0.00009882,0.00037081,0.00048034,-0.00020022,-0.00026904,0
 .00000161,0.00002488,-0.02236410,-0.00769166,-0.00434946,-0.00175556,-
 0.00043158,0.00007956,0.00014856,-0.00027144,-0.00022206,-0.00101434,0
 .00053515,0.00121013,0.00155645,0.00017715,-0.00227756,-0.00043011,0.0
 0030871,0.00022150,0.00015172,-0.00008726,-0.00007326,0.00355367,0.006
 03661,-0.00370981,0.04982419,-0.04207911,-0.09126177,0.00189213,-0.001
 60985,-0.00099417,-0.00165446,-0.00152326,-0.00057043,-0.23503135,0.16
 075854,0.00007185,0.00000716,-0.00020966,-0.00072101,-0.00022061,-0.00
 052393,-0.00024888,-0.00021489,-0.00025729,-0.00000511,0.00042353,-0.0
 0037736,0.00001100,0.00022311,-0.00006086,0.00009720,0.00007198,0.0001
 4407,0.00008350,0.00001432,0.00004451,-0.00011441,0.00007007,0.0001954
 4,0.00332617,-0.00280651,0.00012458,-0.00001047,0.00028788,0.00013429,
 -0.00034865,0.00186895,0.00213804,-0.00047001,-0.00007719,-0.00082093,
 0.00009725,0.00007549,0.00013200,-0.00014378,0.00033273,0.00021285,0.0
 0012125,-0.00020301,0.00051884,-0.00007383,0.00007940,-0.00011395,-0.0
 0835520,-0.00515270,0.00466227,-0.00055977,-0.00007471,0.00038762,-0.0
 0000437,-0.00014626,-0.00020948,0.00058983,0.00121694,0.00145462,-0.00
 004284,-0.00089937,-0.00174572,0.00022670,0.00019355,0.00024293,-0.000
 03850,-0.00005326,-0.00002208,0.01571103,-0.00136357,-0.00812836,0.105
 46347,-0.06335675,-0.33624185,0.00037195,-0.00237786,0.00077154,-0.001
 82290,-0.00004396,-0.00343714,-0.03758717,0.03288007,0.43130467,-0.002
 70308,-0.00013124,0.00108534,-0.00065749,-0.00033627,0.00005190,-0.000
 19549,-0.00012543,0.00037049,-0.00308424,0.00172774,-0.00286436,0.0001
 6280,-0.00069639,-0.00003804,0.00024453,0.00011206,-0.00023124,0.00060
 213,0.00001043,-0.00007613,0.00010884,-0.00003875,-0.00019614,-0.03696
 666,-0.02181322,0.00367155,0.00228142,-0.00014535,0.00055290,0.0065717
 7,-0.00488196,-0.00269205,0.00071789,0.00089893,-0.00013948,0.00009161
 ,-0.00040785,-0.00008470,-0.00001860,-0.00011488,-0.00002331,-0.000140
 83,-0.00061603,0.00026702,0.00016151,0.00005536,-0.00007357,-0.1501787
 0,-0.13582205,0.01002207,0.00085264,-0.00018162,0.00049351,-0.00023829
 ,-0.00025762,0.00011283,0.00188697,0.00003944,-0.00270711,-0.00167502,
 -0.00057998,0.00556759,0.00083378,0.00008239,-0.00036943,-0.00014976,0
 .00011138,0.00007546,-0.00484944,-0.00117550,0.00101509,0.00891679,-0.
 00071329,-0.00535779,0.00039439,0.00079089,0.00059838,0.00193632,0.002
 00496,0.00237945,-0.00313256,0.01217817,0.00729762,0.18240622,-0.00050
 806,-0.00096159,0.00003187,-0.00070051,0.00017910,0.00039841,-0.000289
 26,0.00038497,0.00023504,0.00144582,-0.00276903,0.00108058,-0.00010080
 ,-0.00004119,0.00006805,0.00024715,0.00000738,-0.00032149,-0.00018851,
 0.00013881,0.00002374,0.00012126,-0.00010712,-0.00014787,0.00374755,0.
 01996521,-0.00422782,0.00179332,-0.00086336,0.00093207,0.00199114,-0.0
 0327083,-0.00184329,0.00064779,0.00068300,-0.00007777,-0.00004415,-0.0
 0022722,-0.00003397,0.00005473,-0.00018570,-0.00011697,-0.00039083,-0.
 00045038,0.00018682,0.00023102,-0.00001363,-0.00001900,-0.17405308,-0.
 26943729,0.04366567,0.00308027,0.00145646,0.00006323,-0.00022823,0.000
 43148,0.00032833,0.00155976,-0.00039911,-0.00273974,-0.00151427,-0.000
 57640,0.00443580,0.00041281,-0.00044803,-0.00027430,-0.00019976,0.0000
 8406,0.00010179,-0.00397146,-0.00091410,0.00224968,0.00250587,-0.00362
 959,-0.00632129,0.00031813,0.00100243,0.00017920,0.00315128,0.00057908
 ,-0.00046769,0.00754587,-0.00625321,0.00211771,0.15184622,0.25955858,0
 .00044621,0.00007569,-0.00043012,-0.00055894,-0.00001807,0.00047200,0.
 00016828,0.00015095,-0.00004709,-0.00093786,0.00095964,0.00091141,-0.0
 0016290,-0.00024289,0.00002049,0.00004145,-0.00000232,-0.00004405,-0.0
 0030628,0.00003293,0.00007036,0.00004929,-0.00002958,-0.00006291,-0.00
 685506,-0.01135984,0.00017220,-0.00066164,-0.00044414,0.00029796,-0.00
 031871,0.00066012,-0.00037680,0.00005400,-0.00004655,0.00036192,-0.000
 06555,0.00004855,-0.00004094,0.00004808,-0.00011876,-0.00010428,-0.000
 05361,0.00008539,-0.00023440,0.00004313,-0.00003659,0.00004819,0.02377
 741,0.05385873,-0.03057641,0.00009397,-0.00030718,-0.00032556,-0.00001
 477,0.00009437,0.00018099,0.00084893,-0.00128928,-0.00320365,0.0011169
 4,0.00305829,0.00377388,-0.00007984,-0.00018951,-0.00007336,-0.0000167
 1,0.00002328,0.00002266,-0.00187934,0.00175251,0.00165799,-0.00403060,
 -0.00661580,-0.00352350,0.00083118,0.00008009,-0.00097060,0.00225498,-
 0.00149523,-0.00028078,0.00575947,0.00431274,-0.00777002,-0.01788991,-
 0.04272166,0.04027212,-0.00019242,-0.00004710,0.00000654,-0.00027690,-
 0.00003290,-0.00009237,-0.00008206,0.00002259,0.00001844,-0.00006456,-
 0.00017414,-0.00000248,-0.00000535,-0.00003940,0.00000150,0.00007347,0
 .00002211,-0.00001220,0.00001663,0.00001431,0.00000684,-0.00000004,-0.
 00000073,-0.00000104,-0.00098481,0.00067842,-0.00017744,0.00017881,-0.
 00006365,0.00009662,0.00031019,-0.00028391,-0.00002284,0.00000625,0.00
 008271,-0.00009006,0.00001910,-0.00002382,0.00000591,-0.00002857,0.000
 02960,0.00002095,0.00001230,-0.00009393,0.00007882,-0.00000057,0.00001
 679,-0.00001859,0.00190404,-0.00053854,0.00056934,0.00025081,0.0000797
 4,0.00006781,-0.00004772,0.00001660,0.00000955,0.00042254,0.00008601,-
 0.00001454,-0.00046114,-0.00017698,0.00017508,0.00015811,-0.00002716,-
 0.00001336,-0.00004556,0.00001069,0.00001411,0.00083647,-0.00091842,0.
 00062544,-0.01793464,0.00974370,-0.01378920,-0.00052073,0.00026131,0.0
 0037536,0.00012004,0.00010276,-0.00026140,-0.36780890,0.18778061,-0.08
 292193,-0.00417942,0.00148892,-0.00170160,0.38832465,-0.00002505,-0.00
 004839,-0.00003086,-0.00016196,-0.00000825,-0.00007670,-0.00003373,0.0
 0004697,0.00001600,-0.00009982,-0.00003909,-0.00001528,-0.00001431,-0.
 00003347,-0.00000615,0.00003150,0.00000467,0.00000158,-0.00001021,0.00
 000726,0.00000347,0.00000298,-0.00000434,-0.00000735,-0.00027301,0.000
 43046,0.00004342,0.00010250,-0.00003378,0.00004595,0.00004966,-0.00020
 362,-0.00003246,0.00002566,0.00006472,-0.00002577,0.00000084,-0.000012
 41,0.00000420,-0.00000431,-0.00000240,-0.00000008,-0.00001735,-0.00006
 666,0.00003768,0.00002119,0.00000964,-0.00000562,-0.00029598,-0.003630
 77,0.00030934,0.00011074,-0.00000630,0.00004320,-0.00003450,0.00002205
 ,0.00000989,0.00025336,-0.00007693,0.00005811,-0.00037215,0.00004495,-
 0.00000033,0.00007665,-0.00005237,-0.00000941,-0.00002840,0.00001289,0
 .00001241,-0.00014037,-0.00000474,-0.00048244,0.01003158,-0.00569812,0
 .00898437,-0.00001215,0.00008887,0.00006819,-0.00004775,-0.00003267,0.
 00007093,0.19070117,-0.10503527,0.03712776,-0.00182057,0.00607722,-0.0
 0027588,-0.19801620,0.10817987,0.00012216,-0.00006443,-0.00002061,0.00
 016630,0.00003471,0.00008808,0.00002829,0.00000938,-0.00000644,-0.0000
 0515,0.00003357,0.00002424,-0.00000534,-0.00000845,0.00001239,-0.00003
 463,-0.00001455,-0.00000486,-0.00002910,-0.00000032,-0.00000060,0.0000
 0410,-0.00001139,-0.00000550,0.00025923,0.00019584,0.00010146,-0.00006
 123,0.00001844,-0.00004062,-0.00014705,-0.00008404,-0.00002853,0.00003
 686,-0.00002082,0.00004101,-0.00001059,0.00000540,-0.00000182,0.000017
 08,-0.00002193,-0.00002233,-0.00004466,0.00003750,-0.00004220,0.000018
 49,-0.00001241,0.00001726,-0.00015984,-0.00123715,-0.00007660,-0.00006
 248,-0.00003683,-0.00006996,0.00001275,0.00001020,0.00002034,-0.000229
 88,-0.00004313,-0.00013150,0.00020159,0.00009039,0.00010801,-0.0000860
 0,-0.00001565,-0.00000984,0.00001821,-0.00000053,0.00000129,0.00056802
 ,0.00078616,-0.00256105,0.03699038,-0.01970624,0.01327740,0.00083140,-
 0.00019198,-0.00028798,-0.00045948,-0.00000095,0.00009704,-0.13416817,
 0.06290252,-0.08254964,-0.00081799,0.00321488,-0.00019770,0.09704673,-
 0.04586817,0.07226924\\0.00001182,-0.00000912,-0.00004610,-0.00003325,
 -0.00001248,-0.00000171,-0.00000726,-0.00001830,0.00000400,0.00002896,
 0.00002314,0.00000937,-0.00000274,-0.00000100,0.00000400,0.00000097,-0
 .00000798,-0.00001107,0.00000298,-0.00000713,-0.00000788,0.00000455,-0
 .00000084,-0.00000523,-0.00010122,0.00007114,-0.00003273,0.00001678,-0
 .00001306,0.00000385,0.00000440,0.00003160,0.00002386,0.00000610,0.000
 00579,-0.00000551,-0.00000130,-0.00001429,-0.00000835,0.00000432,-0.00
 000139,-0.00000304,0.00000765,-0.00000422,0.00000153,-0.00000341,0.000
 00013,0.00000135,0.00001839,-0.00003012,0.00004768,-0.00001087,0.00000
 216,0.00000030,0.00000824,0.00000986,-0.00000234,0.00002401,0.00000298
 ,-0.00002764,0.00000678,0.00000683,0.00002190,0.00001536,-0.00001464,-
 0.00001905,-0.00000510,0.00000403,-0.00001232,0.00007555,-0.00001141,-
 0.00008264,0.00001912,0.00005549,0.00002209,-0.00003099,0.00003141,0.0
 0003163,-0.00004243,-0.00008193,0.00006918,-0.00005796,-0.00005483,0.0
 0004436,0.00003656,0.00002568,-0.00001753,0.00000400,0.00001251,-0.000
 00197\\\@


 THE UNDERLYING PHYSICAL LAWS NECESSARY FOR THE 
 MATHEMATICAL THEORY OF A LARGE PART OF PHYSICS AND THE
 WHOLE OF CHEMISTRY ARE THUS COMPLETELY KNOWN, AND THE
 DIFFICULTY IS ONLY THAT THE EXACT APPLICATION OF THESE
 LAWS LEADS TO EQUATIONS MUCH TOO COMPLICATED 
 TO BE SOLUBLE.

                                        -- P. A. M. DIRAC, 1929
 Job cpu time:       0 days  0 hours 34 minutes 10.7 seconds.
 File lengths (MBytes):  RWF=    221 Int=      0 D2E=      0 Chk=      6 Scr=      1
 Normal termination of Gaussian 09 at Sun Jan 15 22:06:09 2017.
