 Entering Gaussian System, Link 0=g09
 Initial command:
 /global/software/gaussian/g09.e01/l1.exe "/scratch/10464864.yak.local/Gau-30892.inp" -scrdir="/scratch/10464864.yak.local/"
 Entering Link 1 = /global/software/gaussian/g09.e01/l1.exe PID=     30893.
  
 Copyright (c) 1988,1990,1992,1993,1995,1998,2003,2009,2015,
            Gaussian, Inc.  All Rights Reserved.
  
 This is part of the Gaussian(R) 09 program.  It is based on
 the Gaussian(R) 03 system (copyright 2003, Gaussian, Inc.),
 the Gaussian(R) 98 system (copyright 1998, Gaussian, Inc.),
 the Gaussian(R) 94 system (copyright 1995, Gaussian, Inc.),
 the Gaussian 92(TM) system (copyright 1992, Gaussian, Inc.),
 the Gaussian 90(TM) system (copyright 1990, Gaussian, Inc.),
 the Gaussian 88(TM) system (copyright 1988, Gaussian, Inc.),
 the Gaussian 86(TM) system (copyright 1986, Carnegie Mellon
 University), and the Gaussian 82(TM) system (copyright 1983,
 Carnegie Mellon University). Gaussian is a federally registered
 trademark of Gaussian, Inc.
  
 This software contains proprietary and confidential information,
 including trade secrets, belonging to Gaussian, Inc.
  
 This software is provided under written license and may be
 used, copied, transmitted, or stored only in accord with that
 written license.
  
 The following legend is applicable only to US Government
 contracts under FAR:
  
                    RESTRICTED RIGHTS LEGEND
  
 Use, reproduction and disclosure by the US Government is
 subject to restrictions as set forth in subparagraphs (a)
 and (c) of the Commercial Computer Software - Restricted
 Rights clause in FAR 52.227-19.
  
 Gaussian, Inc.
 340 Quinnipiac St., Bldg. 40, Wallingford CT 06492
  
  
 ---------------------------------------------------------------
 Warning -- This program may not be used in any manner that
 competes with the business of Gaussian, Inc. or will provide
 assistance to any competitor of Gaussian, Inc.  The licensee
 of this program is prohibited from giving any competitor of
 Gaussian, Inc. access to this program.  By using this program,
 the user acknowledges that Gaussian, Inc. is engaged in the
 business of creating and licensing software in the field of
 computational chemistry and represents and warrants to the
 licensee that it is not a competitor of Gaussian, Inc. and that
 it will not use this program in any manner prohibited above.
 ---------------------------------------------------------------
  

 Cite this work as:
 Gaussian 09, Revision E.01,
 M. J. Frisch, G. W. Trucks, H. B. Schlegel, G. E. Scuseria, 
 M. A. Robb, J. R. Cheeseman, G. Scalmani, V. Barone, B. Mennucci, 
 G. A. Petersson, H. Nakatsuji, M. Caricato, X. Li, H. P. Hratchian, 
 A. F. Izmaylov, J. Bloino, G. Zheng, J. L. Sonnenberg, M. Hada, 
 M. Ehara, K. Toyota, R. Fukuda, J. Hasegawa, M. Ishida, T. Nakajima, 
 Y. Honda, O. Kitao, H. Nakai, T. Vreven, J. A. Montgomery, Jr., 
 J. E. Peralta, F. Ogliaro, M. Bearpark, J. J. Heyd, E. Brothers, 
 K. N. Kudin, V. N. Staroverov, T. Keith, R. Kobayashi, J. Normand, 
 K. Raghavachari, A. Rendell, J. C. Burant, S. S. Iyengar, J. Tomasi, 
 M. Cossi, N. Rega, J. M. Millam, M. Klene, J. E. Knox, J. B. Cross, 
 V. Bakken, C. Adamo, J. Jaramillo, R. Gomperts, R. E. Stratmann, 
 O. Yazyev, A. J. Austin, R. Cammi, C. Pomelli, J. W. Ochterski, 
 R. L. Martin, K. Morokuma, V. G. Zakrzewski, G. A. Voth, 
 P. Salvador, J. J. Dannenberg, S. Dapprich, A. D. Daniels, 
 O. Farkas, J. B. Foresman, J. V. Ortiz, J. Cioslowski, 
 and D. J. Fox, Gaussian, Inc., Wallingford CT, 2013.
 
 ******************************************
 Gaussian 09:  ES64L-G09RevE.01 30-Nov-2015
                15-Jan-2017 
 ******************************************
 -------------------------
 # b3lyp/6-31g(d) opt freq
 -------------------------
 1/14=-1,18=20,19=15,26=3,38=1/1,3;
 2/9=110,12=2,17=6,18=5,40=1/2;
 3/5=1,6=6,7=1,11=2,16=1,25=1,30=1,71=1,74=-5/1,2,3;
 4//1;
 5/5=2,38=5/2;
 6/7=2,8=2,9=2,10=2,28=1/1;
 7//1,2,3,16;
 1/14=-1,18=20,19=15,26=3/3(2);
 2/9=110/2;
 99//99;
 2/9=110/2;
 3/5=1,6=6,7=1,11=2,16=1,25=1,30=1,71=1,74=-5/1,2,3;
 4/5=5,16=3,69=1/1;
 5/5=2,38=5/2;
 7//1,2,3,16;
 1/14=-1,18=20,19=15,26=3/3(-5);
 2/9=110/2;
 6/7=2,8=2,9=2,10=2,19=2,28=1/1;
 99/9=1/99;
 ----------------------------------
 glo_1w_beta_ircr_boat6_B3LYP_631Gd
 ----------------------------------
 Symbolic Z-matrix:
 Charge =  0 Multiplicity = 1
 6                     0.87181   0.74519  -0.55771 
 6                    -1.42652  -0.38071  -0.554 
 6                    -0.57426   0.82245  -0.05687 
 6                    -0.58118  -1.5849   -1.02332 
 1                    -1.22132  -2.47883  -0.9903 
 1                    -2.04571  -0.02777  -1.38634 
 1                     0.89662   0.76983  -1.65065 
 1                    -0.54103   0.74522   1.04273 
 6                     0.566    -1.76151  -0.03934 
 1                     1.2685   -2.5478   -0.33393 
 8                     1.46487  -0.51244  -0.13949 
 6                     1.70221   1.91504  -0.03344 
 1                     1.22181   2.83432  -0.39178 
 1                     1.66722   1.93232   1.07125 
 8                     3.0323    1.77631  -0.50806 
 1                     3.51572   2.58283  -0.27478 
 8                     0.07324  -1.91444   1.23855 
 8                    -0.00702  -1.40478  -2.30986 
 1                    -0.73036  -1.38128  -2.95521 
 8                    -2.32861  -0.82627   0.47035 
 1                    -1.74691  -1.2687    1.12486 
 8                    -1.12087   2.06202  -0.4527 
 1                    -1.97033   2.15346   0.03964 
 8                     2.03667  -0.86674   2.1886 
 1                     0.8307   -1.6473    1.86186 
 1                     1.81162  -0.13363   2.78007 
 1                     2.04721  -0.49781   1.25688 
 8                    -3.41607   1.65184   1.03909 
 1                    -4.24196   1.72943   0.53835 
 1                    -3.19451   0.69233   1.00735 
 
 Add virtual bond connecting atoms O11        and H27        Dist= 2.86D+00.
 Add virtual bond connecting atoms H25        and O24        Dist= 2.78D+00.
 Add virtual bond connecting atoms O28        and H23        Dist= 3.45D+00.
 Add virtual bond connecting atoms H30        and O20        Dist= 3.46D+00.

 GradGradGradGradGradGradGradGradGradGradGradGradGradGradGradGradGradGrad
 Berny optimization.
 Initialization pass.
                           ----------------------------
                           !    Initial Parameters    !
                           ! (Angstroms and Degrees)  !
 --------------------------                            --------------------------
 ! Name  Definition              Value          Derivative Info.                !
 --------------------------------------------------------------------------------
 ! R1    R(1,3)                  1.5323         estimate D2E/DX2                !
 ! R2    R(1,7)                  1.0935         estimate D2E/DX2                !
 ! R3    R(1,11)                 1.452          estimate D2E/DX2                !
 ! R4    R(1,12)                 1.5274         estimate D2E/DX2                !
 ! R5    R(2,3)                  1.556          estimate D2E/DX2                !
 ! R6    R(2,4)                  1.5443         estimate D2E/DX2                !
 ! R7    R(2,6)                  1.0958         estimate D2E/DX2                !
 ! R8    R(2,20)                 1.4358         estimate D2E/DX2                !
 ! R9    R(3,8)                  1.1028         estimate D2E/DX2                !
 ! R10   R(3,22)                 1.4114         estimate D2E/DX2                !
 ! R11   R(4,5)                  1.1            estimate D2E/DX2                !
 ! R12   R(4,9)                  1.5217         estimate D2E/DX2                !
 ! R13   R(4,18)                 1.4203         estimate D2E/DX2                !
 ! R14   R(9,10)                 1.0948         estimate D2E/DX2                !
 ! R15   R(9,11)                 1.5421         estimate D2E/DX2                !
 ! R16   R(9,17)                 1.3781         estimate D2E/DX2                !
 ! R17   R(11,27)                1.513          estimate D2E/DX2                !
 ! R18   R(12,13)                1.0974         estimate D2E/DX2                !
 ! R19   R(12,14)                1.1054         estimate D2E/DX2                !
 ! R20   R(12,15)                1.419          estimate D2E/DX2                !
 ! R21   R(15,16)                0.9688         estimate D2E/DX2                !
 ! R22   R(17,25)                1.0167         estimate D2E/DX2                !
 ! R23   R(18,19)                0.9697         estimate D2E/DX2                !
 ! R24   R(20,21)                0.9811         estimate D2E/DX2                !
 ! R25   R(20,30)                1.8287         estimate D2E/DX2                !
 ! R26   R(22,23)                0.9861         estimate D2E/DX2                !
 ! R27   R(23,28)                1.8278         estimate D2E/DX2                !
 ! R28   R(24,25)                1.4732         estimate D2E/DX2                !
 ! R29   R(24,26)                0.9685         estimate D2E/DX2                !
 ! R30   R(24,27)                1.0022         estimate D2E/DX2                !
 ! R31   R(28,29)                0.9689         estimate D2E/DX2                !
 ! R32   R(28,30)                0.9853         estimate D2E/DX2                !
 ! A1    A(3,1,7)              110.3018         estimate D2E/DX2                !
 ! A2    A(3,1,11)             109.572          estimate D2E/DX2                !
 ! A3    A(3,1,12)             111.2392         estimate D2E/DX2                !
 ! A4    A(7,1,11)             107.3454         estimate D2E/DX2                !
 ! A5    A(7,1,12)             108.269          estimate D2E/DX2                !
 ! A6    A(11,1,12)            110.0269         estimate D2E/DX2                !
 ! A7    A(3,2,4)              113.5918         estimate D2E/DX2                !
 ! A8    A(3,2,6)              107.646          estimate D2E/DX2                !
 ! A9    A(3,2,20)             110.8639         estimate D2E/DX2                !
 ! A10   A(4,2,6)              109.2455         estimate D2E/DX2                !
 ! A11   A(4,2,20)             108.5871         estimate D2E/DX2                !
 ! A12   A(6,2,20)             106.6683         estimate D2E/DX2                !
 ! A13   A(1,3,2)              111.9312         estimate D2E/DX2                !
 ! A14   A(1,3,8)              107.094          estimate D2E/DX2                !
 ! A15   A(1,3,22)             108.5486         estimate D2E/DX2                !
 ! A16   A(2,3,8)              106.3148         estimate D2E/DX2                !
 ! A17   A(2,3,22)             112.1718         estimate D2E/DX2                !
 ! A18   A(8,3,22)             110.6597         estimate D2E/DX2                !
 ! A19   A(2,4,5)              107.8184         estimate D2E/DX2                !
 ! A20   A(2,4,9)              107.8578         estimate D2E/DX2                !
 ! A21   A(2,4,18)             113.4326         estimate D2E/DX2                !
 ! A22   A(5,4,9)              108.9658         estimate D2E/DX2                !
 ! A23   A(5,4,18)             111.4389         estimate D2E/DX2                !
 ! A24   A(9,4,18)             107.1999         estimate D2E/DX2                !
 ! A25   A(4,9,10)             113.1488         estimate D2E/DX2                !
 ! A26   A(4,9,11)             107.6634         estimate D2E/DX2                !
 ! A27   A(4,9,17)             110.0562         estimate D2E/DX2                !
 ! A28   A(10,9,11)            100.9664         estimate D2E/DX2                !
 ! A29   A(10,9,17)            113.5315         estimate D2E/DX2                !
 ! A30   A(11,9,17)            111.009          estimate D2E/DX2                !
 ! A31   A(1,11,9)             118.8279         estimate D2E/DX2                !
 ! A32   A(1,11,27)            114.498          estimate D2E/DX2                !
 ! A33   A(9,11,27)             99.9178         estimate D2E/DX2                !
 ! A34   A(1,12,13)            106.9486         estimate D2E/DX2                !
 ! A35   A(1,12,14)            109.7428         estimate D2E/DX2                !
 ! A36   A(1,12,15)            108.6573         estimate D2E/DX2                !
 ! A37   A(13,12,14)           107.4209         estimate D2E/DX2                !
 ! A38   A(13,12,15)           112.5197         estimate D2E/DX2                !
 ! A39   A(14,12,15)           111.4357         estimate D2E/DX2                !
 ! A40   A(12,15,16)           107.8052         estimate D2E/DX2                !
 ! A41   A(9,17,25)            105.8397         estimate D2E/DX2                !
 ! A42   A(4,18,19)            107.7206         estimate D2E/DX2                !
 ! A43   A(2,20,21)            104.0858         estimate D2E/DX2                !
 ! A44   A(2,20,30)            104.4353         estimate D2E/DX2                !
 ! A45   A(21,20,30)           117.343          estimate D2E/DX2                !
 ! A46   A(3,22,23)            105.9642         estimate D2E/DX2                !
 ! A47   A(22,23,28)           158.2768         estimate D2E/DX2                !
 ! A48   A(25,24,26)           110.2608         estimate D2E/DX2                !
 ! A49   A(25,24,27)            89.854          estimate D2E/DX2                !
 ! A50   A(26,24,27)           106.9517         estimate D2E/DX2                !
 ! A51   A(17,25,24)           152.2605         estimate D2E/DX2                !
 ! A52   A(11,27,24)           148.2594         estimate D2E/DX2                !
 ! A53   A(23,28,29)           111.6936         estimate D2E/DX2                !
 ! A54   A(23,28,30)            94.1162         estimate D2E/DX2                !
 ! A55   A(29,28,30)           104.6552         estimate D2E/DX2                !
 ! A56   A(20,30,28)           157.6128         estimate D2E/DX2                !
 ! D1    D(7,1,3,2)             61.2043         estimate D2E/DX2                !
 ! D2    D(7,1,3,8)            177.3492         estimate D2E/DX2                !
 ! D3    D(7,1,3,22)           -63.1434         estimate D2E/DX2                !
 ! D4    D(11,1,3,2)           -56.7586         estimate D2E/DX2                !
 ! D5    D(11,1,3,8)            59.3864         estimate D2E/DX2                !
 ! D6    D(11,1,3,22)          178.8937         estimate D2E/DX2                !
 ! D7    D(12,1,3,2)          -178.6378         estimate D2E/DX2                !
 ! D8    D(12,1,3,8)           -62.4929         estimate D2E/DX2                !
 ! D9    D(12,1,3,22)           57.0144         estimate D2E/DX2                !
 ! D10   D(3,1,11,9)            33.0377         estimate D2E/DX2                !
 ! D11   D(3,1,11,27)          -84.7924         estimate D2E/DX2                !
 ! D12   D(7,1,11,9)           -86.7528         estimate D2E/DX2                !
 ! D13   D(7,1,11,27)          155.4171         estimate D2E/DX2                !
 ! D14   D(12,1,11,9)          155.6407         estimate D2E/DX2                !
 ! D15   D(12,1,11,27)          37.8106         estimate D2E/DX2                !
 ! D16   D(3,1,12,13)          -59.3715         estimate D2E/DX2                !
 ! D17   D(3,1,12,14)           56.8538         estimate D2E/DX2                !
 ! D18   D(3,1,12,15)          178.9267         estimate D2E/DX2                !
 ! D19   D(7,1,12,13)           61.9817         estimate D2E/DX2                !
 ! D20   D(7,1,12,14)          178.2071         estimate D2E/DX2                !
 ! D21   D(7,1,12,15)          -59.7201         estimate D2E/DX2                !
 ! D22   D(11,1,12,13)         179.0139         estimate D2E/DX2                !
 ! D23   D(11,1,12,14)         -64.7608         estimate D2E/DX2                !
 ! D24   D(11,1,12,15)          57.3121         estimate D2E/DX2                !
 ! D25   D(4,2,3,1)             18.8082         estimate D2E/DX2                !
 ! D26   D(4,2,3,8)            -97.8082         estimate D2E/DX2                !
 ! D27   D(4,2,3,22)           141.1105         estimate D2E/DX2                !
 ! D28   D(6,2,3,1)           -102.2802         estimate D2E/DX2                !
 ! D29   D(6,2,3,8)            141.1034         estimate D2E/DX2                !
 ! D30   D(6,2,3,22)            20.0221         estimate D2E/DX2                !
 ! D31   D(20,2,3,1)           141.4016         estimate D2E/DX2                !
 ! D32   D(20,2,3,8)            24.7852         estimate D2E/DX2                !
 ! D33   D(20,2,3,22)          -96.2961         estimate D2E/DX2                !
 ! D34   D(3,2,4,5)            159.1063         estimate D2E/DX2                !
 ! D35   D(3,2,4,9)             41.5762         estimate D2E/DX2                !
 ! D36   D(3,2,4,18)           -76.994          estimate D2E/DX2                !
 ! D37   D(6,2,4,5)            -80.7061         estimate D2E/DX2                !
 ! D38   D(6,2,4,9)            161.7638         estimate D2E/DX2                !
 ! D39   D(6,2,4,18)            43.1936         estimate D2E/DX2                !
 ! D40   D(20,2,4,5)            35.266          estimate D2E/DX2                !
 ! D41   D(20,2,4,9)           -82.264          estimate D2E/DX2                !
 ! D42   D(20,2,4,18)          159.1657         estimate D2E/DX2                !
 ! D43   D(3,2,20,21)          -72.278          estimate D2E/DX2                !
 ! D44   D(3,2,20,30)           51.3352         estimate D2E/DX2                !
 ! D45   D(4,2,20,21)           53.1756         estimate D2E/DX2                !
 ! D46   D(4,2,20,30)          176.7888         estimate D2E/DX2                !
 ! D47   D(6,2,20,21)          170.8015         estimate D2E/DX2                !
 ! D48   D(6,2,20,30)          -65.5853         estimate D2E/DX2                !
 ! D49   D(1,3,22,23)         -168.5533         estimate D2E/DX2                !
 ! D50   D(2,3,22,23)           67.242          estimate D2E/DX2                !
 ! D51   D(8,3,22,23)          -51.3033         estimate D2E/DX2                !
 ! D52   D(2,4,9,10)          -175.511          estimate D2E/DX2                !
 ! D53   D(2,4,9,11)           -64.8234         estimate D2E/DX2                !
 ! D54   D(2,4,9,17)            56.2944         estimate D2E/DX2                !
 ! D55   D(5,4,9,10)            67.7026         estimate D2E/DX2                !
 ! D56   D(5,4,9,11)           178.3902         estimate D2E/DX2                !
 ! D57   D(5,4,9,17)           -60.492          estimate D2E/DX2                !
 ! D58   D(18,4,9,10)          -53.0254         estimate D2E/DX2                !
 ! D59   D(18,4,9,11)           57.6622         estimate D2E/DX2                !
 ! D60   D(18,4,9,17)          178.78           estimate D2E/DX2                !
 ! D61   D(2,4,18,19)          -66.6786         estimate D2E/DX2                !
 ! D62   D(5,4,18,19)           55.2248         estimate D2E/DX2                !
 ! D63   D(9,4,18,19)          174.3725         estimate D2E/DX2                !
 ! D64   D(4,9,11,1)            27.4154         estimate D2E/DX2                !
 ! D65   D(4,9,11,27)          152.6366         estimate D2E/DX2                !
 ! D66   D(10,9,11,1)          146.2282         estimate D2E/DX2                !
 ! D67   D(10,9,11,27)         -88.5507         estimate D2E/DX2                !
 ! D68   D(17,9,11,1)          -93.1042         estimate D2E/DX2                !
 ! D69   D(17,9,11,27)          32.117          estimate D2E/DX2                !
 ! D70   D(4,9,17,25)         -157.3583         estimate D2E/DX2                !
 ! D71   D(10,9,17,25)          74.6579         estimate D2E/DX2                !
 ! D72   D(11,9,17,25)         -38.2657         estimate D2E/DX2                !
 ! D73   D(1,11,27,24)         118.6751         estimate D2E/DX2                !
 ! D74   D(9,11,27,24)          -9.4657         estimate D2E/DX2                !
 ! D75   D(1,12,15,16)         172.1973         estimate D2E/DX2                !
 ! D76   D(13,12,15,16)         53.9632         estimate D2E/DX2                !
 ! D77   D(14,12,15,16)        -66.7654         estimate D2E/DX2                !
 ! D78   D(9,17,25,24)          30.0968         estimate D2E/DX2                !
 ! D79   D(2,20,30,28)          -2.661          estimate D2E/DX2                !
 ! D80   D(21,20,30,28)        111.9229         estimate D2E/DX2                !
 ! D81   D(3,22,23,28)         -15.1049         estimate D2E/DX2                !
 ! D82   D(22,23,28,29)       -114.0704         estimate D2E/DX2                !
 ! D83   D(22,23,28,30)         -6.5155         estimate D2E/DX2                !
 ! D84   D(26,24,25,17)        102.3905         estimate D2E/DX2                !
 ! D85   D(27,24,25,17)         -5.6601         estimate D2E/DX2                !
 ! D86   D(25,24,27,11)         -6.477          estimate D2E/DX2                !
 ! D87   D(26,24,27,11)       -117.6538         estimate D2E/DX2                !
 ! D88   D(23,28,30,20)        -10.4567         estimate D2E/DX2                !
 ! D89   D(29,28,30,20)        103.2391         estimate D2E/DX2                !
 --------------------------------------------------------------------------------
 Trust Radius=3.00D-01 FncErr=1.00D-07 GrdErr=1.00D-06
 Number of steps in this run=    180 maximum allowed number of steps=    180.
 GradGradGradGradGradGradGradGradGradGradGradGradGradGradGradGradGradGrad

                          Input orientation:                          
 ---------------------------------------------------------------------
 Center     Atomic      Atomic             Coordinates (Angstroms)
 Number     Number       Type             X           Y           Z
 ---------------------------------------------------------------------
      1          6           0        0.871809    0.745192   -0.557709
      2          6           0       -1.426518   -0.380705   -0.553999
      3          6           0       -0.574258    0.822454   -0.056871
      4          6           0       -0.581176   -1.584899   -1.023323
      5          1           0       -1.221324   -2.478826   -0.990303
      6          1           0       -2.045712   -0.027768   -1.386339
      7          1           0        0.896620    0.769828   -1.650652
      8          1           0       -0.541032    0.745220    1.042726
      9          6           0        0.565996   -1.761508   -0.039339
     10          1           0        1.268500   -2.547800   -0.333927
     11          8           0        1.464866   -0.512435   -0.139493
     12          6           0        1.702205    1.915036   -0.033436
     13          1           0        1.221808    2.834317   -0.391783
     14          1           0        1.667220    1.932317    1.071246
     15          8           0        3.032302    1.776305   -0.508063
     16          1           0        3.515723    2.582825   -0.274775
     17          8           0        0.073238   -1.914437    1.238550
     18          8           0       -0.007020   -1.404776   -2.309856
     19          1           0       -0.730360   -1.381283   -2.955212
     20          8           0       -2.328614   -0.826271    0.470345
     21          1           0       -1.746911   -1.268695    1.124864
     22          8           0       -1.120867    2.062023   -0.452701
     23          1           0       -1.970327    2.153456    0.039643
     24          8           0        2.036675   -0.866741    2.188605
     25          1           0        0.830696   -1.647304    1.861857
     26          1           0        1.811620   -0.133633    2.780065
     27          1           0        2.047208   -0.497808    1.256876
     28          8           0       -3.416072    1.651842    1.039091
     29          1           0       -4.241958    1.729425    0.538346
     30          1           0       -3.194510    0.692328    1.007353
 ---------------------------------------------------------------------
                    Distance matrix (angstroms):
                    1          2          3          4          5
     1  C    0.000000
     2  C    2.559290   0.000000
     3  C    1.532292   1.555980   0.000000
     4  C    2.785190   1.544329   2.594114   0.000000
     5  H    3.868157   2.152807   3.491195   1.099993   0.000000
     6  H    3.129860   1.095790   2.157670   2.168249   2.616132
     7  H    1.093502   2.814844   2.169421   2.849941   3.933891
     8  H    2.134833   2.145070   1.102807   3.114422   3.871754
     9  C    2.577940   2.478226   2.824420   1.521650   2.147880
    10  H    3.324340   3.465235   3.851120   2.196303   2.575813
    11  O    1.451980   2.923913   2.438602   2.473383   3.436013
    12  C    1.527401   3.915395   2.525187   4.294561   5.363641
    13  H    2.124729   4.168490   2.717648   4.814464   5.878487
    14  H    2.166896   4.190788   2.743842   4.670472   5.661436
    15  O    2.394450   4.953370   3.757749   4.961896   6.035895
    16  H    3.232217   5.769421   4.458064   5.891929   6.969355
    17  O    3.307248   2.795502   3.096440   2.377588   2.638600
    18  O    2.909420   2.479260   3.218424   1.420305   2.090296
    19  H    3.582857   2.692883   3.644339   1.948310   2.303587
    20  O    3.710674   1.435823   2.464552   2.420764   2.467898
    21  H    3.707356   1.926073   2.672923   2.464474   2.492908
    22  O    2.390780   2.463860   1.411380   3.730538   4.573666
    23  H    3.227658   2.658968   1.931292   4.127340   4.804147
    24  O    3.390794   4.444301   3.835689   4.205398   4.828958
    25  H    3.402944   3.540572   3.428574   3.212715   3.610683
    26  H    3.577194   4.654306   3.828149   4.722013   5.377207
    27  H    2.493859   3.919152   3.215759   3.645473   4.433683
    28  O    4.664516   3.259986   3.156727   4.771444   5.098802
    29  H    5.321716   3.684097   3.824775   5.179274   5.400960
    30  H    4.357426   2.591335   2.831117   4.017328   4.235600
                    6          7          8          9         10
     6  H    0.000000
     7  H    3.059957   0.000000
     8  H    2.960056   3.053151   0.000000
     9  C    3.411932   3.018825   2.946194   0.000000
    10  H    4.294431   3.588693   4.001695   1.094783   0.000000
    11  O    3.756818   2.061723   2.646312   1.542135   2.054039
    12  C    4.433026   2.139125   2.749310   3.848114   4.493918
    13  H    4.456160   2.439798   3.087029   4.655740   5.382630
    14  H    4.864928   3.058420   2.507267   4.011289   4.712211
    15  O    5.460062   2.622907   4.029491   4.338028   4.673244
    16  H    6.243423   3.469827   4.644337   5.256382   5.601502
    17  O    3.865166   4.028737   2.736686   1.378114   2.074243
    18  O    2.627794   2.445407   4.018390   2.368724   2.614909
    19  H    2.454285   2.996034   4.532259   3.213631   3.496761
    20  O    2.040813   4.177116   2.447990   3.084350   4.068138
    21  H    2.816970   4.341350   2.348775   2.635863   3.585650
    22  O    2.468652   2.678639   2.075206   4.199496   5.193616
    23  H    2.607076   3.604290   2.243254   4.665417   5.721133
    24  O    5.490900   4.326428   3.249005   2.815535   3.127174
    25  H    4.631133   4.264340   2.876940   1.922929   2.413303
    26  H    5.678833   4.613537   3.053801   3.485770   3.977452
    27  H    4.894846   3.374088   2.879230   2.339038   2.709153
    28  O    3.252951   5.158680   3.014603   5.354515   6.439518
    29  H    3.408172   5.667232   3.862630   5.969653   7.029983
    30  H    2.751006   4.879379   2.654241   4.610670   5.675907
                   11         12         13         14         15
    11  O    0.000000
    12  C    2.441351   0.000000
    13  H    3.365037   1.097393   0.000000
    14  H    2.735626   1.105371   1.775514   0.000000
    15  O    2.798398   1.419040   2.100190   2.093324   0.000000
    16  H    3.715501   1.947571   2.310624   2.377372   0.968810
    17  O    2.408576   4.351591   5.150521   4.167288   5.042647
    18  O    2.770054   4.373178   4.812373   5.036975   4.754284
    19  H    3.674532   5.031885   5.305979   5.739399   5.487853
    20  O    3.854982   4.900618   5.171911   4.892605   6.039048
    21  H    3.533559   4.834687   5.286607   4.680346   5.897402
    22  O    3.662233   2.857818   2.467443   3.180042   4.163354
    23  H    4.351967   3.680988   3.292328   3.787460   5.046635
    24  O    2.423332   3.575978   4.584784   3.036398   3.904995
    25  H    2.386525   4.128187   5.031579   3.760123   4.710062
    26  H    2.964380   3.482069   4.383746   2.684970   3.993709
    27  H    1.513004   2.757852   3.808204   2.466649   3.042533
    28  O    5.467788   5.236062   4.995556   5.091125   6.632549
    29  H    6.168731   5.974484   5.651430   5.936626   7.349288
    30  H    4.947372   5.153259   5.103877   5.017776   6.499591
                   16         17         18         19         20
    16  H    0.000000
    17  O    5.862271   0.000000
    18  O    5.696686   3.585719   0.000000
    19  H    6.397509   4.303215   0.969669   0.000000
    20  O    6.806865   2.746477   3.667967   3.820588   0.000000
    21  H    6.669971   1.934645   3.852667   4.206313   0.981077
    22  O    4.669139   4.483130   4.087588   4.274507   3.263879
    23  H    5.511802   4.707578   4.694224   4.795941   3.031938
    24  O    4.489469   2.419784   4.970143   5.863454   4.691461
    25  H    5.446885   1.016668   4.261898   5.070682   3.548470
    26  H    4.428900   2.927371   5.552527   6.396225   4.791252
    27  H    3.740694   2.429759   4.214739   5.122216   4.458064
    28  O    7.116372   4.993337   5.672741   5.689231   2.765336
    29  H    7.846724   5.691128   5.989171   5.849169   3.193288
    30  H    7.088375   4.186508   5.055869   5.106253   1.828742
                   21         22         23         24         25
    21  H    0.000000
    22  O    3.738225   0.000000
    23  H    3.597046   0.986076   0.000000
    24  O    3.950776   5.052151   5.458543   0.000000
    25  H    2.707501   4.787994   5.060827   1.473237   0.000000
    26  H    4.085486   4.885812   5.200367   0.968464   2.023986
    27  H    3.873891   4.417249   4.965022   1.002168   1.779675
    28  O    3.364965   2.767970   1.827756   6.115316   5.440252
    29  H    3.944361   3.291505   2.364067   6.991757   6.235848
    30  H    2.440279   2.882328   2.137752   5.584922   4.733533
                   26         27         28         29         30
    26  H    0.000000
    27  H    1.583739   0.000000
    28  O    5.792035   5.875019   0.000000
    29  H    6.718787   6.710474   0.968944   0.000000
    30  H    5.374575   5.380919   0.985274   1.546831   0.000000
 Stoichiometry    C6H16O8
 Framework group  C1[X(C6H16O8)]
 Deg. of freedom    84
 Full point group                 C1      NOp   1
 Largest Abelian subgroup         C1      NOp   1
 Largest concise Abelian subgroup C1      NOp   1
                         Standard orientation:                         
 ---------------------------------------------------------------------
 Center     Atomic      Atomic             Coordinates (Angstroms)
 Number     Number       Type             X           Y           Z
 ---------------------------------------------------------------------
      1          6           0       -0.880605    0.731784    0.570216
      2          6           0        1.416260   -0.397083    0.564234
      3          6           0        0.564965    0.806976    0.067631
      4          6           0        0.569922   -1.599994    1.035049
      5          1           0        1.208875   -2.494761    1.001631
      6          1           0        2.036897   -0.044610    1.395696
      7          1           0       -0.904086    0.756893    1.663178
      8          1           0        0.530334    0.729341   -1.031894
      9          6           0       -0.578645   -1.775518    0.052499
     10          1           0       -1.281814   -2.560783    0.348239
     11          8           0       -1.475782   -0.525244    0.153214
     12          6           0       -1.710111    1.902488    0.046456
     13          1           0       -1.228102    2.821293    0.403860
     14          1           0       -1.676416    1.919278   -1.058274
     15          8           0       -3.039822    1.765667    0.522717
     16          1           0       -3.522477    2.572717    0.289676
     17          8           0       -0.087603   -1.929599   -1.225912
     18          8           0       -0.002473   -1.418610    2.322190
     19          1           0        0.721662   -1.395791    2.966677
     20          8           0        2.316563   -0.844227   -0.460999
     21          1           0        1.733512   -1.286163   -1.114648
     22          8           0        1.113644    2.045997    0.462310
     23          1           0        1.962636    2.136134   -0.031079
     24          8           0       -2.050812   -0.879750   -2.174060
     25          1           0       -0.845455   -1.661739   -1.848428
     26          1           0       -1.825513   -0.147173   -2.766084
     27          1           0       -2.059762   -0.510428   -1.242469
     28          8           0        3.406544    1.632249   -1.032039
     29          1           0        4.233124    1.708967   -0.532306
     30          1           0        3.183781    0.673035   -0.999650
 ---------------------------------------------------------------------
 Rotational constants (GHZ):      0.6999231      0.5272958      0.4411768
 Standard basis: 6-31G(d) (6D, 7F)
 There are   242 symmetry adapted cartesian basis functions of A   symmetry.
 There are   242 symmetry adapted basis functions of A   symmetry.
   242 basis functions,   456 primitive gaussians,   242 cartesian basis functions
    58 alpha electrons       58 beta electrons
       nuclear repulsion energy      1130.2566444031 Hartrees.
 NAtoms=   30 NActive=   30 NUniq=   30 SFac= 1.00D+00 NAtFMM=   60 NAOKFM=F Big=F
 Integral buffers will be    131072 words long.
 Raffenetti 2 integral format.
 Two-electron integral symmetry is turned on.
 One-electron integrals computed using PRISM.
 NBasis=   242 RedAO= T EigKep=  1.26D-03  NBF=   242
 NBsUse=   242 1.00D-06 EigRej= -1.00D+00 NBFU=   242
 ExpMin= 1.61D-01 ExpMax= 5.48D+03 ExpMxC= 8.25D+02 IAcc=1 IRadAn=         1 AccDes= 0.00D+00
 Harris functional with IExCor=  402 and IRadAn=       1 diagonalized for initial guess.
 HarFok:  IExCor=  402 AccDes= 0.00D+00 IRadAn=         1 IDoV= 1 UseB2=F ITyADJ=14
 ICtDFT=  3500011 ScaDFX=  1.000000  1.000000  1.000000  1.000000
 FoFCou: FMM=F IPFlag=           0 FMFlag=      100000 FMFlg1=           0
         NFxFlg=           0 DoJE=T BraDBF=F KetDBF=T FulRan=T
         wScrn=  0.000000 ICntrl=     500 IOpCl=  0 I1Cent=   200000004 NGrid=           0
         NMat0=    1 NMatS0=      1 NMatT0=    0 NMatD0=    1 NMtDS0=    0 NMtDT0=    0
 Petite list used in FoFCou.
 Requested convergence on RMS density matrix=1.00D-08 within 128 cycles.
 Requested convergence on MAX density matrix=1.00D-06.
 Requested convergence on             energy=1.00D-06.
 No special actions if energy rises.
 Integral accuracy reduced to 1.0D-05 until final iterations.
 Initial convergence to 1.0D-05 achieved.  Increase integral accuracy.
 SCF Done:  E(RB3LYP) =  -839.979023751     A.U. after   14 cycles
            NFock= 14  Conv=0.42D-08     -V/T= 2.0085

 **********************************************************************

            Population analysis using the SCF density.

 **********************************************************************

 Orbital symmetries:
       Occupied  (A) (A) (A) (A) (A) (A) (A) (A) (A) (A) (A) (A)
                 (A) (A) (A) (A) (A) (A) (A) (A) (A) (A) (A) (A)
                 (A) (A) (A) (A) (A) (A) (A) (A) (A) (A) (A) (A)
                 (A) (A) (A) (A) (A) (A) (A) (A) (A) (A) (A) (A)
                 (A) (A) (A) (A) (A) (A) (A) (A) (A) (A)
       Virtual   (A) (A) (A) (A) (A) (A) (A) (A) (A) (A) (A) (A)
                 (A) (A) (A) (A) (A) (A) (A) (A) (A) (A) (A) (A)
                 (A) (A) (A) (A) (A) (A) (A) (A) (A) (A) (A) (A)
                 (A) (A) (A) (A) (A) (A) (A) (A) (A) (A) (A) (A)
                 (A) (A) (A) (A) (A) (A) (A) (A) (A) (A) (A) (A)
                 (A) (A) (A) (A) (A) (A) (A) (A) (A) (A) (A) (A)
                 (A) (A) (A) (A) (A) (A) (A) (A) (A) (A) (A) (A)
                 (A) (A) (A) (A) (A) (A) (A) (A) (A) (A) (A) (A)
                 (A) (A) (A) (A) (A) (A) (A) (A) (A) (A) (A) (A)
                 (A) (A) (A) (A) (A) (A) (A) (A) (A) (A) (A) (A)
                 (A) (A) (A) (A) (A) (A) (A) (A) (A) (A) (A) (A)
                 (A) (A) (A) (A) (A) (A) (A) (A) (A) (A) (A) (A)
                 (A) (A) (A) (A) (A) (A) (A) (A) (A) (A) (A) (A)
                 (A) (A) (A) (A) (A) (A) (A) (A) (A) (A) (A) (A)
                 (A) (A) (A) (A) (A) (A) (A) (A) (A) (A) (A) (A)
                 (A) (A) (A) (A)
 The electronic state is 1-A.
 Alpha  occ. eigenvalues --  -19.16494 -19.16487 -19.16264 -19.15011 -19.14969
 Alpha  occ. eigenvalues --  -19.14903 -19.14492 -19.12942 -10.29755 -10.25250
 Alpha  occ. eigenvalues --  -10.24584 -10.23817 -10.23774 -10.23456  -1.07392
 Alpha  occ. eigenvalues --   -1.04098  -1.03369  -1.02180  -1.01126  -1.00548
 Alpha  occ. eigenvalues --   -1.00196  -0.99404  -0.77620  -0.76867  -0.69627
 Alpha  occ. eigenvalues --   -0.64479  -0.62315  -0.57423  -0.56197  -0.54713
 Alpha  occ. eigenvalues --   -0.53642  -0.52422  -0.51798  -0.50825  -0.49868
 Alpha  occ. eigenvalues --   -0.47479  -0.46345  -0.45366  -0.43655  -0.41514
 Alpha  occ. eigenvalues --   -0.41150  -0.40790  -0.40198  -0.39524  -0.38297
 Alpha  occ. eigenvalues --   -0.37540  -0.36196  -0.34718  -0.34117  -0.31916
 Alpha  occ. eigenvalues --   -0.31098  -0.30280  -0.29447  -0.28701  -0.28265
 Alpha  occ. eigenvalues --   -0.27222  -0.26846  -0.24893
 Alpha virt. eigenvalues --    0.04869   0.05345   0.06700   0.06890   0.09220
 Alpha virt. eigenvalues --    0.10900   0.12553   0.13072   0.14047   0.15044
 Alpha virt. eigenvalues --    0.15831   0.16727   0.17516   0.18143   0.19110
 Alpha virt. eigenvalues --    0.20309   0.21627   0.22780   0.22950   0.24198
 Alpha virt. eigenvalues --    0.24456   0.26002   0.26259   0.27685   0.30602
 Alpha virt. eigenvalues --    0.31681   0.32450   0.34236   0.52223   0.53029
 Alpha virt. eigenvalues --    0.53267   0.55705   0.56545   0.58130   0.59673
 Alpha virt. eigenvalues --    0.60975   0.61855   0.63875   0.64969   0.66316
 Alpha virt. eigenvalues --    0.67398   0.69287   0.70578   0.71980   0.75421
 Alpha virt. eigenvalues --    0.76026   0.77445   0.79237   0.79571   0.81176
 Alpha virt. eigenvalues --    0.81998   0.82532   0.83513   0.84092   0.84796
 Alpha virt. eigenvalues --    0.87025   0.87818   0.88068   0.88812   0.90249
 Alpha virt. eigenvalues --    0.90892   0.91595   0.92992   0.94185   0.96323
 Alpha virt. eigenvalues --    0.97504   0.99236   1.00185   1.00717   1.01945
 Alpha virt. eigenvalues --    1.03775   1.06227   1.07809   1.08557   1.10344
 Alpha virt. eigenvalues --    1.11407   1.13314   1.13394   1.14509   1.15820
 Alpha virt. eigenvalues --    1.19931   1.21907   1.23453   1.24924   1.26643
 Alpha virt. eigenvalues --    1.29981   1.31224   1.34197   1.37107   1.40194
 Alpha virt. eigenvalues --    1.41666   1.43250   1.44663   1.45638   1.48248
 Alpha virt. eigenvalues --    1.51827   1.53520   1.55945   1.57715   1.59727
 Alpha virt. eigenvalues --    1.60353   1.63358   1.63688   1.67165   1.68389
 Alpha virt. eigenvalues --    1.71129   1.71604   1.72071   1.72228   1.74905
 Alpha virt. eigenvalues --    1.76293   1.77262   1.78050   1.78847   1.79509
 Alpha virt. eigenvalues --    1.82087   1.82868   1.84218   1.86593   1.88431
 Alpha virt. eigenvalues --    1.89735   1.91457   1.93148   1.93982   1.96152
 Alpha virt. eigenvalues --    1.98192   1.98681   2.01085   2.03174   2.04847
 Alpha virt. eigenvalues --    2.06369   2.09127   2.11766   2.12396   2.13816
 Alpha virt. eigenvalues --    2.17340   2.17809   2.24207   2.27503   2.31099
 Alpha virt. eigenvalues --    2.32588   2.33836   2.35358   2.38261   2.40211
 Alpha virt. eigenvalues --    2.43285   2.45905   2.46869   2.47195   2.51550
 Alpha virt. eigenvalues --    2.53008   2.54756   2.55997   2.57058   2.59672
 Alpha virt. eigenvalues --    2.61296   2.63936   2.67033   2.69140   2.72169
 Alpha virt. eigenvalues --    2.74165   2.74844   2.83310   2.90748   2.92703
 Alpha virt. eigenvalues --    2.95700   2.96729   2.98439   3.04004   3.11399
 Alpha virt. eigenvalues --    3.72926   3.77432   3.77725   3.82664   3.88623
 Alpha virt. eigenvalues --    4.00145   4.05912   4.12019   4.27744   4.35188
 Alpha virt. eigenvalues --    4.47011   4.55630   4.72101   4.87387
          Condensed to atoms (all electrons):
               1          2          3          4          5          6
     1  C    4.943480  -0.037261   0.292273  -0.001496   0.000303  -0.000516
     2  C   -0.037261   5.108642   0.318723   0.266776  -0.056541   0.349524
     3  C    0.292273   0.318723   4.978313  -0.035077   0.005305  -0.047869
     4  C   -0.001496   0.266776  -0.035077   5.006193   0.358062  -0.032950
     5  H    0.000303  -0.056541   0.005305   0.358062   0.612994  -0.003933
     6  H   -0.000516   0.349524  -0.047869  -0.032950  -0.003933   0.602155
     7  H    0.357120  -0.009445  -0.043352   0.000036   0.000098   0.001703
     8  H   -0.039324  -0.065787   0.330480   0.000315  -0.000479   0.006745
     9  C   -0.021999  -0.024436  -0.013596   0.329628  -0.043015   0.004431
    10  H    0.003246   0.005754   0.000340  -0.053423  -0.003260  -0.000175
    11  O    0.173971  -0.013163  -0.026768  -0.015332   0.002844   0.000122
    12  C    0.349369   0.004515  -0.025545  -0.000037   0.000027  -0.000275
    13  H   -0.031615   0.000084  -0.004373  -0.000012   0.000000   0.000009
    14  H   -0.042160  -0.000126  -0.003319   0.000014  -0.000000   0.000003
    15  O   -0.049021  -0.000030   0.002308  -0.000001  -0.000000   0.000001
    16  H    0.006439   0.000003  -0.000228  -0.000000   0.000000  -0.000000
    17  O    0.000956   0.004395   0.000923  -0.048450   0.002853   0.000033
    18  O   -0.005280  -0.039500   0.001146   0.205505  -0.029360  -0.000205
    19  H    0.000250  -0.003573  -0.000403  -0.022103  -0.005427   0.005293
    20  O    0.003188   0.184631  -0.040526  -0.019707   0.007498  -0.035761
    21  H   -0.000040  -0.028507  -0.002839  -0.009984   0.000705   0.005380
    22  O   -0.042216  -0.042167   0.216268   0.003055  -0.000075   0.006065
    23  H    0.004843   0.001165  -0.023626   0.000040   0.000002   0.000659
    24  O    0.006128  -0.000055  -0.001293  -0.000359   0.000010  -0.000001
    25  H   -0.000257  -0.000538  -0.000135   0.005277  -0.000140   0.000013
    26  H   -0.000179  -0.000000  -0.000198  -0.000013  -0.000001   0.000000
    27  H   -0.010879  -0.000040   0.001033   0.001325  -0.000065   0.000007
    28  O    0.000056   0.005474   0.001936   0.000087   0.000001   0.000845
    29  H   -0.000003   0.000311  -0.000377   0.000008  -0.000001   0.000244
    30  H    0.000068  -0.006378  -0.000392   0.000576  -0.000024  -0.001297
               7          8          9         10         11         12
     1  C    0.357120  -0.039324  -0.021999   0.003246   0.173971   0.349369
     2  C   -0.009445  -0.065787  -0.024436   0.005754  -0.013163   0.004515
     3  C   -0.043352   0.330480  -0.013596   0.000340  -0.026768  -0.025545
     4  C    0.000036   0.000315   0.329628  -0.053423  -0.015332  -0.000037
     5  H    0.000098  -0.000479  -0.043015  -0.003260   0.002844   0.000027
     6  H    0.001703   0.006745   0.004431  -0.000175   0.000122  -0.000275
     7  H    0.583503   0.007166  -0.003669   0.000051  -0.038330  -0.047095
     8  H    0.007166   0.685820   0.002501   0.000146   0.001013  -0.016180
     9  C   -0.003669   0.002501   4.692592   0.382318   0.163259   0.003060
    10  H    0.000051   0.000146   0.382318   0.594724  -0.047138  -0.000219
    11  O   -0.038330   0.001013   0.163259  -0.047138   8.459947  -0.039474
    12  C   -0.047095  -0.016180   0.003060  -0.000219  -0.039474   4.908919
    13  H   -0.002900   0.000501  -0.000071   0.000004   0.003039   0.360498
    14  H    0.006827   0.007915  -0.000087  -0.000003  -0.003626   0.336626
    15  O    0.002886  -0.000041  -0.000040   0.000006   0.002525   0.246435
    16  H   -0.000148  -0.000004   0.000006  -0.000000  -0.000011  -0.023656
    17  O   -0.000174   0.004161   0.244300  -0.044866  -0.049447  -0.000181
    18  O    0.011960  -0.000064  -0.045386   0.003234   0.000428   0.000337
    19  H   -0.000325   0.000005   0.006804  -0.000443   0.000097  -0.000014
    20  O    0.000011   0.000389  -0.001152  -0.000264  -0.000020  -0.000047
    21  H    0.000035   0.004812  -0.003771   0.000580   0.000532  -0.000005
    22  O    0.003276  -0.035465   0.000111   0.000004   0.001116  -0.002084
    23  H   -0.000248  -0.004768  -0.000011  -0.000000  -0.000077   0.000147
    24  O   -0.000095   0.001636   0.008867   0.000047  -0.069632   0.000315
    25  H    0.000036   0.000742  -0.027035  -0.001751   0.006202  -0.000037
    26  H    0.000037   0.001243  -0.000416   0.000005   0.003830  -0.000392
    27  H    0.000717   0.000574  -0.009272   0.000054   0.076547  -0.001904
    28  O    0.000000   0.000596  -0.000004  -0.000000   0.000000  -0.000002
    29  H    0.000000  -0.000021  -0.000000  -0.000000  -0.000000  -0.000000
    30  H   -0.000001   0.000540   0.000005   0.000001  -0.000002  -0.000002
              13         14         15         16         17         18
     1  C   -0.031615  -0.042160  -0.049021   0.006439   0.000956  -0.005280
     2  C    0.000084  -0.000126  -0.000030   0.000003   0.004395  -0.039500
     3  C   -0.004373  -0.003319   0.002308  -0.000228   0.000923   0.001146
     4  C   -0.000012   0.000014  -0.000001  -0.000000  -0.048450   0.205505
     5  H    0.000000  -0.000000  -0.000000   0.000000   0.002853  -0.029360
     6  H    0.000009   0.000003   0.000001  -0.000000   0.000033  -0.000205
     7  H   -0.002900   0.006827   0.002886  -0.000148  -0.000174   0.011960
     8  H    0.000501   0.007915  -0.000041  -0.000004   0.004161  -0.000064
     9  C   -0.000071  -0.000087  -0.000040   0.000006   0.244300  -0.045386
    10  H    0.000004  -0.000003   0.000006  -0.000000  -0.044866   0.003234
    11  O    0.003039  -0.003626   0.002525  -0.000011  -0.049447   0.000428
    12  C    0.360498   0.336626   0.246435  -0.023656  -0.000181   0.000337
    13  H    0.583420  -0.050347  -0.032544  -0.005145   0.000001   0.000001
    14  H   -0.050347   0.697609  -0.045915  -0.002530  -0.000062  -0.000009
    15  O   -0.032544  -0.045915   8.249017   0.233816   0.000000  -0.000000
    16  H   -0.005145  -0.002530   0.233816   0.395801   0.000000   0.000000
    17  O    0.000001  -0.000062   0.000000   0.000000   8.408672   0.001202
    18  O    0.000001  -0.000009  -0.000000   0.000000   0.001202   8.273593
    19  H   -0.000000   0.000000   0.000000  -0.000000  -0.000108   0.233144
    20  O   -0.000002  -0.000003   0.000000  -0.000000  -0.018268   0.001584
    21  H    0.000001  -0.000004   0.000000  -0.000000   0.048690   0.000062
    22  O    0.012739   0.000154   0.000060   0.000009   0.000040  -0.000043
    23  H    0.000021  -0.000114   0.000001  -0.000001   0.000005  -0.000003
    24  O    0.000006   0.001097  -0.000225   0.000010  -0.076556   0.000001
    25  H   -0.000002  -0.000032  -0.000000  -0.000000   0.184432  -0.000056
    26  H   -0.000009   0.003267  -0.000103  -0.000001   0.004038  -0.000000
    27  H    0.000340   0.000615   0.003712  -0.000138   0.009734  -0.000009
    28  O    0.000002   0.000001   0.000000   0.000000  -0.000000   0.000000
    29  H   -0.000000  -0.000000  -0.000000  -0.000000   0.000000  -0.000000
    30  H   -0.000001  -0.000001  -0.000000  -0.000000   0.000026  -0.000008
              19         20         21         22         23         24
     1  C    0.000250   0.003188  -0.000040  -0.042216   0.004843   0.006128
     2  C   -0.003573   0.184631  -0.028507  -0.042167   0.001165  -0.000055
     3  C   -0.000403  -0.040526  -0.002839   0.216268  -0.023626  -0.001293
     4  C   -0.022103  -0.019707  -0.009984   0.003055   0.000040  -0.000359
     5  H   -0.005427   0.007498   0.000705  -0.000075   0.000002   0.000010
     6  H    0.005293  -0.035761   0.005380   0.006065   0.000659  -0.000001
     7  H   -0.000325   0.000011   0.000035   0.003276  -0.000248  -0.000095
     8  H    0.000005   0.000389   0.004812  -0.035465  -0.004768   0.001636
     9  C    0.006804  -0.001152  -0.003771   0.000111  -0.000011   0.008867
    10  H   -0.000443  -0.000264   0.000580   0.000004  -0.000000   0.000047
    11  O    0.000097  -0.000020   0.000532   0.001116  -0.000077  -0.069632
    12  C   -0.000014  -0.000047  -0.000005  -0.002084   0.000147   0.000315
    13  H   -0.000000  -0.000002   0.000001   0.012739   0.000021   0.000006
    14  H    0.000000  -0.000003  -0.000004   0.000154  -0.000114   0.001097
    15  O    0.000000   0.000000   0.000000   0.000060   0.000001  -0.000225
    16  H   -0.000000  -0.000000  -0.000000   0.000009  -0.000001   0.000010
    17  O   -0.000108  -0.018268   0.048690   0.000040   0.000005  -0.076556
    18  O    0.233144   0.001584   0.000062  -0.000043  -0.000003   0.000001
    19  H    0.385675   0.000010   0.000000  -0.000021   0.000001  -0.000000
    20  O    0.000010   8.324534   0.223454   0.000995   0.000766  -0.000004
    21  H    0.000000   0.223454   0.329780  -0.000018  -0.000016   0.000074
    22  O   -0.000021   0.000995  -0.000018   8.369911   0.209606   0.000001
    23  H    0.000001   0.000766  -0.000016   0.209606   0.322959  -0.000000
    24  O   -0.000000  -0.000004   0.000074   0.000001  -0.000000   8.433019
    25  H    0.000006   0.000276  -0.000090  -0.000003  -0.000000   0.107750
    26  H    0.000000   0.000001  -0.000029  -0.000001  -0.000000   0.235179
    27  H    0.000002   0.000008  -0.000030  -0.000027   0.000003   0.181214
    28  O   -0.000000  -0.023192   0.000577  -0.024819   0.071430   0.000000
    29  H   -0.000000   0.000830  -0.000009   0.001387  -0.003064  -0.000000
    30  H   -0.000001   0.061433  -0.001520   0.003470  -0.007508   0.000000
              25         26         27         28         29         30
     1  C   -0.000257  -0.000179  -0.010879   0.000056  -0.000003   0.000068
     2  C   -0.000538  -0.000000  -0.000040   0.005474   0.000311  -0.006378
     3  C   -0.000135  -0.000198   0.001033   0.001936  -0.000377  -0.000392
     4  C    0.005277  -0.000013   0.001325   0.000087   0.000008   0.000576
     5  H   -0.000140  -0.000001  -0.000065   0.000001  -0.000001  -0.000024
     6  H    0.000013   0.000000   0.000007   0.000845   0.000244  -0.001297
     7  H    0.000036   0.000037   0.000717   0.000000   0.000000  -0.000001
     8  H    0.000742   0.001243   0.000574   0.000596  -0.000021   0.000540
     9  C   -0.027035  -0.000416  -0.009272  -0.000004  -0.000000   0.000005
    10  H   -0.001751   0.000005   0.000054  -0.000000  -0.000000   0.000001
    11  O    0.006202   0.003830   0.076547   0.000000  -0.000000  -0.000002
    12  C   -0.000037  -0.000392  -0.001904  -0.000002  -0.000000  -0.000002
    13  H   -0.000002  -0.000009   0.000340   0.000002  -0.000000  -0.000001
    14  H   -0.000032   0.003267   0.000615   0.000001  -0.000000  -0.000001
    15  O   -0.000000  -0.000103   0.003712   0.000000  -0.000000  -0.000000
    16  H   -0.000000  -0.000001  -0.000138   0.000000  -0.000000  -0.000000
    17  O    0.184432   0.004038   0.009734  -0.000000   0.000000   0.000026
    18  O   -0.000056  -0.000000  -0.000009   0.000000  -0.000000  -0.000008
    19  H    0.000006   0.000000   0.000002  -0.000000  -0.000000  -0.000001
    20  O    0.000276   0.000001   0.000008  -0.023192   0.000830   0.061433
    21  H   -0.000090  -0.000029  -0.000030   0.000577  -0.000009  -0.001520
    22  O   -0.000003  -0.000001  -0.000027  -0.024819   0.001387   0.003470
    23  H   -0.000000  -0.000000   0.000003   0.071430  -0.003064  -0.007508
    24  O    0.107750   0.235179   0.181214   0.000000  -0.000000   0.000000
    25  H    0.294584  -0.005309  -0.014839   0.000000   0.000000  -0.000004
    26  H   -0.005309   0.371073  -0.009436  -0.000000   0.000000  -0.000000
    27  H   -0.014839  -0.009436   0.306900  -0.000000   0.000000  -0.000000
    28  O    0.000000  -0.000000  -0.000000   8.332868   0.240476   0.208193
    29  H    0.000000   0.000000   0.000000   0.240476   0.380216  -0.014811
    30  H   -0.000004  -0.000000  -0.000000   0.208193  -0.014811   0.326044
 Mulliken charges:
               1
     1  C    0.140554
     2  C    0.077547
     3  C    0.120867
     4  C    0.062045
     5  H    0.151620
     6  H    0.139749
     7  H    0.170318
     8  H    0.104834
     9  C    0.356075
    10  H    0.161030
    11  O   -0.592451
    12  C   -0.053100
    13  H    0.166355
    14  H    0.094211
    15  O   -0.612846
    16  H    0.395777
    17  O   -0.676350
    18  O   -0.612273
    19  H    0.401132
    20  O   -0.670661
    21  H    0.432181
    22  O   -0.681329
    23  H    0.427788
    24  O   -0.827136
    25  H    0.450910
    26  H    0.397415
    27  H    0.463853
    28  O   -0.814525
    29  H    0.394815
    30  H    0.431595
 Sum of Mulliken charges =  -0.00000
 Mulliken charges with hydrogens summed into heavy atoms:
               1
     1  C    0.310873
     2  C    0.217296
     3  C    0.225701
     4  C    0.213666
     9  C    0.517105
    11  O   -0.592451
    12  C    0.207466
    15  O   -0.217069
    17  O   -0.225440
    18  O   -0.211141
    20  O   -0.238481
    22  O   -0.253541
    24  O    0.034132
    28  O    0.011884
 Electronic spatial extent (au):  <R**2>=           2965.8684
 Charge=             -0.0000 electrons
 Dipole moment (field-independent basis, Debye):
    X=              2.1818    Y=              0.8430    Z=              0.2131  Tot=              2.3487
 Quadrupole moment (field-independent basis, Debye-Ang):
   XX=            -80.4883   YY=            -82.4743   ZZ=            -79.6779
   XY=             -9.4338   XZ=              9.1754   YZ=             -4.9156
 Traceless Quadrupole moment (field-independent basis, Debye-Ang):
   XX=              0.3919   YY=             -1.5942   ZZ=              1.2023
   XY=             -9.4338   XZ=              9.1754   YZ=             -4.9156
 Octapole moment (field-independent basis, Debye-Ang**2):
  XXX=             51.6933  YYY=              9.5242  ZZZ=             -2.1776  XYY=            -24.9528
  XXY=             39.0396  XXZ=             10.4110  XZZ=             10.4757  YZZ=             -3.3903
  YYZ=              7.3637  XYZ=              9.3406
 Hexadecapole moment (field-independent basis, Debye-Ang**3):
 XXXX=          -1367.7156 YYYY=          -1093.7984 ZZZZ=           -561.6215 XXXY=              0.7109
 XXXZ=             29.0344 YYYX=            -70.9276 YYYZ=             -8.4190 ZZZX=             55.7870
 ZZZY=            -24.6390 XXYY=           -366.2154 XXZZ=           -414.3650 YYZZ=           -324.6668
 XXYZ=             -0.9418 YYXZ=             14.3108 ZZXY=            -52.1364
 N-N= 1.130256644403D+03 E-N=-4.233154113262D+03  KE= 8.329327738717D+02
 Calling FoFJK, ICntrl=      2127 FMM=F ISym2X=0 I1Cent= 0 IOpClX= 0 NMat=1 NMatS=1 NMatT=0.
 ***** Axes restored to original set *****
 -------------------------------------------------------------------
 Center     Atomic                   Forces (Hartrees/Bohr)
 Number     Number              X              Y              Z
 -------------------------------------------------------------------
      1        6          -0.002682248   -0.003889359   -0.002496414
      2        6           0.000028588   -0.000095091    0.000431410
      3        6          -0.000220443    0.000564812   -0.000513091
      4        6           0.000595687   -0.000035163    0.001105211
      5        1           0.000458159   -0.000214453    0.000623422
      6        1          -0.000058574   -0.000077064    0.000042738
      7        1          -0.000394308    0.000426097   -0.000190486
      8        1           0.000140606    0.000052020   -0.000052856
      9        6           0.016604845    0.023185628   -0.011270869
     10        1          -0.000002605    0.000403015   -0.000019112
     11        8          -0.016031698   -0.013155244   -0.011277532
     12        6          -0.000192564   -0.004101736    0.000429063
     13        1          -0.000182906   -0.000438896    0.000004629
     14        1           0.000021863   -0.000304102    0.000036626
     15        8           0.000139981   -0.000261618   -0.000088074
     16        1          -0.000117545    0.000045540    0.000042553
     17        8          -0.013295292   -0.004428521   -0.005922615
     18        8          -0.001381452   -0.001155606    0.000758366
     19        1          -0.000066650   -0.000051265    0.000023723
     20        8          -0.002155806    0.000239798   -0.000641765
     21        1          -0.000410825    0.000467441    0.000483071
     22        8          -0.000719547    0.000218218   -0.000159396
     23        1           0.000018914    0.000042154    0.000100797
     24        8           0.016956257    0.004102093    0.023987145
     25        1          -0.002280320   -0.003096154    0.000619266
     26        1           0.001470275    0.000958919    0.000766662
     27        1           0.004204916    0.000381522    0.003009815
     28        8          -0.000362253    0.000154361    0.000231386
     29        1          -0.000014432    0.000078430    0.000012146
     30        1          -0.000070623   -0.000015778   -0.000075817
 -------------------------------------------------------------------
 Cartesian Forces:  Max     0.023987145 RMS     0.005491950

 GradGradGradGradGradGradGradGradGradGradGradGradGradGradGradGradGradGrad
 Berny optimization.
 FormGI is forming the generalized inverse of G from B-inverse, IUseBI=4.
 Internal  Forces:  Max     0.021815395 RMS     0.003381490
 Search for a local minimum.
 Step number   1 out of a maximum of  180
 All quantities printed in internal units (Hartrees-Bohrs-Radians)
 Mixed Optimization -- RFO/linear search
 Second derivative matrix not updated -- first step.
 ITU=  0
     Eigenvalues ---    0.00403   0.00467   0.00518   0.00570   0.00630
     Eigenvalues ---    0.00696   0.00887   0.01059   0.01423   0.01440
     Eigenvalues ---    0.01511   0.02578   0.02796   0.03295   0.04047
     Eigenvalues ---    0.04272   0.04513   0.04616   0.04811   0.04961
     Eigenvalues ---    0.05264   0.05278   0.05415   0.05880   0.06105
     Eigenvalues ---    0.06167   0.06255   0.06423   0.06658   0.06965
     Eigenvalues ---    0.07383   0.07511   0.08044   0.08100   0.08995
     Eigenvalues ---    0.09560   0.09849   0.10541   0.10979   0.11334
     Eigenvalues ---    0.11557   0.12742   0.13168   0.13668   0.15551
     Eigenvalues ---    0.15801   0.16000   0.16000   0.16469   0.16976
     Eigenvalues ---    0.18254   0.19835   0.20100   0.20557   0.21776
     Eigenvalues ---    0.21985   0.23361   0.26248   0.26569   0.28535
     Eigenvalues ---    0.28758   0.29665   0.33095   0.33374   0.33683
     Eigenvalues ---    0.33972   0.34152   0.34266   0.34411   0.36289
     Eigenvalues ---    0.38979   0.42414   0.42579   0.42600   0.42605
     Eigenvalues ---    0.45019   0.48345   0.48896   0.49377   0.51176
     Eigenvalues ---    0.53445   0.53593   0.53621   0.53692
 RFO step:  Lambda=-1.13373382D-02 EMin= 4.03480993D-03
 Linear search not attempted -- first point.
 Iteration  1 RMS(Cart)=  0.04759971 RMS(Int)=  0.00073737
 Iteration  2 RMS(Cart)=  0.00123358 RMS(Int)=  0.00023337
 Iteration  3 RMS(Cart)=  0.00000164 RMS(Int)=  0.00023336
 Iteration  4 RMS(Cart)=  0.00000000 RMS(Int)=  0.00023336
 Variable       Old X    -DE/DX   Delta X   Delta X   Delta X     New X
                                 (Linear)    (Quad)   (Total)
    R1        2.89561   0.00008   0.00000   0.00350   0.00363   2.89924
    R2        2.06642   0.00019   0.00000   0.00054   0.00054   2.06696
    R3        2.74385  -0.00125   0.00000  -0.00669  -0.00672   2.73712
    R4        2.88637  -0.00392   0.00000  -0.01273  -0.01273   2.87364
    R5        2.94038  -0.00302   0.00000  -0.00478  -0.00476   2.93562
    R6        2.91836   0.00017   0.00000   0.00271   0.00264   2.92100
    R7        2.07074  -0.00002   0.00000  -0.00006  -0.00006   2.07068
    R8        2.71331   0.00156   0.00000   0.00361   0.00360   2.71691
    R9        2.08400  -0.00006   0.00000  -0.00016  -0.00016   2.08384
   R10        2.66712   0.00079   0.00000   0.00173   0.00173   2.66885
   R11        2.07869  -0.00007   0.00000  -0.00020  -0.00020   2.07848
   R12        2.87550   0.00034   0.00000   0.00136   0.00138   2.87688
   R13        2.68399  -0.00145   0.00000  -0.00334  -0.00334   2.68065
   R14        2.06884  -0.00029   0.00000  -0.00082  -0.00082   2.06802
   R15        2.91421  -0.01945   0.00000  -0.07924  -0.07998   2.83423
   R16        2.60426   0.00439   0.00000   0.00852   0.00803   2.61229
   R17        2.85916   0.02182   0.00000   0.17387   0.17392   3.03308
   R18        2.07377  -0.00029   0.00000  -0.00084  -0.00084   2.07293
   R19        2.08885   0.00003   0.00000   0.00009   0.00009   2.08893
   R20        2.68160   0.00007   0.00000   0.00016   0.00016   2.68175
   R21        1.83079  -0.00001   0.00000  -0.00003  -0.00003   1.83076
   R22        1.92122   0.01352   0.00000   0.03230   0.03259   1.95381
   R23        1.83241   0.00003   0.00000   0.00005   0.00005   1.83246
   R24        1.85397  -0.00014   0.00000  -0.00027  -0.00027   1.85370
   R25        3.45582   0.00030   0.00000   0.00317   0.00317   3.45899
   R26        1.86341   0.00020   0.00000   0.00049   0.00050   1.86391
   R27        3.45396   0.00011   0.00000   0.00208   0.00210   3.45606
   R28        2.78402   0.01458   0.00000   0.12369   0.12424   2.90826
   R29        1.83013   0.00086   0.00000   0.00157   0.00157   1.83170
   R30        1.89382   0.01507   0.00000   0.03174   0.03215   1.92597
   R31        1.83104   0.00002   0.00000   0.00004   0.00004   1.83107
   R32        1.86190   0.00019   0.00000   0.00026   0.00027   1.86217
    A1        1.92513  -0.00123   0.00000  -0.00343  -0.00346   1.92167
    A2        1.91239   0.00400   0.00000   0.02182   0.02166   1.93406
    A3        1.94149   0.00005   0.00000   0.00049   0.00060   1.94209
    A4        1.87353   0.00035   0.00000   0.00547   0.00536   1.87889
    A5        1.88965   0.00143   0.00000   0.00571   0.00568   1.89533
    A6        1.92033  -0.00467   0.00000  -0.03037  -0.03022   1.89012
    A7        1.98255  -0.00357   0.00000  -0.01204  -0.01224   1.97031
    A8        1.87878   0.00208   0.00000   0.00252   0.00252   1.88129
    A9        1.93494  -0.00041   0.00000   0.00581   0.00588   1.94082
   A10        1.90669  -0.00018   0.00000  -0.00318  -0.00311   1.90358
   A11        1.89520   0.00369   0.00000   0.01717   0.01725   1.91246
   A12        1.86171  -0.00157   0.00000  -0.01077  -0.01078   1.85093
   A13        1.95357  -0.00177   0.00000  -0.00621  -0.00614   1.94743
   A14        1.86914  -0.00022   0.00000   0.00172   0.00172   1.87086
   A15        1.89453   0.00175   0.00000   0.00288   0.00284   1.89737
   A16        1.85554   0.00030   0.00000   0.00047   0.00039   1.85593
   A17        1.95777  -0.00002   0.00000  -0.00065  -0.00063   1.95713
   A18        1.93138  -0.00010   0.00000   0.00188   0.00189   1.93327
   A19        1.88179  -0.00087   0.00000  -0.00055  -0.00044   1.88135
   A20        1.88247   0.00195   0.00000   0.01414   0.01401   1.89648
   A21        1.97977   0.00024   0.00000  -0.00080  -0.00088   1.97889
   A22        1.90181   0.00029   0.00000  -0.00561  -0.00561   1.89621
   A23        1.94498   0.00001   0.00000  -0.00704  -0.00708   1.93790
   A24        1.87099  -0.00153   0.00000   0.00032   0.00034   1.87133
   A25        1.97482  -0.00027   0.00000  -0.00540  -0.00580   1.96902
   A26        1.87908   0.00384   0.00000   0.03132   0.03168   1.91076
   A27        1.92084  -0.00421   0.00000  -0.02039  -0.01997   1.90088
   A28        1.76220  -0.00184   0.00000  -0.00125  -0.00106   1.76114
   A29        1.98150   0.00093   0.00000  -0.00190  -0.00203   1.97947
   A30        1.93747   0.00222   0.00000   0.00219   0.00133   1.93880
   A31        2.07394  -0.00309   0.00000  -0.01685  -0.01706   2.05688
   A32        1.99837   0.00030   0.00000   0.03259   0.03311   2.03147
   A33        1.74389   0.00393   0.00000   0.01441   0.01373   1.75763
   A34        1.86661  -0.00032   0.00000  -0.00227  -0.00227   1.86434
   A35        1.91537  -0.00017   0.00000  -0.00167  -0.00167   1.91371
   A36        1.89643  -0.00003   0.00000  -0.00040  -0.00040   1.89603
   A37        1.87485   0.00020   0.00000   0.00177   0.00176   1.87661
   A38        1.96384   0.00025   0.00000   0.00222   0.00222   1.96606
   A39        1.94492   0.00005   0.00000   0.00017   0.00017   1.94509
   A40        1.88156  -0.00023   0.00000  -0.00132  -0.00132   1.88023
   A41        1.84725   0.00195   0.00000   0.01856   0.01777   1.86502
   A42        1.88008  -0.00013   0.00000  -0.00073  -0.00073   1.87935
   A43        1.81664   0.00053   0.00000   0.00339   0.00340   1.82004
   A44        1.82274   0.00043   0.00000   0.00167   0.00163   1.82438
   A45        2.04802  -0.00093   0.00000  -0.00528  -0.00529   2.04273
   A46        1.84942   0.00087   0.00000   0.00609   0.00607   1.85550
   A47        2.76245   0.00000   0.00000   0.00178   0.00177   2.76422
   A48        1.92441   0.00329   0.00000   0.01802   0.01757   1.94198
   A49        1.56825  -0.01303   0.00000  -0.06577  -0.06432   1.50393
   A50        1.86666   0.00204   0.00000   0.00264   0.00281   1.86947
   A51        2.65745   0.00222   0.00000   0.01307   0.01327   2.67072
   A52        2.58761   0.00278   0.00000   0.00642   0.00677   2.59438
   A53        1.94942  -0.00002   0.00000  -0.00055  -0.00055   1.94887
   A54        1.64264  -0.00059   0.00000  -0.00216  -0.00214   1.64049
   A55        1.82658   0.00046   0.00000   0.00134   0.00135   1.82792
   A56        2.75086   0.00000   0.00000   0.00025   0.00025   2.75111
    D1        1.06822   0.00086   0.00000   0.01347   0.01354   1.08175
    D2        3.09533   0.00013   0.00000   0.01171   0.01172   3.10705
    D3       -1.10206   0.00084   0.00000   0.01646   0.01649  -1.08557
    D4       -0.99062  -0.00126   0.00000  -0.00443  -0.00431  -0.99494
    D5        1.03649  -0.00199   0.00000  -0.00619  -0.00613   1.03036
    D6        3.12228  -0.00128   0.00000  -0.00144  -0.00136   3.12092
    D7       -3.11782   0.00187   0.00000   0.01869   0.01876  -3.09906
    D8       -1.09071   0.00114   0.00000   0.01693   0.01695  -1.07376
    D9        0.99509   0.00185   0.00000   0.02169   0.02172   1.01681
   D10        0.57662   0.00234   0.00000   0.01577   0.01571   0.59233
   D11       -1.47991  -0.00093   0.00000  -0.01891  -0.01842  -1.49832
   D12       -1.51412   0.00136   0.00000   0.00437   0.00413  -1.50999
   D13        2.71254  -0.00190   0.00000  -0.03030  -0.03000   2.68254
   D14        2.71644   0.00198   0.00000   0.01089   0.01059   2.72704
   D15        0.65992  -0.00128   0.00000  -0.02378  -0.02353   0.63639
   D16       -1.03623   0.00090   0.00000   0.00531   0.00530  -1.03092
   D17        0.99229   0.00087   0.00000   0.00529   0.00528   0.99757
   D18        3.12286   0.00081   0.00000   0.00420   0.00420   3.12706
   D19        1.08179   0.00035   0.00000   0.00511   0.00512   1.08690
   D20        3.11030   0.00031   0.00000   0.00509   0.00510   3.11540
   D21       -1.04231   0.00025   0.00000   0.00401   0.00401  -1.03830
   D22        3.12438  -0.00101   0.00000  -0.00192  -0.00192   3.12246
   D23       -1.13029  -0.00104   0.00000  -0.00194  -0.00194  -1.13223
   D24        1.00028  -0.00111   0.00000  -0.00302  -0.00302   0.99726
   D25        0.32826  -0.00219   0.00000  -0.00521  -0.00518   0.32308
   D26       -1.70708  -0.00117   0.00000  -0.00427  -0.00424  -1.71132
   D27        2.46284  -0.00123   0.00000  -0.00650  -0.00645   2.45639
   D28       -1.78513  -0.00116   0.00000   0.00467   0.00468  -1.78045
   D29        2.46272  -0.00014   0.00000   0.00561   0.00562   2.46834
   D30        0.34945  -0.00020   0.00000   0.00338   0.00341   0.35287
   D31        2.46792  -0.00026   0.00000   0.01297   0.01296   2.48088
   D32        0.43258   0.00076   0.00000   0.01391   0.01390   0.44649
   D33       -1.68068   0.00070   0.00000   0.01168   0.01169  -1.66899
   D34        2.77693  -0.00102   0.00000  -0.02750  -0.02752   2.74941
   D35        0.72564  -0.00194   0.00000  -0.02811  -0.02815   0.69749
   D36       -1.34380  -0.00148   0.00000  -0.03749  -0.03750  -1.38130
   D37       -1.40859  -0.00085   0.00000  -0.03446  -0.03445  -1.44303
   D38        2.82331  -0.00177   0.00000  -0.03506  -0.03508   2.78824
   D39        0.75387  -0.00131   0.00000  -0.04444  -0.04443   0.70944
   D40        0.61551  -0.00077   0.00000  -0.03954  -0.03949   0.57602
   D41       -1.43578  -0.00169   0.00000  -0.04014  -0.04012  -1.47590
   D42        2.77797  -0.00124   0.00000  -0.04952  -0.04947   2.72850
   D43       -1.26149   0.00127   0.00000   0.00346   0.00344  -1.25805
   D44        0.89597   0.00067   0.00000  -0.00014  -0.00018   0.89579
   D45        0.92809  -0.00093   0.00000   0.00429   0.00429   0.93238
   D46        3.08555  -0.00154   0.00000   0.00069   0.00068   3.08622
   D47        2.98105  -0.00008   0.00000   0.00361   0.00361   2.98465
   D48       -1.14468  -0.00069   0.00000   0.00001  -0.00001  -1.14469
   D49       -2.94181  -0.00121   0.00000  -0.01283  -0.01283  -2.95464
   D50        1.17359  -0.00020   0.00000  -0.00653  -0.00661   1.16699
   D51       -0.89541  -0.00049   0.00000  -0.00795  -0.00795  -0.90336
   D52       -3.06325  -0.00118   0.00000   0.00236   0.00253  -3.06071
   D53       -1.13138  -0.00130   0.00000   0.01624   0.01673  -1.11465
   D54        0.98252   0.00129   0.00000   0.02620   0.02582   1.00834
   D55        1.18163  -0.00137   0.00000  -0.00173  -0.00160   1.18004
   D56        3.11350  -0.00150   0.00000   0.01215   0.01260   3.12610
   D57       -1.05578   0.00109   0.00000   0.02211   0.02168  -1.03410
   D58       -0.92547  -0.00066   0.00000   0.00969   0.00980  -0.91567
   D59        1.00640  -0.00078   0.00000   0.02356   0.02400   1.03039
   D60        3.12030   0.00180   0.00000   0.03353   0.03308  -3.12981
   D61       -1.16376   0.00080   0.00000   0.00678   0.00669  -1.15707
   D62        0.96386  -0.00015   0.00000   0.00016   0.00017   0.96403
   D63        3.04338  -0.00074   0.00000  -0.01051  -0.01044   3.03294
   D64        0.47849  -0.00186   0.00000  -0.02322  -0.02303   0.45546
   D65        2.66401  -0.00020   0.00000   0.02017   0.02030   2.68431
   D66        2.55216  -0.00150   0.00000  -0.01745  -0.01721   2.53495
   D67       -1.54550   0.00015   0.00000   0.02594   0.02612  -1.51938
   D68       -1.62497  -0.00045   0.00000  -0.01938  -0.01956  -1.64453
   D69        0.56055   0.00120   0.00000   0.02402   0.02377   0.58431
   D70       -2.74642  -0.00477   0.00000  -0.05021  -0.04991  -2.79633
   D71        1.30303  -0.00162   0.00000  -0.02429  -0.02432   1.27870
   D72       -0.66786  -0.00130   0.00000  -0.02298  -0.02263  -0.69050
   D73        2.07127  -0.00107   0.00000  -0.00408  -0.00377   2.06750
   D74       -0.16521  -0.00022   0.00000  -0.01237  -0.01269  -0.17790
   D75        3.00541  -0.00002   0.00000   0.00001   0.00001   3.00542
   D76        0.94183   0.00024   0.00000   0.00174   0.00175   0.94358
   D77       -1.16528  -0.00022   0.00000  -0.00222  -0.00222  -1.16749
   D78        0.52529  -0.00232   0.00000  -0.01672  -0.01705   0.50824
   D79       -0.04644  -0.00045   0.00000  -0.00382  -0.00382  -0.05026
   D80        1.95342   0.00002   0.00000  -0.00122  -0.00124   1.95218
   D81       -0.26363   0.00019   0.00000  -0.00630  -0.00629  -0.26992
   D82       -1.99090   0.00028   0.00000   0.00603   0.00603  -1.98487
   D83       -0.11372   0.00052   0.00000   0.00643   0.00645  -0.10726
   D84        1.78705  -0.00141   0.00000   0.00493   0.00476   1.79181
   D85       -0.09879   0.00107   0.00000   0.02546   0.02516  -0.07363
   D86       -0.11304  -0.00057   0.00000  -0.00429  -0.00414  -0.11719
   D87       -2.05345  -0.00002   0.00000  -0.00211  -0.00254  -2.05599
   D88       -0.18250   0.00017   0.00000   0.00469   0.00469  -0.17782
   D89        1.80186   0.00005   0.00000   0.00369   0.00369   1.80555
         Item               Value     Threshold  Converged?
 Maximum Force            0.021815     0.000450     NO 
 RMS     Force            0.003381     0.000300     NO 
 Maximum Displacement     0.287968     0.001800     NO 
 RMS     Displacement     0.048017     0.001200     NO 
 Predicted change in Energy=-6.182952D-03
 GradGradGradGradGradGradGradGradGradGradGradGradGradGradGradGradGradGrad

                          Input orientation:                          
 ---------------------------------------------------------------------
 Center     Atomic      Atomic             Coordinates (Angstroms)
 Number     Number       Type             X           Y           Z
 ---------------------------------------------------------------------
      1          6           0        0.851255    0.743044   -0.561149
      2          6           0       -1.444675   -0.374490   -0.555158
      3          6           0       -0.596511    0.829463   -0.060832
      4          6           0       -0.580091   -1.568727   -1.019448
      5          1           0       -1.199865   -2.475442   -0.960312
      6          1           0       -2.058616   -0.029307   -1.394566
      7          1           0        0.873842    0.775373   -1.654224
      8          1           0       -0.566161    0.756707    1.039067
      9          6           0        0.595487   -1.719574   -0.063991
     10          1           0        1.298834   -2.497725   -0.376059
     11          8           0        1.465946   -0.500947   -0.145733
     12          6           0        1.689952    1.892455   -0.024614
     13          1           0        1.215299    2.819481   -0.369036
     14          1           0        1.657131    1.892356    1.080315
     15          8           0        3.017667    1.747469   -0.504264
     16          1           0        3.508374    2.546376   -0.260296
     17          8           0        0.110679   -1.899350    1.218027
     18          8           0       -0.043806   -1.402665   -2.322166
     19          1           0       -0.784438   -1.405509   -2.948077
     20          8           0       -2.366279   -0.812052    0.457879
     21          1           0       -1.799075   -1.248215    1.128907
     22          8           0       -1.142739    2.067241   -0.465948
     23          1           0       -1.998654    2.162964    0.014791
     24          8           0        2.159992   -0.900897    2.255752
     25          1           0        0.881057   -1.662954    1.865801
     26          1           0        1.964006   -0.174924    2.867378
     27          1           0        2.134893   -0.513993    1.313202
     28          8           0       -3.462418    1.671402    0.994847
     29          1           0       -4.279809    1.748753    0.480280
     30          1           0       -3.241451    0.711365    0.971411
 ---------------------------------------------------------------------
                    Distance matrix (angstroms):
                    1          2          3          4          5
     1  C    0.000000
     2  C    2.553471   0.000000
     3  C    1.534214   1.553461   0.000000
     4  C    2.757368   1.545728   2.582737   0.000000
     5  H    3.837327   2.153620   3.477858   1.099885   0.000000
     6  H    3.123853   1.095756   2.157332   2.167156   2.628612
     7  H    1.093786   2.811698   2.168815   2.830489   3.917853
     8  H    2.137743   2.143116   1.102721   3.105692   3.853035
     9  C    2.525287   2.492540   2.813976   1.522379   2.144298
    10  H    3.276762   3.473765   3.842120   2.192566   2.566193
    11  O    1.448423   2.941995   2.455795   2.467752   3.415950
    12  C    1.520667   3.904664   2.521742   4.257062   5.320254
    13  H    2.116843   4.160716   2.708841   4.785691   5.849687
    14  H    2.159805   4.175471   2.740595   4.625286   5.603949
    15  O    2.388607   4.941436   3.755217   4.920004   5.985694
    16  H    3.225337   5.757698   4.453949   5.850293   6.919262
    17  O    3.270500   2.808649   3.095484   2.364904   2.606639
    18  O    2.916571   2.478285   3.225137   1.418539   2.083739
    19  H    3.604053   2.687931   3.656035   1.946280   2.295331
    20  O    3.716082   1.437727   2.468949   2.438344   2.477630
    21  H    3.720975   1.930044   2.679251   2.490799   2.495991
    22  O    2.395532   2.461945   1.412295   3.720646   4.569861
    23  H    3.235717   2.659024   1.936478   4.124015   4.806631
    24  O    3.514295   4.601298   3.994875   4.322151   4.910285
    25  H    3.417572   3.595860   3.479550   3.235505   3.602400
    26  H    3.719634   4.834530   4.017395   4.850004   5.472995
    27  H    2.596354   4.040239   3.339672   3.731602   4.487400
    28  O    4.678755   3.264885   3.168082   4.781593   5.112544
    29  H    5.331401   3.690295   3.834654   5.190643   5.422654
    30  H    4.370353   2.595746   2.841686   4.030531   4.249160
                    6          7          8          9         10
     6  H    0.000000
     7  H    3.051924   0.000000
     8  H    2.961049   3.054140   0.000000
     9  C    3.416386   2.971714   2.949259   0.000000
    10  H    4.289862   3.539420   4.009004   1.094350   0.000000
    11  O    3.768894   2.062795   2.667378   1.499811   2.016953
    12  C    4.429639   2.137648   2.740691   3.774409   4.421557
    13  H    4.459353   2.438581   3.067799   4.591323   5.317867
    14  H    4.860514   3.055961   2.496883   3.934789   4.639204
    15  O    5.451442   2.619802   4.025829   4.252198   4.581757
    16  H    6.237955   3.467023   4.636065   5.169312   5.508033
    17  O    3.876666   3.998298   2.746775   1.382364   2.076265
    18  O    2.608833   2.456028   4.029098   2.368224   2.605605
    19  H    2.435334   3.029883   4.540940   3.212597   3.485432
    20  O    2.034428   4.180822   2.457480   3.141337   4.119466
    21  H    2.814430   4.357202   2.355390   2.716452   3.663774
    22  O    2.469145   2.673485   2.077261   4.186045   5.177671
    23  H    2.606902   3.600313   2.253606   4.670105   5.722606
    24  O    5.646339   4.444320   3.414657   2.915325   3.196542
    25  H    4.684066   4.282063   2.938143   1.951628   2.428439
    26  H    5.862325   4.747253   3.257668   3.584929   4.044470
    27  H    5.015221   3.472510   2.997585   2.391622   2.736382
    28  O    3.251518   5.159805   3.037586   5.393186   6.475378
    29  H    3.407381   5.662480   3.884273   6.007831   7.063083
    30  H    2.746915   4.881976   2.676530   4.658714   5.720850
                   11         12         13         14         15
    11  O    0.000000
    12  C    2.406911   0.000000
    13  H    3.337354   1.096950   0.000000
    14  H    2.695857   1.105417   1.776343   0.000000
    15  O    2.755314   1.419123   2.101434   2.093547   0.000000
[...]
 00060528,-0.00031001,0.00058618,-0.00045796,0.00001330,0.00041075,0.00
 013603,0.00012407,-0.00022365,-0.00004889,0.00003108,0.01841705,0.4532
 6573,0.00041989,-0.00468493,-0.00024371,0.00055776,0.00002303,-0.00023
 095,0.00064837,0.00011328,-0.00068675,-0.00023654,-0.00052118,0.000762
 85,-0.00033679,-0.00001602,-0.00024506,-0.00011203,0.00007637,-0.00000
 813,-0.00048589,0.00096859,-0.00033984,-0.00000108,-0.00004009,0.00008
 469,0.00281234,0.00375710,-0.00010828,-0.00012597,-0.00002084,0.000155
 69,-0.00815637,0.00305960,-0.00979465,-0.00030662,-0.00041526,-0.00014
 942,0.00017098,0.00023245,-0.00001575,0.00006906,0.00000311,0.00007571
 ,0.00025572,0.00032908,0.00001497,-0.00008587,0.00006706,-0.00003230,-
 0.00938116,-0.00200289,0.00111309,-0.00007186,-0.00003678,-0.00030455,
 -0.00005510,0.00002912,0.00011194,-0.00084028,0.00014832,0.00032062,0.
 00068508,-0.00020701,-0.00031809,-0.00091563,0.00063762,0.00027566,0.0
 0031524,-0.00002278,-0.00029932,-0.01197300,0.05647052,0.62893441,-0.0
 0040461,0.00036238,-0.00062854,-0.00061273,0.00045475,0.00019875,0.000
 22942,0.00070802,-0.00088900,-0.00293455,-0.00084072,0.00189144,-0.000
 32865,-0.00004258,0.00001473,0.00016348,-0.00011513,0.00005525,-0.0000
 7367,0.00002912,-0.00002024,-0.00001278,0.00034936,0.00031739,0.022899
 31,0.00749170,0.00523258,-0.00094202,0.00027076,0.00240878,-0.00514910
 ,-0.00472704,0.00019135,0.00085555,-0.00001695,0.00088716,-0.00011232,
 -0.00003448,-0.00018355,0.00010582,-0.00019748,-0.00029444,-0.00080501
 ,0.00019460,-0.00054617,0.00002539,-0.00015416,0.00019952,-0.28351399,
 -0.03523763,-0.19227511,0.00126698,-0.00043332,0.00272964,0.00000414,-
 0.00013215,0.00051034,0.00015260,-0.00024598,0.00009953,-0.00075357,-0
 .00007523,-0.00079433,0.00000016,-0.00083311,0.00034523,-0.00013975,0.
 00016626,0.00005932,0.00066760,0.00463327,0.00408429,0.26832595,0.0004
 8379,-0.00129526,0.00073816,0.00005986,0.00109663,-0.00085016,0.000349
 33,0.00015632,0.00077616,-0.00100922,-0.00006734,0.00132284,0.00020524
 ,0.00003737,-0.00024619,-0.00006598,-0.00012798,-0.00004713,-0.0000448
 2,0.00025251,-0.00020381,0.00028228,-0.00031531,-0.00020397,0.00429486
 ,0.00296036,0.00459729,-0.00090235,0.00011418,-0.00019515,0.00031454,-
 0.00058496,-0.00224209,-0.00027841,0.00001245,0.00082323,0.00006192,0.
 00008991,-0.00018407,0.00004143,-0.00018044,-0.00037178,0.00018820,0.0
 0010209,-0.00042243,-0.00008357,-0.00005688,0.00010687,-0.03453230,-0.
 01954227,-0.02757998,0.00052912,0.00013670,0.00079363,-0.00013942,0.00
 016283,0.00021720,0.00135647,-0.00122873,0.00099976,-0.00187455,0.0005
 1714,0.00031655,-0.00064659,0.00002928,-0.00034316,0.00030163,0.000102
 35,-0.00001448,0.00773246,-0.00416200,0.00004358,0.03113512,0.02456284
 ,-0.00093385,0.00224264,-0.00062531,0.00029517,0.00060864,-0.00080472,
 -0.00027570,0.00031138,-0.00003778,0.00460566,-0.00019704,-0.00457616,
 -0.00011304,-0.00035157,0.00023777,0.00009478,-0.00014960,0.00009543,0
 .00017920,-0.00053875,0.00019765,-0.00000414,0.00028703,0.00014339,-0.
 02857742,0.00017855,-0.04166655,-0.00028189,-0.00013332,0.00202577,-0.
 00289514,-0.00468600,0.00403861,0.00055866,0.00009073,0.00072209,-0.00
 012986,-0.00013007,-0.00012213,0.00002953,-0.00006018,-0.00023120,-0.0
 0051892,-0.00001308,-0.00031123,0.00005116,-0.00010369,0.00010514,-0.1
 5033984,-0.02012482,-0.17956899,-0.00155587,-0.00003809,-0.00022337,0.
 00017722,0.00010250,-0.00047539,0.00236104,-0.00171449,0.00126616,-0.0
 0382361,0.00179003,0.00031569,0.00036653,-0.00066140,0.00003314,-0.000
 16468,0.00012630,0.00017786,0.00480573,0.00162360,-0.00940679,0.172902
 78,0.02049753,0.22512340,-0.00004265,0.00000364,-0.00031537,-0.0000722
 6,-0.00009864,0.00002384,-0.00009513,0.00017030,-0.00055331,0.00002293
 ,-0.00005460,-0.00004855,0.00000855,0.00002748,0.00001710,0.00002838,0
 .00002387,0.00004324,-0.00002893,0.00004972,0.00006222,-0.00008885,0.0
 0001372,0.00018490,0.00035461,-0.00037817,0.00010547,-0.00006897,0.000
 08290,0.00010660,-0.00011708,0.00061448,0.00033648,0.00091415,-0.00009
 511,-0.00091715,-0.00007714,0.00001984,0.00018272,-0.00006350,0.000293
 98,0.00033682,-0.00093234,0.00013388,-0.00004804,0.00014208,-0.0001210
 1,0.00015544,-0.00336351,0.00090450,-0.00015620,-0.00002782,0.00006126
 ,0.00013020,0.00001453,-0.00002788,-0.00003473,-0.00000468,0.00011287,
 0.00007394,-0.00000036,-0.00015119,-0.00015000,0.00017127,-0.00018052,
 0.00023818,-0.00010775,0.00001859,-0.00003659,-0.00473187,-0.00548281,
 0.00400171,0.00403098,-0.00282618,-0.00234412,0.00422610,0.00015019,0.
 00053685,-0.00011414,0.00004735,0.00007994,-0.00006133,0.00004655,-0.0
 0005233,0.00007377,-0.00005249,0.00004191,0.00000495,-0.00000180,-0.00
 002036,0.00000476,-0.00001188,-0.00001159,-0.00000345,-0.00003005,-0.0
 0013516,-0.00000064,0.00002964,0.00003227,-0.00002324,0.00023956,-0.00
 010285,-0.00010665,-0.00003235,0.00000573,0.00007803,0.00065135,-0.000
 74327,0.00084508,-0.00022745,0.00005212,0.00098824,0.00000711,-0.00001
 519,-0.00019408,0.00019513,-0.00006598,-0.00038583,0.00010816,-0.00004
 537,-0.00041120,-0.00005394,-0.00011525,0.00019754,-0.00015548,0.00043
 598,0.00061962,0.00000494,-0.00006086,0.00001386,-0.00000208,0.0000173
 7,0.00001200,-0.00007688,-0.00008493,0.00006679,0.00000771,0.00004397,
 -0.00006594,-0.00008340,-0.00006271,-0.00004213,0.00007848,0.00000504,
 -0.00000779,-0.00455474,-0.31045433,-0.25415595,0.00046155,-0.00169704
 ,-0.00124029,0.00381450,0.29913760,-0.00037891,-0.00021116,-0.00051716
 ,-0.00013788,-0.00010195,0.00006656,-0.00017571,0.00019478,-0.00016530
 ,-0.00004710,-0.00001535,-0.00013007,0.00002759,0.00002084,0.00002992,
 0.00004092,0.00000860,0.00002328,0.00000586,0.00012403,0.00005323,-0.0
 0006463,0.00000514,0.00008798,0.00022557,-0.00037743,-0.00044054,-0.00
 005777,0.00006812,0.00003138,-0.00058412,0.00150771,-0.00001280,0.0000
 4107,-0.00015043,-0.00116639,-0.00001731,-0.00003788,0.00032703,-0.000
 25195,0.00032320,0.00056417,0.00005148,-0.00020539,0.00063017,0.000086
 47,0.00014266,-0.00017581,0.00134204,0.00053093,0.00106062,0.00003843,
 0.00006455,0.00013433,0.00000834,-0.00002856,-0.00002096,0.00026696,0.
 00003569,-0.00008244,-0.00019959,-0.00000865,0.00006212,0.00027650,-0.
 00012981,0.00006777,-0.00016622,0.00002862,0.00007488,0.00457241,-0.19
 356136,-0.23894105,-0.00244837,-0.00093260,-0.00087824,-0.00296275,0.2
 3415558,0.26538382,-0.00106243,0.00455806,-0.00079055,-0.00048845,-0.0
 0005959,0.00016486,-0.00062765,0.00008276,-0.00008333,0.00015130,0.000
 34227,-0.00069011,0.00028518,0.00004121,0.00022642,0.00011522,-0.00004
 012,0.00004988,0.00042496,-0.00092237,0.00052994,-0.00012558,0.0001030
 5,0.00016520,-0.00390280,-0.00602232,-0.00263414,0.00011861,0.00039052
 ,0.00018034,0.00094005,-0.00024812,0.00414850,0.00262993,0.00024610,-0
 .00103095,-0.00049777,-0.00014841,0.00021540,-0.00034500,0.00028649,0.
 00035299,-0.00223821,0.00085972,-0.00072101,0.00009724,-0.00017280,0.0
 0016315,0.00127759,0.00216219,-0.00122528,0.00001565,0.00009168,0.0004
 6442,0.00005773,-0.00003961,-0.00011097,0.00057063,-0.00005950,-0.0001
 1243,-0.00055201,0.00005356,0.00006801,0.00077535,-0.00069783,0.000053
 86,-0.00028673,0.00002644,0.00017506,-0.01246934,-0.01059996,0.0190984
 3,-0.00282347,-0.00475688,0.00566515,-0.00010448,-0.00052815,0.0004810
 7,0.01804483,0.00120484,0.00099976,0.00113840,0.00017152,0.00026113,0.
 00005755,0.00016430,-0.00022367,0.00012853,-0.00029813,-0.00076147,-0.
 00005650,-0.00017734,-0.00003089,-0.00013331,0.00001499,-0.00008725,-0
 .00003216,0.00002080,-0.00028454,0.00000445,0.00004919,0.00004472,-0.0
 0006628,-0.00208040,0.00292096,-0.00340731,0.00002614,-0.00075178,-0.0
 0030970,-0.00061942,-0.00718438,0.00060943,0.00158992,-0.00060157,0.00
 166078,-0.00012493,0.00006657,-0.00031875,0.00032978,-0.00049016,-0.00
 053302,-0.00034782,0.00084352,-0.00133480,-0.00034987,-0.00004980,0.00
 003486,0.00089125,-0.00055097,0.00076606,0.00009641,-0.00018387,0.0001
 5885,-0.00000558,0.00003519,0.00004100,0.00000070,-0.00030260,0.000104
 46,-0.00025222,0.00019884,-0.00002912,-0.00018764,-0.00019015,-0.00009
 586,0.00014562,0.00000603,-0.00001301,-0.01496589,-0.14367567,0.196287
 77,-0.00326573,-0.00118262,0.00208765,0.00307598,0.01328162,-0.0414848
 2,0.01496739,0.13787912,0.00021243,0.00583707,-0.00053315,-0.00066593,
 -0.00020447,0.00039761,-0.00070445,-0.00065772,0.00130791,0.00084714,0
 .00116389,-0.00070729,0.00059166,0.00007729,0.00042513,0.00006809,-0.0
 0004927,-0.00002862,0.00045590,-0.00104225,0.00031733,0.00004556,-0.00
 001003,-0.00027223,-0.00490661,-0.00770005,0.00555238,0.00012411,0.000
 21161,-0.00028201,0.00449039,0.00020519,-0.00220547,-0.00052005,0.0009
 4999,0.00171417,-0.00008634,-0.00034013,-0.00031967,0.00028586,-0.0000
 3742,-0.00085073,-0.00034203,-0.00043943,-0.00075512,0.00026717,-0.000
 41145,0.00037499,-0.00159462,0.00024318,-0.00587448,-0.00003383,0.0001
 1663,-0.00014582,0.00006890,-0.00001023,-0.00014751,0.00040536,0.00023
 327,-0.00056634,0.00014481,-0.00010952,0.00024759,0.00108163,-0.000534
 75,-0.00049302,-0.00024176,-0.00006274,0.00031198,0.01711916,0.1355476
 6,-0.37079783,0.00597439,0.00250478,0.00440705,0.00157869,0.01974431,-
 0.02603441,-0.02474989,-0.15529955,0.39504990,0.00090302,-0.00017567,-
 0.00025481,0.00041932,0.00002484,-0.00122235,0.00218790,-0.00602270,0.
 00196084,0.00048554,-0.00021563,-0.00042265,-0.00005874,0.00021399,0.0
 0005484,-0.00015768,-0.00016204,0.00009144,-0.00008607,-0.00002838,-0.
 00008144,0.00017656,0.00042001,-0.00018808,-0.00007227,-0.00087036,0.0
 0020850,-0.00008849,0.00014753,-0.00003506,-0.00094783,0.00114495,-0.0
 0020838,0.00073662,0.00009425,0.00018887,0.00016359,0.00029411,0.00000
 617,-0.00005152,0.00002957,-0.00006282,-0.00092377,-0.00004748,0.00004
 758,0.00008202,0.00002360,-0.00001736,-0.00028543,0.00067429,-0.000522
 82,-0.00034870,0.00041596,0.00060427,0.00001614,-0.00020410,-0.0002385
 3,-0.00061818,0.00883164,0.00155579,0.00017045,-0.00037327,0.00083953,
 -0.01606191,0.00022206,0.00941298,-0.00051981,0.00513817,-0.00251223,-
 0.00041905,0.00013243,-0.00040278,0.00023784,-0.00013702,0.00035926,0.
 00010572,-0.00006104,0.00016254,0.00035026,-0.00008830,0.00031012,0.41
 539589,0.00021991,0.00047670,-0.00007979,-0.00393926,-0.00347064,0.004
 97958,0.00021214,-0.00380457,0.00133723,0.00018869,0.00112666,-0.00017
 599,-0.00010334,0.00042487,0.00006847,0.00003168,0.00009652,-0.0002827
 4,0.00008125,-0.00002178,-0.00007557,-0.00036871,0.00032042,-0.0004553
 0,-0.00122771,-0.00091818,0.00042030,0.00025919,0.00004717,-0.00003354
 ,0.00004888,0.00124619,-0.00007892,0.00020410,-0.00042702,-0.00006080,
 0.00007910,0.00017817,-0.00006355,0.00001768,0.00000041,0.00000216,0.0
 0004819,0.00027589,-0.00002231,0.00006863,-0.00002717,0.00004006,0.001
 53384,0.00006477,0.00016578,0.00108323,-0.00040138,-0.00121911,-0.0000
 5588,0.00005623,0.00034347,0.01247718,-0.01145887,-0.00293211,-0.00039
 057,-0.00108503,-0.00300127,-0.00542164,0.00648755,0.00093040,0.006232
 50,-0.00753100,0.00071429,0.00043202,0.00013956,0.00017270,-0.00031639
 ,-0.00025707,-0.00042666,-0.00004933,-0.00002485,-0.00004491,-0.000180
 44,-0.00007392,-0.00004963,-0.11518509,0.48761370,-0.00045625,-0.00023
 106,0.00070086,-0.00063178,0.00092553,-0.00140016,-0.00180791,0.004268
 19,-0.00308195,-0.00042438,0.00012923,0.00070278,0.00007994,-0.0002232
 8,-0.00003703,0.00006754,0.00035049,0.00096223,-0.00019193,0.00005907,
 0.00010302,0.00059917,-0.00073828,0.00104304,0.00015579,0.00041553,-0.
 00064391,0.00006751,-0.00007732,0.00011167,0.00073846,-0.00076146,0.00
 024802,-0.00036894,0.00001236,-0.00037438,-0.00012177,-0.00023462,-0.0
 0001377,0.00006180,-0.00004771,0.00017493,0.00048618,0.00000743,0.0001
 1120,-0.00004063,0.00000511,-0.00003972,0.00009252,-0.00028861,0.00073
 876,0.00010620,-0.00024670,-0.00009479,-0.00007386,0.00022339,0.000137
 76,0.00027816,-0.00112523,0.00623694,0.00077245,-0.00122230,-0.0014650
 0,0.01140382,-0.00056072,0.00048335,-0.00529510,-0.00140107,-0.0078485
 6,0.00016664,-0.00005462,0.00034910,-0.00009147,0.00000196,-0.00030002
 ,0.00002662,0.00003568,-0.00012245,-0.00020544,0.00004359,-0.00028431,
 0.23947220,0.00064897,0.19303620,-0.00012051,-0.00001399,0.00012513,-0
 .00043483,0.00003781,-0.00022827,-0.00005673,0.00021254,-0.00049135,-0
 .00003502,0.00016041,0.00023821,0.00000988,-0.00004300,-0.00000678,-0.
 00001535,0.00012830,0.00031070,-0.00003424,0.00001329,-0.00000101,0.00
 009625,-0.00010409,0.00020684,-0.00004709,0.00000973,-0.00011738,0.000
 04770,-0.00001578,0.00002718,0.00015633,-0.00009125,0.00003689,-0.0000
 9021,-0.00003763,-0.00006167,-0.00001908,-0.00002541,-0.00000356,0.000
 01307,-0.00000476,0.00002505,0.00013169,0.00001923,0.00000872,-0.00001
 232,0.00000198,-0.00000284,0.00011704,-0.00007831,0.00013213,0.0000986
 9,-0.00011648,-0.00012183,-0.00002372,0.00008478,0.00006483,0.00053555
 ,-0.00013307,0.00035961,0.00004605,-0.00001343,-0.00018327,0.00065828,
 -0.00031050,0.00162685,-0.00310822,0.00035498,-0.00309050,0.00008756,-
 0.00001218,0.00008535,-0.00005758,-0.00000015,-0.00008477,-0.00001336,
 0.00000960,-0.00003076,-0.00006694,0.00000924,-0.00006247,-0.34028324,
 0.05265938,-0.22511455,0.35218299,0.00005868,-0.00003010,-0.00005717,0
 .00022333,-0.00001319,0.00013220,0.00027347,-0.00013554,0.00006024,0.0
 0008863,-0.00006512,-0.00019275,-0.00000611,-0.00000199,0.00000638,0.0
 0008003,0.00000890,-0.00021110,-0.00000765,0.00000670,0.00000196,0.000
 13109,-0.00010852,-0.00005156,0.00012264,0.00005869,0.00000687,-0.0000
 3732,0.00000349,-0.00000942,-0.00011633,-0.00006602,-0.00001037,0.0000
 5529,0.00007586,-0.00001015,0.00000744,0.00000335,0.00000666,-0.000004
 14,-0.00000312,0.00000807,-0.00010059,-0.00004724,0.00002739,-0.000002
 62,0.00001200,-0.00001443,-0.00016354,0.00002896,-0.00003741,-0.000091
 85,0.00003498,0.00013651,0.00004034,-0.00001808,-0.00006616,-0.0002310
 3,-0.00199815,-0.00155988,-0.00012024,0.00018311,0.00022604,-0.0011170
 9,-0.00023728,0.00142249,0.00048436,0.00103757,-0.00300214,-0.00009500
 ,-0.00000714,-0.00005039,0.00006813,0.00001834,0.00006216,0.00002368,-
 0.00000023,0.00001701,0.00005690,0.00000390,0.00003253,0.00533389,-0.0
 5073455,-0.00011761,-0.04694928,0.05302610,-0.00000393,0.00001128,-0.0
 0002718,0.00018779,-0.00021357,0.00070432,-0.00002333,0.00018337,0.000
 07352,-0.00002539,-0.00006279,-0.00011937,0.00000319,0.00002422,-0.000
 00181,0.00003438,-0.00007338,-0.00027889,0.00003197,-0.00000595,-0.000
 00642,-0.00011774,0.00001988,-0.00009327,0.00000610,0.00001546,0.00014
 465,-0.00002888,0.00000407,-0.00002616,-0.00005673,0.00003933,-0.00005
 045,0.00004359,0.00001543,0.00003183,0.00000450,0.00000907,0.00000524,
 -0.00000693,0.00000389,-0.00001785,-0.00005809,-0.00000845,-0.00001606
 ,0.00000710,-0.00000294,0.00000953,-0.00001975,0.00003630,-0.00011350,
 -0.00001921,0.00006548,-0.00002551,0.00003217,-0.00007169,-0.00001981,
 0.00032627,-0.00051209,-0.00062708,-0.00004725,-0.00001880,0.00009135,
 0.00127646,0.00018355,-0.00221757,0.00004643,-0.00108332,0.00340148,-0
 .00003931,0.00001043,-0.00005708,0.00003053,-0.00000584,0.00004580,0.0
 0000365,-0.00000772,0.00002175,0.00003578,-0.00000596,0.00004223,-0.23
 613136,0.03367588,-0.16271256,0.23461252,-0.02698134,0.16301130,-0.000
 34967,0.00063624,-0.00022070,-0.00470803,0.00019580,0.00614745,-0.0007
 3325,-0.00157777,0.00137827,-0.00005504,0.00049658,0.00022251,-0.00003
 056,0.00013043,0.00001278,0.00023368,0.00013400,-0.00055282,0.00023565
 ,0.00000224,-0.00008701,-0.00068286,-0.00005441,-0.00079630,-0.0006835
 7,-0.00007152,0.00022825,0.00019417,-0.00003712,-0.00001447,0.00032553
 ,0.00018860,0.00004010,-0.00016763,-0.00041614,-0.00013426,0.00000720,
 0.00004753,-0.00004374,0.00001938,-0.00000574,0.00000979,0.00044077,0.
 00023035,-0.00003680,0.00001636,-0.00001948,0.00003755,0.00093558,-0.0
 0039425,0.00024703,0.00076159,-0.00038931,-0.00102395,-0.00000919,0.00
 013159,0.00028939,-0.00089565,-0.00515366,-0.00334179,-0.00127828,0.00
 165097,-0.00129164,-0.00234539,0.00251712,0.00041018,0.00427950,-0.005
 32292,-0.00067273,0.00043686,0.00000261,0.00028273,-0.00030144,-0.0000
 3882,-0.00040903,-0.00007863,0.00001991,-0.00010420,-0.00026368,0.0000
 0521,-0.00016342,-0.06050816,0.05136078,-0.01975101,-0.00976263,0.0419
 9489,-0.00010455,0.07496740,-0.00045120,-0.00019812,-0.00043043,0.0045
 2051,0.00660747,-0.00806369,-0.00259089,0.00440878,0.00055092,-0.00065
 787,-0.00172389,0.00076253,0.00023980,-0.00056320,-0.00011236,-0.00014
 402,-0.00009051,0.00106235,0.00010136,0.00000130,0.00006392,0.00008196
 ,-0.00002162,-0.00000733,0.00149918,0.00102113,-0.00044661,-0.00031180
 ,-0.00004839,0.00004664,-0.00022531,-0.00138466,0.00008400,-0.00021668
 ,0.00043824,0.00014437,-0.00009862,-0.00020572,0.00005484,-0.00003190,
 0.00000146,-0.00004282,-0.00003037,-0.00028205,-0.00000756,-0.00006598
 ,0.00001025,-0.00002694,-0.00187875,-0.00009830,-0.00033858,-0.0014917
 9,0.00070336,0.00165830,0.00002375,-0.00006577,-0.00041187,-0.00557533
 ,-0.00424085,0.00390528,0.00068440,-0.00035201,0.00334644,0.00519710,-
 0.00258521,-0.00147402,-0.00708114,-0.00333112,0.00379045,-0.00048163,
 -0.00016716,-0.00024519,0.00034307,0.00034660,0.00056029,0.00002025,0.
 00002192,0.00006282,0.00020777,0.00008394,0.00009126,0.10042983,-0.418
 31876,0.00020406,-0.00575197,-0.00103569,-0.00524379,-0.08626373,0.421
 06858,0.00012247,-0.00024657,-0.00031026,0.00321921,-0.00235352,-0.001
 56468,0.00153791,-0.00052843,0.00137115,0.00034698,0.00000283,-0.00068
 988,-0.00006901,0.00005576,0.00001511,0.00004621,-0.00024070,-0.000749
 20,0.00006236,-0.00000301,-0.00003005,-0.00027384,0.00013408,-0.000337
 79,0.00020722,0.00005215,0.00028660,-0.00009124,0.00001161,-0.00005809
 ,-0.00023736,0.00003939,-0.00012342,0.00004316,0.00011709,0.00022281,0
 .00003114,0.00003599,0.00000813,-0.00002665,0.00001063,-0.00007892,-0.
 00019190,-0.00007348,-0.00006177,-0.00000459,-0.00000271,0.00001220,-0
 .00053436,0.00009818,-0.00062147,-0.00018836,0.00010231,0.00017973,0.0
 0006639,-0.00012781,-0.00013072,-0.00006308,0.00046922,-0.00999648,-0.
 00180454,0.00303428,0.00325616,-0.00120047,-0.00083564,-0.00054536,0.0
 0080229,0.00398864,0.00019962,-0.00012184,-0.00001154,-0.00021916,0.00
 003823,0.00010328,0.00029295,-0.00004104,-0.00001980,0.00006861,0.0001
 1561,-0.00000326,0.00014975,-0.01297429,-0.03449709,-0.02672124,-0.008
 25902,0.03022539,-0.00117243,0.01944239,0.00046272,0.03734811\\0.00002
 487,-0.00002647,-0.00000093,0.00001061,0.00000571,-0.00001175,-0.00001
 097,0.00000903,0.00000005,-0.00000947,0.00000232,-0.00001704,-0.000003
 04,0.00000036,-0.00000084,-0.00000003,0.00000409,-0.00000003,-0.000001
 53,0.00000083,0.00000014,0.00000261,0.00000095,-0.00000068,-0.00000539
 ,-0.00000254,0.00003598,-0.00000489,-0.00000569,-0.00000452,-0.0000085
 2,0.00002458,-0.00000173,-0.00000766,0.00000560,0.00000804,0.00000637,
 -0.00000323,0.00000097,0.00000270,-0.00000205,0.00000099,0.00000876,-0
 .00000769,-0.00000176,0.00000215,-0.00000500,0.00000445,0.00001760,0.0
 0000472,-0.00001350,-0.00000240,-0.00000336,0.00000942,-0.00000085,0.0
 0000414,0.00000047,-0.00000725,-0.00000273,0.00000831,-0.00000548,0.00
 000597,0.00000099,0.00000150,-0.00000475,0.00000118,0.00000520,0.00000
 911,0.00000001,0.00000146,-0.00000269,-0.00001525,-0.00000507,0.000002
 18,-0.00001325,-0.00001148,-0.00000375,-0.00000104,-0.00000734,-0.0000
 2105,0.00001523,-0.00000172,0.00000358,0.00000907,0.00000458,0.0000075
 8,-0.00000427,0.00000468,0.00000024,-0.00000872\\\@


 THEREFORE SHALL EVIL COME UPON THEE...
 THOU SHALT NOT KNOW FROM WHENCE IT RISETH...
 AND MISCHIEF SHALL FALL UPON THEE...
 THOU SHALT NOT BE ABLE TO PUT IT OFF...
 AND DESOLATION SHALL COME UPON THEE SUDDENLY...
 WHICH THOU SHALT NOT KNOW...

                                         ISAIAH 47.11
 Job cpu time:       0 days  0 hours 32 minutes 53.2 seconds.
 File lengths (MBytes):  RWF=    221 Int=      0 D2E=      0 Chk=      6 Scr=      1
 Normal termination of Gaussian 09 at Sun Jan 15 22:07:27 2017.
