 Entering Gaussian System, Link 0=g09
 Initial command:
 /global/software/gaussian/g09.d01/l1.exe "/home/iawad/Gau-25461.inp" -scrdir="/home/iawad/"
 Entering Link 1 = /global/software/gaussian/g09.d01/l1.exe PID=     25462.
  
 Copyright (c) 1988,1990,1992,1993,1995,1998,2003,2009,2013,
            Gaussian, Inc.  All Rights Reserved.
  
 This is part of the Gaussian(R) 09 program.  It is based on
 the Gaussian(R) 03 system (copyright 2003, Gaussian, Inc.),
 the Gaussian(R) 98 system (copyright 1998, Gaussian, Inc.),
 the Gaussian(R) 94 system (copyright 1995, Gaussian, Inc.),
 the Gaussian 92(TM) system (copyright 1992, Gaussian, Inc.),
 the Gaussian 90(TM) system (copyright 1990, Gaussian, Inc.),
 the Gaussian 88(TM) system (copyright 1988, Gaussian, Inc.),
 the Gaussian 86(TM) system (copyright 1986, Carnegie Mellon
 University), and the Gaussian 82(TM) system (copyright 1983,
 Carnegie Mellon University). Gaussian is a federally registered
 trademark of Gaussian, Inc.
  
 This software contains proprietary and confidential information,
 including trade secrets, belonging to Gaussian, Inc.
  
 This software is provided under written license and may be
 used, copied, transmitted, or stored only in accord with that
 written license.
  
 The following legend is applicable only to US Government
 contracts under FAR:
  
                    RESTRICTED RIGHTS LEGEND
  
 Use, reproduction and disclosure by the US Government is
 subject to restrictions as set forth in subparagraphs (a)
 and (c) of the Commercial Computer Software - Restricted
 Rights clause in FAR 52.227-19.
  
 Gaussian, Inc.
 340 Quinnipiac St., Bldg. 40, Wallingford CT 06492
  
  
 ---------------------------------------------------------------
 Warning -- This program may not be used in any manner that
 competes with the business of Gaussian, Inc. or will provide
 assistance to any competitor of Gaussian, Inc.  The licensee
 of this program is prohibited from giving any competitor of
 Gaussian, Inc. access to this program.  By using this program,
 the user acknowledges that Gaussian, Inc. is engaged in the
 business of creating and licensing software in the field of
 computational chemistry and represents and warrants to the
 licensee that it is not a competitor of Gaussian, Inc. and that
 it will not use this program in any manner prohibited above.
 ---------------------------------------------------------------
  

 Cite this work as:
 Gaussian 09, Revision D.01,
 M. J. Frisch, G. W. Trucks, H. B. Schlegel, G. E. Scuseria, 
 M. A. Robb, J. R. Cheeseman, G. Scalmani, V. Barone, B. Mennucci, 
 G. A. Petersson, H. Nakatsuji, M. Caricato, X. Li, H. P. Hratchian, 
 A. F. Izmaylov, J. Bloino, G. Zheng, J. L. Sonnenberg, M. Hada, 
 M. Ehara, K. Toyota, R. Fukuda, J. Hasegawa, M. Ishida, T. Nakajima, 
 Y. Honda, O. Kitao, H. Nakai, T. Vreven, J. A. Montgomery, Jr., 
 J. E. Peralta, F. Ogliaro, M. Bearpark, J. J. Heyd, E. Brothers, 
 K. N. Kudin, V. N. Staroverov, T. Keith, R. Kobayashi, J. Normand, 
 K. Raghavachari, A. Rendell, J. C. Burant, S. S. Iyengar, J. Tomasi, 
 M. Cossi, N. Rega, J. M. Millam, M. Klene, J. E. Knox, J. B. Cross, 
 V. Bakken, C. Adamo, J. Jaramillo, R. Gomperts, R. E. Stratmann, 
 O. Yazyev, A. J. Austin, R. Cammi, C. Pomelli, J. W. Ochterski, 
 R. L. Martin, K. Morokuma, V. G. Zakrzewski, G. A. Voth, 
 P. Salvador, J. J. Dannenberg, S. Dapprich, A. D. Daniels, 
 O. Farkas, J. B. Foresman, J. V. Ortiz, J. Cioslowski, 
 and D. J. Fox, Gaussian, Inc., Wallingford CT, 2013.
 
 ******************************************
 Gaussian 09:  ES64L-G09RevD.01 24-Apr-2013
                25-Jan-2017 
 ******************************************
 %NPROCS=4
 Will use up to    4 processors via shared memory.
 ------------------------------------------------------
 # opt=(modredundant,MaxCycle=1000) freq B3LYP/6-31G(d)
 ------------------------------------------------------
 1/6=1000,14=-1,18=120,19=15,26=3,38=1/1,3;
 2/9=110,12=2,17=6,18=5,40=1/2;
 3/5=1,6=6,7=1,11=2,16=1,25=1,30=1,71=1,74=-5/1,2,3;
 4//1;
 5/5=2,38=5/2;
 6/7=2,8=2,9=2,10=2,28=1/1;
 7//1,2,3,16;
 1/6=1000,14=-1,18=20,19=15,26=3/3(2);
 2/9=110/2;
 99//99;
 2/9=110/2;
 3/5=1,6=6,7=1,11=2,16=1,25=1,30=1,71=1,74=-5/1,2,3;
 4/5=5,16=3,69=1/1;
 5/5=2,38=5/2;
 7//1,2,3,16;
 1/6=1000,14=-1,18=20,19=15,26=3/3(-5);
 2/9=110/2;
 6/7=2,8=2,9=2,10=2,19=2,28=1/1;
 99/9=1/99;
 -------------------------
 boat3_Alpha_B3LYP_6-31G_d
 -------------------------
 Symbolic Z-matrix:
 Charge =  0 Multiplicity = 1
 C                    -0.78594   0.45165   0.98442 
 C                     1.08811   0.30124  -0.80395 
 O                    -0.16254  -1.80227   0.06833 
 C                     1.12417  -1.20551  -0.52405 
 C                    -1.15629  -0.74405   0.20891 
 C                     0.50083   1.04827   0.39201 
 H                     1.27161   1.1097    1.17197 
 H                     0.53235   0.52716  -1.71544 
 H                    -1.90179  -1.24444   0.84594 
 H                    -1.58862   1.19388   1.0299 
 C                    -1.93876  -0.53068  -1.10336 
 H                    -2.33462  -1.48906  -1.46079 
 H                    -1.32211  -0.15336  -1.9176 
 O                    -3.02375   0.37117  -0.93218 
 H                    -3.71202  -0.0877   -0.41729 
 O                     2.42773   0.77833  -1.04631 
 H                     2.34158   1.75269  -1.09935 
 O                     0.29583   2.41451  -0.0136 
 H                    -0.66861   2.5658   -0.01364 
 O                    -0.5083    0.07564   2.34626 
 H                     0.05108  -0.72848   2.31675 
 H                     1.34799  -1.78361  -1.42576 
 O                     2.15433  -1.46783   0.42864 
 H                     2.22633  -2.44389   0.44902 
 O                    -0.03719  -4.35991   1.04941 
 H                    -0.2443   -4.83821   0.24322 
 H                    -0.15998  -3.41893   0.90428 
 O                     2.66241  -4.12344   0.99797 
 H                     3.21489  -3.76473   1.69632 
 H                     1.74039  -3.9404    1.19286 
 
 Add virtual bond connecting atoms O28        and H24        Dist= 3.44D+00.
 Add virtual bond connecting atoms H30        and H24        Dist= 3.29D+00.
 Add virtual bond connecting atoms O25        and H30        Dist= 3.46D+00.
 Add virtual bond connecting atoms H27        and O3         Dist= 3.44D+00.
 The following ModRedundant input section has been read:
 D       5       3       4       2 F                                           
 D       5       1       6       2 F                                           
 

 GradGradGradGradGradGradGradGradGradGradGradGradGradGradGradGradGradGrad
 Berny optimization.
 Initialization pass.
                           ----------------------------
                           !    Initial Parameters    !
                           ! (Angstroms and Degrees)  !
 --------------------------                            --------------------------
 ! Name  Definition              Value          Derivative Info.                !
 --------------------------------------------------------------------------------
 ! R1    R(1,5)                  1.4725         estimate D2E/DX2                !
 ! R2    R(1,6)                  1.5371         estimate D2E/DX2                !
 ! R3    R(1,10)                 1.0942         estimate D2E/DX2                !
 ! R4    R(1,20)                 1.4398         estimate D2E/DX2                !
 ! R5    R(2,4)                  1.533          estimate D2E/DX2                !
 ! R6    R(2,6)                  1.5275         estimate D2E/DX2                !
 ! R7    R(2,8)                  1.0912         estimate D2E/DX2                !
 ! R8    R(2,16)                 1.4425         estimate D2E/DX2                !
 ! R9    R(3,4)                  1.5371         estimate D2E/DX2                !
 ! R10   R(3,5)                  1.4585         estimate D2E/DX2                !
 ! R11   R(3,27)                 1.82           estimate D2E/DX2                !
 ! R12   R(4,22)                 1.0942         estimate D2E/DX2                !
 ! R13   R(4,23)                 1.4275         estimate D2E/DX2                !
 ! R14   R(5,9)                  1.1009         estimate D2E/DX2                !
 ! R15   R(5,11)                 1.5427         estimate D2E/DX2                !
 ! R16   R(6,7)                  1.0983         estimate D2E/DX2                !
 ! R17   R(6,18)                 1.4398         estimate D2E/DX2                !
 ! R18   R(11,12)                1.0968         estimate D2E/DX2                !
 ! R19   R(11,13)                1.0889         estimate D2E/DX2                !
 ! R20   R(11,14)                1.4212         estimate D2E/DX2                !
 ! R21   R(14,15)                0.9744         estimate D2E/DX2                !
 ! R22   R(16,17)                0.9796         estimate D2E/DX2                !
 ! R23   R(18,19)                0.9762         estimate D2E/DX2                !
 ! R24   R(20,21)                0.98           estimate D2E/DX2                !
 ! R25   R(23,24)                0.9789         estimate D2E/DX2                !
 ! R26   R(24,28)                1.82           estimate D2E/DX2                !
 ! R27   R(24,30)                1.7404         estimate D2E/DX2                !
 ! R28   R(25,26)                0.96           estimate D2E/DX2                !
 ! R29   R(25,27)                0.96           estimate D2E/DX2                !
 ! R30   R(25,30)                1.832          estimate D2E/DX2                !
 ! R31   R(28,29)                0.96           estimate D2E/DX2                !
 ! R32   R(28,30)                0.96           estimate D2E/DX2                !
 ! A1    A(5,1,6)              108.8295         estimate D2E/DX2                !
 ! A2    A(5,1,10)             112.8426         estimate D2E/DX2                !
 ! A3    A(5,1,20)             109.5473         estimate D2E/DX2                !
 ! A4    A(6,1,10)             111.5201         estimate D2E/DX2                !
 ! A5    A(6,1,20)             107.7268         estimate D2E/DX2                !
 ! A6    A(10,1,20)            106.2177         estimate D2E/DX2                !
 ! A7    A(4,2,6)              110.2902         estimate D2E/DX2                !
 ! A8    A(4,2,8)              111.5925         estimate D2E/DX2                !
 ! A9    A(4,2,16)             109.5059         estimate D2E/DX2                !
 ! A10   A(6,2,8)              110.912          estimate D2E/DX2                !
 ! A11   A(6,2,16)             109.0769         estimate D2E/DX2                !
 ! A12   A(8,2,16)             105.3174         estimate D2E/DX2                !
 ! A13   A(4,3,5)              109.0161         estimate D2E/DX2                !
 ! A14   A(4,3,27)             121.3787         estimate D2E/DX2                !
 ! A15   A(5,3,27)             126.9553         estimate D2E/DX2                !
 ! A16   A(2,4,3)              115.6121         estimate D2E/DX2                !
 ! A17   A(2,4,22)             111.939          estimate D2E/DX2                !
 ! A18   A(2,4,23)             108.6302         estimate D2E/DX2                !
 ! A19   A(3,4,22)             106.481          estimate D2E/DX2                !
 ! A20   A(3,4,23)             105.9958         estimate D2E/DX2                !
 ! A21   A(22,4,23)            107.7748         estimate D2E/DX2                !
 ! A22   A(1,5,3)              117.9409         estimate D2E/DX2                !
 ! A23   A(1,5,9)              103.5708         estimate D2E/DX2                !
 ! A24   A(1,5,11)             117.598          estimate D2E/DX2                !
 ! A25   A(3,5,9)              100.8004         estimate D2E/DX2                !
 ! A26   A(3,5,11)             111.3441         estimate D2E/DX2                !
 ! A27   A(9,5,11)             102.2173         estimate D2E/DX2                !
 ! A28   A(1,6,2)              115.7079         estimate D2E/DX2                !
 ! A29   A(1,6,7)              109.604          estimate D2E/DX2                !
 ! A30   A(1,6,18)             110.9582         estimate D2E/DX2                !
 ! A31   A(2,6,7)              108.2736         estimate D2E/DX2                !
 ! A32   A(2,6,18)             107.3515         estimate D2E/DX2                !
 ! A33   A(7,6,18)             104.2945         estimate D2E/DX2                !
 ! A34   A(5,11,12)            109.8416         estimate D2E/DX2                !
 ! A35   A(5,11,13)            113.3772         estimate D2E/DX2                !
 ! A36   A(5,11,14)            111.8717         estimate D2E/DX2                !
 ! A37   A(12,11,13)           105.2785         estimate D2E/DX2                !
 ! A38   A(12,11,14)           108.5541         estimate D2E/DX2                !
 ! A39   A(13,11,14)           107.6093         estimate D2E/DX2                !
 ! A40   A(11,14,15)           107.7023         estimate D2E/DX2                !
 ! A41   A(2,16,17)            104.8561         estimate D2E/DX2                !
 ! A42   A(6,18,19)            106.7219         estimate D2E/DX2                !
 ! A43   A(1,20,21)            107.2095         estimate D2E/DX2                !
 ! A44   A(4,23,24)            104.4891         estimate D2E/DX2                !
 ! A45   A(23,24,28)           160.7401         estimate D2E/DX2                !
 ! A46   A(23,24,30)           147.748          estimate D2E/DX2                !
 ! A47   A(26,25,27)           109.5            estimate D2E/DX2                !
 ! A48   A(26,25,30)           112.9026         estimate D2E/DX2                !
 ! A49   A(27,25,30)            84.9218         estimate D2E/DX2                !
 ! A50   A(3,27,25)            160.1021         estimate D2E/DX2                !
 ! A51   A(24,28,29)            90.7152         estimate D2E/DX2                !
 ! A52   A(29,28,30)           109.5            estimate D2E/DX2                !
 ! A53   A(24,30,25)           115.7439         estimate D2E/DX2                !
 ! A54   A(25,30,28)           150.7302         estimate D2E/DX2                !
 ! D1    D(6,1,5,3)             55.2048         estimate D2E/DX2                !
 ! D2    D(6,1,5,9)            165.4619         estimate D2E/DX2                !
 ! D3    D(6,1,5,11)           -82.7096         estimate D2E/DX2                !
 ! D4    D(10,1,5,3)           179.5512         estimate D2E/DX2                !
 ! D5    D(10,1,5,9)           -70.1918         estimate D2E/DX2                !
 ! D6    D(10,1,5,11)           41.6367         estimate D2E/DX2                !
 ! D7    D(20,1,5,3)           -62.34           estimate D2E/DX2                !
 ! D8    D(20,1,5,9)            47.917          estimate D2E/DX2                !
 ! D9    D(20,1,5,11)          159.7455         estimate D2E/DX2                !
 ! D10   D(5,1,6,2)             -0.4133         Frozen                          !
 ! D11   D(5,1,6,7)           -123.1572         estimate D2E/DX2                !
 ! D12   D(5,1,6,18)           122.1919         estimate D2E/DX2                !
 ! D13   D(10,1,6,2)          -125.5374         estimate D2E/DX2                !
 ! D14   D(10,1,6,7)           111.7187         estimate D2E/DX2                !
 ! D15   D(10,1,6,18)           -2.9322         estimate D2E/DX2                !
 ! D16   D(20,1,6,2)           118.2805         estimate D2E/DX2                !
 ! D17   D(20,1,6,7)            -4.4635         estimate D2E/DX2                !
 ! D18   D(20,1,6,18)         -119.1143         estimate D2E/DX2                !
 ! D19   D(5,1,20,21)           44.9054         estimate D2E/DX2                !
 ! D20   D(6,1,20,21)          -73.3276         estimate D2E/DX2                !
 ! D21   D(10,1,20,21)         167.0653         estimate D2E/DX2                !
 ! D22   D(6,2,4,3)             46.3676         estimate D2E/DX2                !
 ! D23   D(6,2,4,22)           168.5259         estimate D2E/DX2                !
 ! D24   D(6,2,4,23)           -72.5861         estimate D2E/DX2                !
 ! D25   D(8,2,4,3)            -77.3839         estimate D2E/DX2                !
 ! D26   D(8,2,4,22)            44.7744         estimate D2E/DX2                !
 ! D27   D(8,2,4,23)           163.6623         estimate D2E/DX2                !
 ! D28   D(16,2,4,3)           166.4101         estimate D2E/DX2                !
 ! D29   D(16,2,4,22)          -71.4316         estimate D2E/DX2                !
 ! D30   D(16,2,4,23)           47.4564         estimate D2E/DX2                !
 ! D31   D(4,2,6,1)            -46.417          estimate D2E/DX2                !
 ! D32   D(4,2,6,7)             77.0274         estimate D2E/DX2                !
 ! D33   D(4,2,6,18)          -170.9118         estimate D2E/DX2                !
 ! D34   D(8,2,6,1)             77.7277         estimate D2E/DX2                !
 ! D35   D(8,2,6,7)           -158.8279         estimate D2E/DX2                !
 ! D36   D(8,2,6,18)           -46.7672         estimate D2E/DX2                !
 ! D37   D(16,2,6,1)          -166.7178         estimate D2E/DX2                !
 ! D38   D(16,2,6,7)           -43.2735         estimate D2E/DX2                !
 ! D39   D(16,2,6,18)           68.7873         estimate D2E/DX2                !
 ! D40   D(4,2,16,17)         -172.8413         estimate D2E/DX2                !
 ! D41   D(6,2,16,17)          -52.0593         estimate D2E/DX2                !
 ! D42   D(8,2,16,17)           67.0388         estimate D2E/DX2                !
 ! D43   D(5,3,4,2)              0.8156         Frozen                          !
 ! D44   D(5,3,4,22)          -124.2076         estimate D2E/DX2                !
 ! D45   D(5,3,4,23)           121.2107         estimate D2E/DX2                !
 ! D46   D(27,3,4,2)          -161.9355         estimate D2E/DX2                !
 ! D47   D(27,3,4,22)           73.0413         estimate D2E/DX2                !
 ! D48   D(27,3,4,23)          -41.5404         estimate D2E/DX2                !
 ! D49   D(4,3,5,1)            -55.298          estimate D2E/DX2                !
 ! D50   D(4,3,5,9)           -167.111          estimate D2E/DX2                !
 ! D51   D(4,3,5,11)            85.08           estimate D2E/DX2                !
 ! D52   D(27,3,5,1)           106.2325         estimate D2E/DX2                !
 ! D53   D(27,3,5,9)            -5.5804         estimate D2E/DX2                !
 ! D54   D(27,3,5,11)         -113.3895         estimate D2E/DX2                !
 ! D55   D(4,3,27,25)          -57.0905         estimate D2E/DX2                !
 ! D56   D(5,3,27,25)          143.4469         estimate D2E/DX2                !
 ! D57   D(2,4,23,24)         -170.79           estimate D2E/DX2                !
 ! D58   D(3,4,23,24)           64.3764         estimate D2E/DX2                !
 ! D59   D(22,4,23,24)         -49.3155         estimate D2E/DX2                !
 ! D60   D(1,5,11,12)         -167.7753         estimate D2E/DX2                !
 ! D61   D(1,5,11,13)           74.7618         estimate D2E/DX2                !
 ! D62   D(1,5,11,14)          -47.1534         estimate D2E/DX2                !
 ! D63   D(3,5,11,12)           51.6976         estimate D2E/DX2                !
 ! D64   D(3,5,11,13)          -65.7652         estimate D2E/DX2                !
 ! D65   D(3,5,11,14)          172.3196         estimate D2E/DX2                !
 ! D66   D(9,5,11,12)          -55.1878         estimate D2E/DX2                !
 ! D67   D(9,5,11,13)         -172.6507         estimate D2E/DX2                !
 ! D68   D(9,5,11,14)           65.4341         estimate D2E/DX2                !
 ! D69   D(1,6,18,19)          -13.4652         estimate D2E/DX2                !
 ! D70   D(2,6,18,19)          113.86           estimate D2E/DX2                !
 ! D71   D(7,6,18,19)         -131.3931         estimate D2E/DX2                !
 ! D72   D(5,11,14,15)         -72.2425         estimate D2E/DX2                !
 ! D73   D(12,11,14,15)         49.1258         estimate D2E/DX2                !
 ! D74   D(13,11,14,15)        162.5886         estimate D2E/DX2                !
 ! D75   D(4,23,24,28)        -164.4019         estimate D2E/DX2                !
 ! D76   D(4,23,24,30)         -93.3465         estimate D2E/DX2                !
 ! D77   D(23,24,28,29)         -7.6731         estimate D2E/DX2                !
 ! D78   D(23,24,30,25)         63.8278         estimate D2E/DX2                !
 ! D79   D(26,25,27,3)         -36.6643         estimate D2E/DX2                !
 ! D80   D(30,25,27,3)          75.8556         estimate D2E/DX2                !
 ! D81   D(26,25,30,24)         87.2842         estimate D2E/DX2                !
 ! D82   D(26,25,30,28)        -27.9737         estimate D2E/DX2                !
 ! D83   D(27,25,30,24)        -21.7577         estimate D2E/DX2                !
 ! D84   D(27,25,30,28)       -137.0156         estimate D2E/DX2                !
 ! D85   D(24,28,29,30)         68.8115         estimate D2E/DX2                !
 ! D86   D(29,28,30,25)       -152.7497         estimate D2E/DX2                !
 --------------------------------------------------------------------------------
 Trust Radius=3.00D-01 FncErr=1.00D-07 GrdErr=1.00D-06
 Number of steps in this run=    180 maximum allowed number of steps=    180.
 GradGradGradGradGradGradGradGradGradGradGradGradGradGradGradGradGradGrad

                          Input orientation:                          
 ---------------------------------------------------------------------
 Center     Atomic      Atomic             Coordinates (Angstroms)
 Number     Number       Type             X           Y           Z
 ---------------------------------------------------------------------
      1          6           0       -0.785935    0.451645    0.984424
      2          6           0        1.088111    0.301241   -0.803953
      3          8           0       -0.162541   -1.802266    0.068333
      4          6           0        1.124171   -1.205514   -0.524045
      5          6           0       -1.156290   -0.744054    0.208906
      6          6           0        0.500833    1.048272    0.392011
      7          1           0        1.271610    1.109701    1.171965
      8          1           0        0.532346    0.527163   -1.715437
      9          1           0       -1.901792   -1.244444    0.845944
     10          1           0       -1.588616    1.193878    1.029900
     11          6           0       -1.938762   -0.530684   -1.103363
     12          1           0       -2.334622   -1.489061   -1.460786
     13          1           0       -1.322109   -0.153361   -1.917604
     14          8           0       -3.023749    0.371170   -0.932177
     15          1           0       -3.712017   -0.087700   -0.417292
     16          8           0        2.427726    0.778325   -1.046310
     17          1           0        2.341584    1.752691   -1.099346
     18          8           0        0.295828    2.414508   -0.013597
     19          1           0       -0.668615    2.565802   -0.013642
     20          8           0       -0.508303    0.075642    2.346262
     21          1           0        0.051083   -0.728477    2.316754
     22          1           0        1.347989   -1.783608   -1.425757
     23          8           0        2.154329   -1.467825    0.428641
     24          1           0        2.226334   -2.443891    0.449016
     25          8           0       -0.037190   -4.359915    1.049406
     26          1           0       -0.244299   -4.838206    0.243215
     27          1           0       -0.159977   -3.418925    0.904279
     28          8           0        2.662408   -4.123443    0.997966
     29          1           0        3.214889   -3.764732    1.696315
     30          1           0        1.740392   -3.940399    1.192855
 ---------------------------------------------------------------------
                    Distance matrix (angstroms):
                    1          2          3          4          5
     1  C    0.000000
     2  C    2.594795   0.000000
     3  O    2.511565   2.598029   0.000000
     4  C    2.944513   1.532958   1.537092   0.000000
     5  C    1.472510   2.675044   1.458462   2.439398   0.000000
     6  C    1.537104   1.527508   2.944554   2.511426   2.447860
     7  H    2.168341   2.142786   3.428461   2.873745   3.202903
     8  H    3.005465   1.091201   3.015119   2.184454   2.858423
     9  H    2.034952   3.748443   1.985154   3.321873   1.100900
    10  H    1.094200   3.365217   3.454733   3.940944   2.148608
    11  C    2.579309   3.153364   2.478861   3.189446   1.542673
    12  H    3.484799   3.918126   2.674741   3.594598   2.175172
    13  H    3.012521   2.693704   2.829741   3.005548   2.213246
    14  O    2.947481   4.114453   3.729793   4.456203   2.456257
    15  H    3.289021   4.831357   3.971693   4.964838   2.711949
    16  O    3.815523   1.442537   3.822481   2.430562   4.091256
    17  H    3.976958   1.940402   4.502426   3.250237   4.492258
    18  O    2.453383   2.391291   4.242405   3.748502   3.483485
    19  H    2.340846   2.973031   4.398050   4.206829   3.352984
    20  O    1.439813   3.538826   2.972381   3.541891   2.379092
    21  H    1.966822   3.445948   2.500811   3.073959   2.429201
    22  H    3.919051   2.191066   2.124701   1.094245   3.166103
    23  O    3.555054   2.405349   2.368451   1.427460   3.395928
    24  H    4.212429   3.225094   2.502664   1.922287   3.793316
    25  O    4.869903   5.140780   2.742223   3.711436   3.877277
    26  H    5.368918   5.411635   3.042072   3.957000   4.194638
    27  H    3.921678   4.279652   1.820000   2.930586   2.937877
    28  O    5.729108   5.030223   3.772587   3.632767   5.159974
    29  H    5.855870   5.225578   4.231859   3.981293   5.517616
    30  H    5.071077   4.733310   3.075275   3.287411   4.424426
                    6          7          8          9         10
     6  C    0.000000
     7  H    1.098271   0.000000
     8  H    2.171148   3.036931   0.000000
     9  H    3.351896   3.964690   3.952757   0.000000
    10  H    2.189498   2.864989   3.532685   2.465225   0.000000
    11  C    3.268160   4.263152   2.756819   2.076203   2.765416
    12  H    4.232106   5.166222   3.514187   2.359700   3.736068
    13  H    3.178264   4.227072   1.985696   3.027159   3.251747
    14  O    3.825522   4.839726   3.644673   2.651549   2.566360
    15  H    4.437737   5.366195   4.480832   2.492135   2.871522
    16  O    2.419619   2.523323   2.025655   5.139742   4.540301
    17  H    2.471582   2.591743   2.270425   5.547361   4.504712
    18  O    1.439842   2.015001   2.552307   4.353880   2.475874
    19  H    1.958331   2.700068   2.914525   4.096045   1.953857
    20  O    2.404883   2.369882   4.217134   2.436266   2.037238
    21  H    2.657771   2.485785   4.250507   2.498645   2.835499
    22  H    3.470086   3.889117   2.467560   4.001550   4.849672
    23  O    3.011002   2.824069   3.347817   4.083645   4.632042
    24  H    3.895614   3.749956   4.047421   4.317134   5.303266
    25  O    5.474498   5.625360   5.643781   3.636523   5.766448
    26  H    5.935317   6.207911   5.764259   4.003210   6.229936
    27  H    4.544771   4.757053   4.786840   2.786699   4.830605
    28  O    5.637927   5.417600   5.790324   5.398487   6.807799
    29  H    5.677351   5.273649   6.103806   5.766750   6.935819
    30  H    5.202374   5.071854   5.465953   4.544670   6.121246
                   11         12         13         14         15
    11  C    0.000000
    12  H    1.096787   0.000000
    13  H    1.088863   1.737228   0.000000
    14  O    1.421211   2.052994   2.035136   0.000000
    15  H    1.952271   2.224839   2.822571   0.974362   0.000000
    16  O    4.558835   5.290821   3.960865   5.467850   6.232344
    17  H    4.851307   5.701447   4.210134   5.542864   6.363829
    18  O    3.854236   4.924579   3.582864   4.004823   4.742029
    19  H    3.519799   4.616461   3.383189   3.347652   4.057869
    20  O    3.783353   4.503038   4.346870   4.142821   4.234111
    21  H    3.961793   4.532095   4.488452   4.606449   4.695373
    22  H    3.532207   3.694538   3.166866   4.898855   5.431093
    23  O    4.469750   4.870428   4.395259   5.660938   6.085586
    24  H    4.839242   5.036007   4.841370   6.115197   6.447181
    25  O    4.786794   4.452085   5.305588   5.935434   5.823004
    26  H    4.820708   4.299982   5.270540   6.020340   5.918501
    27  H    3.941654   3.747931   4.469618   5.092993   5.045850
    28  O    6.204374   6.160823   6.335493   7.500625   7.676162
    29  H    6.697565   6.778129   6.832771   7.933175   8.122187
    30  H    5.516788   5.445788   5.778886   6.767749   6.867651
                   16         17         18         19         20
    16  O    0.000000
    17  H    0.979603   0.000000
    18  O    2.878989   2.408728   0.000000
    19  H    3.721398   3.301696   0.976237   0.000000
    20  O    4.541319   4.775622   3.418458   3.434493   0.000000
    21  H    4.385098   4.803366   3.920305   4.098900   0.979995
    22  H    2.805942   3.687707   4.552518   4.997812   4.596820
    23  O    2.701003   3.569528   4.326905   4.943154   3.626178
    24  H    3.557982   4.474596   5.248324   5.804464   4.174425
    25  O    6.072014   6.902149   6.865398   7.035220   4.645207
    26  H    6.352009   7.206191   7.277331   7.420603   5.351486
    27  H    5.302633   6.084237   5.922770   6.076039   3.796399
    28  O    5.316151   6.247447   7.026290   7.540892   5.431723
    29  H    5.364791   6.246626   7.044695   7.621103   5.388234
    30  H    5.268078   6.166595   6.627755   7.041988   4.745056
                   21         22         23         24         25
    21  H    0.000000
    22  H    4.098982   0.000000
    23  O    2.921515   2.046630   0.000000
    24  H    3.341079   2.173071   0.978930   0.000000
    25  O    3.847246   3.831777   3.681344   3.025749   0.000000
    26  H    4.612666   3.827717   4.140926   3.446611   0.960000
    27  H    3.046005   3.221381   3.064154   2.617716   0.960000
    28  O    4.481519   3.616207   2.763074   1.820000   2.710423
    29  H    4.428708   4.142161   2.829764   2.068240   3.368791
    30  H    3.799126   3.415092   2.620876   1.740394   1.832040
                   26         27         28         29         30
    26  H    0.000000
    27  H    1.567952   0.000000
    28  O    3.086985   2.910495   0.000000
    29  H    3.902541   3.483766   0.960000   0.000000
    30  H    2.376314   1.991636   0.960000   1.567952   0.000000
 Stoichiometry    C6H16O8
 Framework group  C1[X(C6H16O8)]
 Deg. of freedom    84
 Full point group                 C1      NOp   1
 Largest Abelian subgroup         C1      NOp   1
 Largest concise Abelian subgroup C1      NOp   1
                         Standard orientation:                         
 ---------------------------------------------------------------------
 Center     Atomic      Atomic             Coordinates (Angstroms)
 Number     Number       Type             X           Y           Z
 ---------------------------------------------------------------------
      1          6           0       -1.327289   -0.404961    1.068977
      2          6           0       -0.689331    1.327648   -0.754218
      3          8           0        0.728849   -0.804767   -0.316811
      4          6           0        0.686866    0.653877   -0.799767
      5          6           0       -0.616349   -1.217075    0.067317
      6          6           0       -1.369146    1.053679    0.585959
      7          1           0       -0.913256    1.705768    1.343022
      8          1           0       -1.321087    1.007012   -1.584155
      9          1           0       -0.399970   -2.155006    0.601588
     10          1           0       -2.329942   -0.783858    1.288972
     11          6           0       -1.420918   -1.713829   -1.151593
     12          1           0       -0.844299   -2.472948   -1.693987
     13          1           0       -1.625149   -0.932531   -1.881994
     14          8           0       -2.666686   -2.280481   -0.768436
     15          1           0       -2.484116   -3.139364   -0.346100
     16          8           0       -0.534064    2.751997   -0.921658
     17          1           0       -1.427551    3.122100   -0.765684
     18          8           0       -2.726332    1.523342    0.482959
     19          1           0       -3.300929    0.735999    0.537457
     20          8           0       -0.604357   -0.433977    2.313802
     21          1           0        0.343110   -0.300363    2.102039
     22          1           0        1.111559    0.659332   -1.808220
     23          8           0        1.576497    1.375898    0.051635
     24          1           0        2.458481    0.994986   -0.136282
     25          8           0        3.194612   -1.930425    0.098757
     26          1           0        3.353621   -2.269486   -0.785185
     27          1           0        2.294915   -1.600926    0.158553
     28          8           0        4.221541    0.577118    0.035203
     29          1           0        4.303540    1.176722    0.780422
     30          1           0        3.677595   -0.173133    0.285895
 ---------------------------------------------------------------------
 Rotational constants (GHZ):      0.7461619      0.4611131      0.3603438
 Standard basis: 6-31G(d) (6D, 7F)
 There are   242 symmetry adapted cartesian basis functions of A   symmetry.
 There are   242 symmetry adapted basis functions of A   symmetry.
   242 basis functions,   456 primitive gaussians,   242 cartesian basis functions
    58 alpha electrons       58 beta electrons
       nuclear repulsion energy      1096.2399228863 Hartrees.
 NAtoms=   30 NActive=   30 NUniq=   30 SFac= 1.00D+00 NAtFMM=   60 NAOKFM=F Big=F
 Integral buffers will be    131072 words long.
 Raffenetti 2 integral format.
 Two-electron integral symmetry is turned on.
 One-electron integrals computed using PRISM.
 NBasis=   242 RedAO= T EigKep=  1.29D-03  NBF=   242
 NBsUse=   242 1.00D-06 EigRej= -1.00D+00 NBFU=   242
 ExpMin= 1.61D-01 ExpMax= 5.48D+03 ExpMxC= 8.25D+02 IAcc=1 IRadAn=         1 AccDes= 0.00D+00
 Harris functional with IExCor=  402 and IRadAn=       1 diagonalized for initial guess.
 HarFok:  IExCor=  402 AccDes= 0.00D+00 IRadAn=         1 IDoV= 1 UseB2=F ITyADJ=14
 ICtDFT=  3500011 ScaDFX=  1.000000  1.000000  1.000000  1.000000
 FoFCou: FMM=F IPFlag=           0 FMFlag=      100000 FMFlg1=           0
         NFxFlg=           0 DoJE=T BraDBF=F KetDBF=T FulRan=T
         wScrn=  0.000000 ICntrl=     500 IOpCl=  0 I1Cent=   200000004 NGrid=           0
         NMat0=    1 NMatS0=      1 NMatT0=    0 NMatD0=    1 NMtDS0=    0 NMtDT0=    0
 Petite list used in FoFCou.
 Requested convergence on RMS density matrix=1.00D-08 within 128 cycles.
 Requested convergence on MAX density matrix=1.00D-06.
 Requested convergence on             energy=1.00D-06.
 No special actions if energy rises.
 Integral accuracy reduced to 1.0D-05 until final iterations.
 Initial convergence to 1.0D-05 achieved.  Increase integral accuracy.
 SCF Done:  E(RB3LYP) =  -839.942331604     A.U. after   14 cycles
            NFock= 14  Conv=0.68D-08     -V/T= 2.0084

 **********************************************************************

            Population analysis using the SCF density.

 **********************************************************************

 Orbital symmetries:
       Occupied  (A) (A) (A) (A) (A) (A) (A) (A) (A) (A) (A) (A)
                 (A) (A) (A) (A) (A) (A) (A) (A) (A) (A) (A) (A)
                 (A) (A) (A) (A) (A) (A) (A) (A) (A) (A) (A) (A)
                 (A) (A) (A) (A) (A) (A) (A) (A) (A) (A) (A) (A)
                 (A) (A) (A) (A) (A) (A) (A) (A) (A) (A)
       Virtual   (A) (A) (A) (A) (A) (A) (A) (A) (A) (A) (A) (A)
                 (A) (A) (A) (A) (A) (A) (A) (A) (A) (A) (A) (A)
                 (A) (A) (A) (A) (A) (A) (A) (A) (A) (A) (A) (A)
                 (A) (A) (A) (A) (A) (A) (A) (A) (A) (A) (A) (A)
                 (A) (A) (A) (A) (A) (A) (A) (A) (A) (A) (A) (A)
                 (A) (A) (A) (A) (A) (A) (A) (A) (A) (A) (A) (A)
                 (A) (A) (A) (A) (A) (A) (A) (A) (A) (A) (A) (A)
                 (A) (A) (A) (A) (A) (A) (A) (A) (A) (A) (A) (A)
                 (A) (A) (A) (A) (A) (A) (A) (A) (A) (A) (A) (A)
                 (A) (A) (A) (A) (A) (A) (A) (A) (A) (A) (A) (A)
                 (A) (A) (A) (A) (A) (A) (A) (A) (A) (A) (A) (A)
                 (A) (A) (A) (A) (A) (A) (A) (A) (A) (A) (A) (A)
                 (A) (A) (A) (A) (A) (A) (A) (A) (A) (A) (A) (A)
                 (A) (A) (A) (A) (A) (A) (A) (A) (A) (A) (A) (A)
                 (A) (A) (A) (A) (A) (A) (A) (A) (A) (A) (A) (A)
                 (A) (A) (A) (A)
 The electronic state is 1-A.
 Alpha  occ. eigenvalues --  -19.19760 -19.17516 -19.15648 -19.15411 -19.15184
 Alpha  occ. eigenvalues --  -19.14965 -19.14891 -19.14188 -10.30769 -10.26049
 Alpha  occ. eigenvalues --  -10.25674 -10.25665 -10.25287 -10.24107  -1.07102
 Alpha  occ. eigenvalues --   -1.04603  -1.03648  -1.02767  -1.01944  -1.01167
 Alpha  occ. eigenvalues --   -1.00793  -0.99641  -0.80156  -0.77165  -0.71257
 Alpha  occ. eigenvalues --   -0.66467  -0.64224  -0.58001  -0.55905  -0.55302
 Alpha  occ. eigenvalues --   -0.55042  -0.53816  -0.53054  -0.50761  -0.49671
 Alpha  occ. eigenvalues --   -0.48613  -0.47497  -0.47420  -0.44486  -0.43473
 Alpha  occ. eigenvalues --   -0.42425  -0.40607  -0.40030  -0.38469  -0.37691
 Alpha  occ. eigenvalues --   -0.36960  -0.36364  -0.35819  -0.33879  -0.33379
 Alpha  occ. eigenvalues --   -0.32128  -0.31264  -0.30277  -0.29466  -0.29354
 Alpha  occ. eigenvalues --   -0.28604  -0.27603  -0.25902
 Alpha virt. eigenvalues --    0.03088   0.03737   0.05584   0.06120   0.07750
 Alpha virt. eigenvalues --    0.08207   0.09746   0.10211   0.11915   0.12852
 Alpha virt. eigenvalues --    0.13733   0.14415   0.15268   0.16049   0.17190
 Alpha virt. eigenvalues --    0.18707   0.19137   0.20253   0.22254   0.22808
 Alpha virt. eigenvalues --    0.23950   0.25499   0.26385   0.27258   0.28631
 Alpha virt. eigenvalues --    0.29401   0.33710   0.36013   0.49026   0.50306
 Alpha virt. eigenvalues --    0.52692   0.54931   0.56057   0.58038   0.60075
 Alpha virt. eigenvalues --    0.60825   0.63074   0.65381   0.67004   0.67143
 Alpha virt. eigenvalues --    0.67951   0.70755   0.71806   0.74589   0.75191
 Alpha virt. eigenvalues --    0.76615   0.78333   0.78955   0.79994   0.80572
 Alpha virt. eigenvalues --    0.81495   0.82105   0.83001   0.83734   0.84851
 Alpha virt. eigenvalues --    0.86054   0.86621   0.86851   0.87716   0.88463
 Alpha virt. eigenvalues --    0.89799   0.90618   0.90839   0.93275   0.93641
 Alpha virt. eigenvalues --    0.96204   0.97370   0.98138   1.01070   1.02232
 Alpha virt. eigenvalues --    1.02799   1.03777   1.05175   1.05669   1.07215
 Alpha virt. eigenvalues --    1.08143   1.08804   1.10196   1.10866   1.11836
 Alpha virt. eigenvalues --    1.13757   1.17890   1.19377   1.20685   1.21888
 Alpha virt. eigenvalues --    1.26402   1.27281   1.28580   1.32091   1.33090
 Alpha virt. eigenvalues --    1.34557   1.40023   1.41226   1.42754   1.49130
 Alpha virt. eigenvalues --    1.49230   1.51721   1.54352   1.55182   1.58157
 Alpha virt. eigenvalues --    1.61269   1.61768   1.64543   1.67759   1.69370
 Alpha virt. eigenvalues --    1.70619   1.72871   1.73330   1.73603   1.74179
 Alpha virt. eigenvalues --    1.75032   1.75435   1.76185   1.77666   1.79162
 Alpha virt. eigenvalues --    1.79806   1.80745   1.81720   1.83725   1.85648
 Alpha virt. eigenvalues --    1.87259   1.89346   1.90181   1.91175   1.92207
 Alpha virt. eigenvalues --    1.94779   1.98077   1.98666   2.00500   2.02592
 Alpha virt. eigenvalues --    2.05222   2.08032   2.09429   2.13939   2.14741
 Alpha virt. eigenvalues --    2.16200   2.20752   2.23656   2.27076   2.29280
 Alpha virt. eigenvalues --    2.31715   2.32340   2.33066   2.37133   2.39004
 Alpha virt. eigenvalues --    2.40286   2.40792   2.42953   2.45847   2.46783
 Alpha virt. eigenvalues --    2.48272   2.49191   2.52845   2.53756   2.56126
 Alpha virt. eigenvalues --    2.57950   2.60504   2.64817   2.66089   2.70839
 Alpha virt. eigenvalues --    2.72810   2.75970   2.82944   2.85249   2.89550
 Alpha virt. eigenvalues --    2.91223   2.93533   2.99758   3.03432   3.04543
 Alpha virt. eigenvalues --    3.69050   3.72066   3.72833   3.76210   3.82509
 Alpha virt. eigenvalues --    3.92069   3.97859   4.06163   4.31872   4.34953
 Alpha virt. eigenvalues --    4.47371   4.56370   4.56987   4.78201
          Condensed to atoms (all electrons):
               1          2          3          4          5          6
     1  C    5.042844  -0.026807  -0.030768  -0.007844   0.284191   0.229801
     2  C   -0.026807   5.021885  -0.023134   0.270821   0.000385   0.277184
     3  O   -0.030768  -0.023134   8.401455   0.162018   0.174888  -0.010376
     4  C   -0.007844   0.270821   0.162018   4.808408  -0.030604  -0.020430
     5  C    0.284191   0.000385   0.174888  -0.030604   5.122607  -0.032982
     6  C    0.229801   0.277184  -0.010376  -0.020430  -0.032982   5.091158
     7  H   -0.038172  -0.049141   0.000535  -0.006428   0.001442   0.369553
     8  H    0.002678   0.350613   0.002559  -0.048765  -0.004660  -0.043078
     9  H   -0.057406   0.000185  -0.041066   0.005155   0.355168   0.008981
    10  H    0.362625   0.003874   0.002465   0.000201  -0.034075  -0.051526
    11  C   -0.046769  -0.006584  -0.031554  -0.007189   0.271737  -0.002348
    12  H    0.006416   0.000173   0.005321   0.000056  -0.037803  -0.000223
    13  H   -0.006171  -0.000247   0.001370   0.001711  -0.045000   0.001255
    14  O   -0.001496   0.000064   0.001355   0.000094  -0.046577   0.000167
    15  H   -0.001295  -0.000006   0.000009   0.000008  -0.001606   0.000018
    16  O    0.004137   0.228523   0.000557  -0.037685  -0.000092  -0.031695
    17  H    0.000384  -0.026626  -0.000036   0.006726  -0.000041  -0.009456
    18  O   -0.013663  -0.046351   0.000045   0.003653   0.000438   0.202504
    19  H   -0.008143   0.002677   0.000031  -0.000192  -0.000183  -0.037473
    20  O    0.236830   0.002483  -0.003109   0.000844  -0.033674  -0.050183
    21  H   -0.033256  -0.001705   0.011204   0.000617  -0.006485  -0.002090
    22  H   -0.000308  -0.047235  -0.043624   0.370543   0.003296   0.005692
    23  O    0.001932  -0.045174  -0.054741   0.255346  -0.000765  -0.002499
    24  H   -0.000044   0.003954   0.003027  -0.015428  -0.000052  -0.000172
    25  O   -0.000021  -0.000007  -0.018943   0.001135   0.000480   0.000000
    26  H    0.000003   0.000002   0.001439   0.000061  -0.000006   0.000000
    27  H    0.000288   0.000226   0.048971  -0.002034  -0.001409  -0.000016
    28  O    0.000000  -0.000033  -0.000182  -0.001102  -0.000001   0.000000
    29  H    0.000000  -0.000002   0.000023  -0.000125   0.000000   0.000000
    30  H    0.000003   0.000057   0.000460   0.000925   0.000031   0.000001
               7          8          9         10         11         12
     1  C   -0.038172   0.002678  -0.057406   0.362625  -0.046769   0.006416
     2  C   -0.049141   0.350613   0.000185   0.003874  -0.006584   0.000173
     3  O    0.000535   0.002559  -0.041066   0.002465  -0.031554   0.005321
     4  C   -0.006428  -0.048765   0.005155   0.000201  -0.007189   0.000056
     5  C    0.001442  -0.004660   0.355168  -0.034075   0.271737  -0.037803
     6  C    0.369553  -0.043078   0.008981  -0.051526  -0.002348  -0.000223
     7  H    0.555567   0.006448  -0.000337   0.000977  -0.000100   0.000007
     8  H    0.006448   0.624993   0.000033  -0.000242  -0.001786   0.000256
     9  H   -0.000337   0.000033   0.639529  -0.004130  -0.045954  -0.010596
    10  H    0.000977  -0.000242  -0.004130   0.566997  -0.005455   0.000418
    11  C   -0.000100  -0.001786  -0.045954  -0.005455   5.013424   0.355885
    12  H    0.000007   0.000256  -0.010596   0.000418   0.355885   0.615096
    13  H   -0.000019   0.009612   0.006408   0.000019   0.368780  -0.039861
    14  O   -0.000005   0.000060   0.001671   0.016494   0.234511  -0.029946
    15  H    0.000000  -0.000003   0.005204  -0.000031  -0.030278  -0.009508
    16  O    0.002041  -0.037546   0.000002  -0.000053   0.000096  -0.000003
    17  H    0.000163  -0.001251   0.000001  -0.000013  -0.000002   0.000000
    18  O   -0.041187   0.002660  -0.000126  -0.002790   0.001102   0.000005
    19  H    0.006019   0.001149  -0.000094   0.011083   0.000280   0.000013
    20  O    0.003238  -0.000098   0.002730  -0.033357   0.004199  -0.000065
    21  H    0.000922   0.000012  -0.002820   0.006037   0.000715  -0.000017
    22  H   -0.000078  -0.005567  -0.000289   0.000018   0.000862   0.000016
    23  O    0.005326   0.003149  -0.000228  -0.000005  -0.000016   0.000008
    24  H   -0.000009  -0.000097  -0.000003   0.000000   0.000003  -0.000001
    25  O    0.000000   0.000000   0.000596   0.000000  -0.000029   0.000000
    26  H    0.000000   0.000000  -0.000007   0.000000  -0.000005   0.000018
    27  H   -0.000002  -0.000006  -0.001390  -0.000005   0.000380   0.000067
    28  O    0.000000   0.000000   0.000000   0.000000   0.000000   0.000000
    29  H    0.000000   0.000000   0.000000   0.000000   0.000000   0.000000
    30  H    0.000000   0.000000  -0.000024   0.000000   0.000000   0.000000
              13         14         15         16         17         18
     1  C   -0.006171  -0.001496  -0.001295   0.004137   0.000384  -0.013663
     2  C   -0.000247   0.000064  -0.000006   0.228523  -0.026626  -0.046351
     3  O    0.001370   0.001355   0.000009   0.000557  -0.000036   0.000045
     4  C    0.001711   0.000094   0.000008  -0.037685   0.006726   0.003653
     5  C   -0.045000  -0.046577  -0.001606  -0.000092  -0.000041   0.000438
     6  C    0.001255   0.000167   0.000018  -0.031695  -0.009456   0.202504
     7  H   -0.000019  -0.000005   0.000000   0.002041   0.000163  -0.041187
     8  H    0.009612   0.000060  -0.000003  -0.037546  -0.001251   0.002660
     9  H    0.006408   0.001671   0.005204   0.000002   0.000001  -0.000126
    10  H    0.000019   0.016494  -0.000031  -0.000053  -0.000013  -0.002790
    11  C    0.368780   0.234511  -0.030278   0.000096  -0.000002   0.001102
    12  H   -0.039861  -0.029946  -0.009508  -0.000003   0.000000   0.000005
    13  H    0.563128  -0.033097   0.007032  -0.000025  -0.000001  -0.000185
    14  O   -0.033097   8.228375   0.237139   0.000000   0.000000  -0.000104
    15  H    0.007032   0.237139   0.393196   0.000000   0.000000   0.000003
    16  O   -0.000025   0.000000   0.000000   8.273304   0.232348  -0.003546
    17  H   -0.000001   0.000000   0.000000   0.232348   0.374079   0.014536
    18  O   -0.000185  -0.000104   0.000003  -0.003546   0.014536   8.303041
    19  H   -0.000121   0.000648  -0.000032   0.000016  -0.000352   0.240617
    20  O   -0.000048   0.000023  -0.000051  -0.000021  -0.000009   0.002007
    21  H   -0.000008  -0.000019   0.000001  -0.000007  -0.000001  -0.000044
    22  H   -0.000568  -0.000002  -0.000001   0.001953  -0.000373  -0.000069
    23  O    0.000012   0.000000   0.000000   0.002510   0.000106   0.000013
    24  H    0.000000   0.000000   0.000000   0.000013   0.000016   0.000001
    25  O    0.000001   0.000000   0.000000   0.000000   0.000000   0.000000
    26  H    0.000000   0.000000   0.000000   0.000000   0.000000   0.000000
    27  H   -0.000021  -0.000003  -0.000001  -0.000001   0.000000   0.000000
    28  O    0.000000   0.000000   0.000000   0.000000   0.000000   0.000000
    29  H    0.000000   0.000000   0.000000   0.000000   0.000000   0.000000
    30  H    0.000000   0.000000   0.000000   0.000000   0.000000   0.000000
              19         20         21         22         23         24
     1  C   -0.008143   0.236830  -0.033256  -0.000308   0.001932  -0.000044
     2  C    0.002677   0.002483  -0.001705  -0.047235  -0.045174   0.003954
     3  O    0.000031  -0.003109   0.011204  -0.043624  -0.054741   0.003027
     4  C   -0.000192   0.000844   0.000617   0.370543   0.255346  -0.015428
     5  C   -0.000183  -0.033674  -0.006485   0.003296  -0.000765  -0.000052
     6  C   -0.037473  -0.050183  -0.002090   0.005692  -0.002499  -0.000172
     7  H    0.006019   0.003238   0.000922  -0.000078   0.005326  -0.000009
     8  H    0.001149  -0.000098   0.000012  -0.005567   0.003149  -0.000097
     9  H   -0.000094   0.002730  -0.002820  -0.000289  -0.000228  -0.000003
    10  H    0.011083  -0.033357   0.006037   0.000018  -0.000005   0.000000
    11  C    0.000280   0.004199   0.000715   0.000862  -0.000016   0.000003
    12  H    0.000013  -0.000065  -0.000017   0.000016   0.000008  -0.000001
    13  H   -0.000121  -0.000048  -0.000008  -0.000568   0.000012   0.000000
    14  O    0.000648   0.000023  -0.000019  -0.000002   0.000000   0.000000
    15  H   -0.000032  -0.000051   0.000001  -0.000001   0.000000   0.000000
    16  O    0.000016  -0.000021  -0.000007   0.001953   0.002510   0.000013
    17  H   -0.000352  -0.000009  -0.000001  -0.000373   0.000106   0.000016
    18  O    0.240617   0.002007  -0.000044  -0.000069   0.000013   0.000001
    19  H    0.384036   0.000125   0.000046   0.000005   0.000001   0.000000
    20  O    0.000125   8.269496   0.231014  -0.000008  -0.000794   0.000034
    21  H    0.000046   0.231014   0.391337   0.000226   0.006799  -0.000183
    22  H    0.000005  -0.000008   0.000226   0.608260  -0.043272  -0.005816
    23  O    0.000001  -0.000794   0.006799  -0.043272   8.366992   0.156971
    24  H    0.000000   0.000034  -0.000183  -0.005816   0.156971   0.376306
    25  O    0.000000  -0.000002  -0.000053  -0.000045  -0.000736   0.001818
    26  H    0.000000   0.000000  -0.000007   0.000027  -0.000004   0.000094
    27  H    0.000000   0.000056   0.000754   0.000334   0.001666   0.001221
    28  O    0.000000   0.000000  -0.000008   0.000297  -0.028610   0.094783
    29  H    0.000000   0.000000   0.000009   0.000021   0.003088  -0.006585
    30  H    0.000000  -0.000006   0.000144   0.000142   0.008154  -0.007081
              25         26         27         28         29         30
     1  C   -0.000021   0.000003   0.000288   0.000000   0.000000   0.000003
     2  C   -0.000007   0.000002   0.000226  -0.000033  -0.000002   0.000057
     3  O   -0.018943   0.001439   0.048971  -0.000182   0.000023   0.000460
     4  C    0.001135   0.000061  -0.002034  -0.001102  -0.000125   0.000925
     5  C    0.000480  -0.000006  -0.001409  -0.000001   0.000000   0.000031
     6  C    0.000000   0.000000  -0.000016   0.000000   0.000000   0.000001
     7  H    0.000000   0.000000  -0.000002   0.000000   0.000000   0.000000
     8  H    0.000000   0.000000  -0.000006   0.000000   0.000000   0.000000
     9  H    0.000596  -0.000007  -0.001390   0.000000   0.000000  -0.000024
    10  H    0.000000   0.000000  -0.000005   0.000000   0.000000   0.000000
    11  C   -0.000029  -0.000005   0.000380   0.000000   0.000000   0.000000
    12  H    0.000000   0.000018   0.000067   0.000000   0.000000   0.000000
    13  H    0.000001   0.000000  -0.000021   0.000000   0.000000   0.000000
    14  O    0.000000   0.000000  -0.000003   0.000000   0.000000   0.000000
    15  H    0.000000   0.000000  -0.000001   0.000000   0.000000   0.000000
    16  O    0.000000   0.000000  -0.000001   0.000000   0.000000   0.000000
    17  H    0.000000   0.000000   0.000000   0.000000   0.000000   0.000000
    18  O    0.000000   0.000000   0.000000   0.000000   0.000000   0.000000
    19  H    0.000000   0.000000   0.000000   0.000000   0.000000   0.000000
    20  O   -0.000002   0.000000   0.000056   0.000000   0.000000  -0.000006
    21  H   -0.000053  -0.000007   0.000754  -0.000008   0.000009   0.000144
    22  H   -0.000045   0.000027   0.000334   0.000297   0.000021   0.000142
    23  O   -0.000736  -0.000004   0.001666  -0.028610   0.003088   0.008154
    24  H    0.001818   0.000094   0.001221   0.094783  -0.006585  -0.007081
    25  O    8.312016   0.253444   0.221665  -0.028041   0.000793   0.067952
    26  H    0.253444   0.361523  -0.018611   0.001831  -0.000043  -0.004600
    27  H    0.221665  -0.018611   0.315246   0.002214  -0.000109  -0.002791
    28  O   -0.028041   0.001831   0.002214   8.325293   0.241278   0.182533
    29  H    0.000793  -0.000043  -0.000109   0.241278   0.368510  -0.008938
    30  H    0.067952  -0.004600  -0.002791   0.182533  -0.008938   0.353570
 Mulliken charges:
               1
     1  C    0.100032
     2  C    0.109948
     3  O   -0.560197
     4  C    0.289505
     5  C    0.061349
     6  C    0.108232
     7  H    0.183238
     8  H    0.138877
     9  H    0.138808
    10  H    0.160475
    11  C   -0.073905
    12  H    0.144269
    13  H    0.166044
    14  O   -0.609351
    15  H    0.400202
    16  O   -0.634825
    17  H    0.409803
    18  O   -0.662557
    19  H    0.399843
    20  O   -0.631656
    21  H    0.396867
    22  H    0.155563
    23  O   -0.635228
    24  H    0.397229
    25  O   -0.812021
    26  H    0.404844
    27  H    0.433312
    28  O   -0.790253
    29  H    0.402082
    30  H    0.409470
 Sum of Mulliken charges =   0.00000
 Mulliken charges with hydrogens summed into heavy atoms:
               1
     1  C    0.260507
     2  C    0.248825
     3  O   -0.560197
     4  C    0.445068
     5  C    0.200157
     6  C    0.291471
    11  C    0.236408
    14  O   -0.209149
    16  O   -0.225022
    18  O   -0.262714
    20  O   -0.234789
    23  O   -0.237998
    25  O    0.026134
    28  O    0.021299
 Electronic spatial extent (au):  <R**2>=           3306.0936
 Charge=              0.0000 electrons
 Dipole moment (field-independent basis, Debye):
    X=             -1.8201    Y=             -3.4647    Z=             -1.4026  Tot=              4.1575
 Quadrupole moment (field-independent basis, Debye-Ang):
   XX=            -91.9481   YY=            -82.1220   ZZ=            -85.4956
   XY=              2.5049   XZ=              1.8549   YZ=              4.7763
 Traceless Quadrupole moment (field-independent basis, Debye-Ang):
   XX=             -5.4262   YY=              4.3999   ZZ=              1.0263
   XY=              2.5049   XZ=              1.8549   YZ=              4.7763
 Octapole moment (field-independent basis, Debye-Ang**2):
  XXX=            -25.1627  YYY=            -40.4072  ZZZ=            -15.4397  XYY=             -8.4536
  XXY=             10.3097  XXZ=             19.8633  XZZ=             23.3360  YZZ=              1.8569
  YYZ=             -2.5931  XYZ=             29.1846
 Hexadecapole moment (field-independent basis, Debye-Ang**3):
 XXXX=          -2339.0316 YYYY=          -1060.8383 ZZZZ=           -559.1148 XXXY=             47.4320
 XXXZ=             19.4960 YYYX=             25.8676 YYYZ=             30.1133 ZZZX=             25.8864
 ZZZY=             15.8909 XXYY=           -520.5268 XXZZ=           -405.5701 YYZZ=           -291.2877
 XXYZ=             39.8257 YYXZ=            -16.7473 ZZXY=            -12.6442
 N-N= 1.096239922886D+03 E-N=-4.164171762907D+03  KE= 8.329538188995D+02
 Calling FoFJK, ICntrl=      2127 FMM=F ISym2X=0 I1Cent= 0 IOpClX= 0 NMat=1 NMatS=1 NMatT=0.
 ***** Axes restored to original set *****
 -------------------------------------------------------------------
 Center     Atomic                   Forces (Hartrees/Bohr)
 Number     Number              X              Y              Z
 -------------------------------------------------------------------
      1        6           0.046757999    0.001776262    0.020478843
      2        6           0.012282614    0.006506375    0.004659232
      3        8           0.022782620    0.058492447   -0.022522683
      4        6           0.026830887   -0.028533137    0.024445767
      5        6          -0.055764245   -0.053463010   -0.003616889
      6        6           0.001641832    0.028865045   -0.001306143
      7        1          -0.002596425   -0.007419570   -0.001633373
      8        1          -0.008662150   -0.003907134    0.001009076
      9        1          -0.000780015   -0.001031024    0.001475119
     10        1          -0.001644400   -0.004873170   -0.001997860
     11        6          -0.003435893   -0.002988517   -0.006571135
     12        1           0.005214391   -0.004943759    0.002942443
     13        1          -0.000099302    0.005822321   -0.000454386
     14        8          -0.000511341    0.004131711    0.003111938
     15        1           0.003124376    0.002369839   -0.002059237
     16        8          -0.008764156   -0.004845536    0.002793814
     17        1          -0.001539874   -0.006713982    0.000171298
     18        8          -0.007493682    0.003442781   -0.002000586
     19        1           0.008929588    0.002907350   -0.004127350
     20        8          -0.007853277   -0.004226460    0.000718244
     21        1          -0.002269887    0.007448086   -0.002210798
     22        1          -0.007324283   -0.000241598   -0.002076829
     23        8          -0.027869750    0.011832961   -0.014722173
     24        1           0.013753747   -0.001422168   -0.001230389
     25        8           0.006872847   -0.011760329    0.022689319
     26        1          -0.000809507    0.003214740   -0.008573325
     27        1          -0.010840866    0.011482657   -0.012949622
     28        8           0.017611414   -0.000523939   -0.020086488
     29        1           0.000585915    0.003206176    0.009542036
     30        1          -0.018129177   -0.014605420    0.014102137
 -------------------------------------------------------------------
 Cartesian Forces:  Max     0.058492447 RMS     0.015361434

 GradGradGradGradGradGradGradGradGradGradGradGradGradGradGradGradGradGrad
 Berny optimization.
 FormGI is forming the generalized inverse of G from B-inverse, IUseBI=4.
 Internal  Forces:  Max     0.027807212 RMS     0.006358948
 Search for a local minimum.
 Step number   1 out of a maximum of  180
 All quantities printed in internal units (Hartrees-Bohrs-Radians)
 Mixed Optimization -- RFO/linear search
 Second derivative matrix not updated -- first step.
 ITU=  0
     Eigenvalues ---    0.00230   0.00566   0.00901   0.00952   0.01129
     Eigenvalues ---    0.01165   0.01165   0.01270   0.01351   0.01411
     Eigenvalues ---    0.01503   0.01774   0.01990   0.02568   0.03525
     Eigenvalues ---    0.03723   0.04302   0.04647   0.04661   0.04833
     Eigenvalues ---    0.05033   0.05187   0.05442   0.05507   0.05744
     Eigenvalues ---    0.06050   0.06223   0.06326   0.06784   0.06893
     Eigenvalues ---    0.07181   0.07479   0.07737   0.08178   0.09602
     Eigenvalues ---    0.10089   0.10473   0.11791   0.12089   0.13117
     Eigenvalues ---    0.13978   0.14017   0.15722   0.16000   0.16000
     Eigenvalues ---    0.16000   0.16000   0.16121   0.17090   0.17403
     Eigenvalues ---    0.19454   0.19967   0.20284   0.21912   0.25456
     Eigenvalues ---    0.27031   0.28200   0.28283   0.28579   0.33583
     Eigenvalues ---    0.33671   0.33874   0.34040   0.34327   0.34332
     Eigenvalues ---    0.34674   0.34944   0.35372   0.39239   0.39607
     Eigenvalues ---    0.39611   0.40188   0.42278   0.46215   0.49425
     Eigenvalues ---    0.51386   0.51462   0.52123   0.52496   0.54076
     Eigenvalues ---    0.55473   0.554731000.000001000.000001000.00000
     Eigenvalues --- 1000.000001000.000001000.000001000.000001000.00000
     Eigenvalues --- 1000.000001000.000001000.000001000.000001000.00000
     Eigenvalues --- 1000.000001000.000001000.000001000.000001000.00000
     Eigenvalues --- 1000.000001000.000001000.000001000.000001000.00000
     Eigenvalues --- 1000.000001000.000001000.000001000.000001000.00000
     Eigenvalues --- 1000.000001000.000001000.000001000.000001000.00000
     Eigenvalues --- 1000.000001000.000001000.000001000.000001000.00000
     Eigenvalues --- 1000.000001000.000001000.000001000.000001000.00000
     Eigenvalues --- 1000.000001000.000001000.000001000.000001000.00000
     Eigenvalues --- 1000.000001000.000001000.000001000.000001000.00000
     Eigenvalues --- 1000.000001000.000001000.000001000.000001000.00000
     Eigenvalues --- 1000.000001000.000001000.000001000.000001000.00000
     Eigenvalues --- 1000.000001000.000001000.000001000.000001000.00000
     Eigenvalues --- 1000.000001000.000001000.000001000.000001000.00000
     Eigenvalues --- 1000.000001000.000001000.000001000.000001000.00000
     Eigenvalues --- 1000.000001000.000001000.000001000.000001000.00000
     Eigenvalues --- 1000.000001000.000001000.000001000.000001000.00000
     Eigenvalues --- 1000.000001000.00000
 RFO step:  Lambda=-3.27157804D-02 EMin= 2.30000000D-03
 Linear search not attempted -- first point.
 Maximum step size (   0.300) exceeded in Quadratic search.
    -- Step size scaled by   0.941
 Iteration  1 RMS(Cart)=  0.04387134 RMS(Int)=  0.00183523
 Iteration  2 RMS(Cart)=  0.00273963 RMS(Int)=  0.00081439
 Iteration  3 RMS(Cart)=  0.00000579 RMS(Int)=  0.00081437
 Iteration  4 RMS(Cart)=  0.00000001 RMS(Int)=  0.00081437
 Iteration  1 RMS(Cart)=  0.00007129 RMS(Int)=  0.00011991
 Iteration  2 RMS(Cart)=  0.00005768 RMS(Int)=  0.00012883
 Iteration  3 RMS(Cart)=  0.00004667 RMS(Int)=  0.00014711
 Iteration  4 RMS(Cart)=  0.00003776 RMS(Int)=  0.00016689
 Iteration  5 RMS(Cart)=  0.00003056 RMS(Int)=  0.00018513
 Iteration  6 RMS(Cart)=  0.00002472 RMS(Int)=  0.00020095
 Iteration  7 RMS(Cart)=  0.00002001 RMS(Int)=  0.00021429
 Iteration  8 RMS(Cart)=  0.00001619 RMS(Int)=  0.00022538
 Iteration  9 RMS(Cart)=  0.00001310 RMS(Int)=  0.00023451
 Iteration 10 RMS(Cart)=  0.00001060 RMS(Int)=  0.00024200
 Iteration 11 RMS(Cart)=  0.00000858 RMS(Int)=  0.00024811
 Iteration 12 RMS(Cart)=  0.00000694 RMS(Int)=  0.00025309
 Iteration 13 RMS(Cart)=  0.00000562 RMS(Int)=  0.00025715
 Iteration 14 RMS(Cart)=  0.00000454 RMS(Int)=  0.00026044
 Iteration 15 RMS(Cart)=  0.00000368 RMS(Int)=  0.00026311
 Iteration 16 RMS(Cart)=  0.00000298 RMS(Int)=  0.00026528
 Iteration 17 RMS(Cart)=  0.00000241 RMS(Int)=  0.00026704
 Iteration 18 RMS(Cart)=  0.00000195 RMS(Int)=  0.00026846
 Iteration 19 RMS(Cart)=  0.00000158 RMS(Int)=  0.00026962
 Iteration 20 RMS(Cart)=  0.00000128 RMS(Int)=  0.00027055
 Iteration 21 RMS(Cart)=  0.00000103 RMS(Int)=  0.00027131
 Iteration 22 RMS(Cart)=  0.00000084 RMS(Int)=  0.00027192
 Variable       Old X    -DE/DX   Delta X   Delta X   Delta X     New X
                                 (Linear)    (Quad)   (Total)
    R1        2.78264   0.02781   0.00000   0.07804   0.07925   2.86189
    R2        2.90471   0.01063   0.00000   0.03522   0.03462   2.93932
    R3        2.06774  -0.00218   0.00000  -0.00546  -0.00546   2.06228
    R4        2.72085  -0.00421   0.00000  -0.00923  -0.00923   2.71162
    R5        2.89687   0.00151   0.00000  -0.00370  -0.00470   2.89217
    R6        2.88657   0.00462   0.00000   0.00440   0.00274   2.88931
    R7        2.06207   0.00276   0.00000   0.00685   0.00685   2.06892
    R8        2.72600  -0.01389   0.00000  -0.03075  -0.03075   2.69525
    R9        2.90468  -0.01744   0.00000  -0.05755  -0.05645   2.84823
   R10        2.75609  -0.01353   0.00000  -0.02729  -0.02578   2.73032
   R11        3.43930   0.00470   0.00000   0.05512   0.05544   3.49475
   R12        2.06782   0.00034   0.00000   0.00086   0.00086   2.06868
   R13        2.69751  -0.02127   0.00000  -0.04621  -0.04609   2.65141
   R14        2.08040   0.00185   0.00000   0.00473   0.00473   2.08513
   R15        2.91523   0.00099   0.00000   0.00296   0.00296   2.91819
   R16        2.07543  -0.00340   0.00000  -0.00861  -0.00861   2.06682
   R17        2.72091   0.00755   0.00000   0.01657   0.01657   2.73748
   R18        2.07263   0.00148   0.00000   0.00373   0.00373   2.07636
   R19        2.05765   0.00230   0.00000   0.00566   0.00566   2.06331
   R20        2.68570   0.00226   0.00000   0.00468   0.00468   2.69038
   R21        1.84128  -0.00441   0.00000  -0.00744  -0.00744   1.83384
   R22        1.85118  -0.00656   0.00000  -0.01127  -0.01127   1.83991
   R23        1.84482  -0.00837   0.00000  -0.01423  -0.01423   1.83059
   R24        1.85192  -0.00734   0.00000  -0.01264  -0.01264   1.83928
   R25        1.84991   0.00723   0.00000   0.01048   0.01021   1.86012
   R26        3.43930   0.00350   0.00000   0.00659   0.00661   3.44592
   R27        3.28887   0.00347   0.00000   0.05132   0.05109   3.33996
   R28        1.81414   0.00577   0.00000   0.00924   0.00924   1.82337
   R29        1.81414   0.01854   0.00000   0.03145   0.03172   1.84586
   R30        3.46205  -0.00007   0.00000   0.00803   0.00764   3.46970
   R31        1.81414   0.00848   0.00000   0.01358   0.01358   1.82771
   R32        1.81414   0.01641   0.00000   0.03267   0.03231   1.84645
    A1        1.89943   0.00395   0.00000   0.05267   0.05377   1.95320
    A2        1.96947  -0.00858   0.00000  -0.04758  -0.04843   1.92104
    A3        1.91196   0.00279   0.00000  -0.00959  -0.01169   1.90027
    A4        1.94639   0.00237   0.00000   0.00679   0.00698   1.95337
    A5        1.88019   0.00100   0.00000   0.01954   0.01921   1.89940
    A6        1.85385  -0.00123   0.00000  -0.02141  -0.02202   1.83183
    A7        1.92493   0.00636   0.00000   0.01603   0.01705   1.94198
    A8        1.94766  -0.00261   0.00000  -0.01337  -0.01415   1.93351
    A9        1.91124  -0.00702   0.00000  -0.03955  -0.03918   1.87206
   A10        1.93578  -0.00152   0.00000  -0.01015  -0.01093   1.92485
   A11        1.90375  -0.00007   0.00000   0.01307   0.01327   1.91702
   A12        1.83814   0.00460   0.00000   0.03429   0.03424   1.87237
   A13        1.90269   0.02129   0.00000   0.10077   0.10296   2.00565
   A14        2.11846  -0.00843   0.00000  -0.03815  -0.03830   2.08016
   A15        2.21579  -0.01251   0.00000  -0.06023  -0.06189   2.15390
   A16        2.01781  -0.00863   0.00000  -0.03684  -0.03730   1.98052
   A17        1.95370   0.00408   0.00000   0.00530   0.00407   1.95777
   A18        1.89595  -0.00331   0.00000  -0.00711  -0.00663   1.88933
   A19        1.85844  -0.00184   0.00000  -0.02189  -0.02215   1.83629
   A20        1.84998   0.00797   0.00000   0.02261   0.02216   1.87213
   A21        1.88103   0.00268   0.00000   0.04479   0.04487   1.92589
   A22        2.05846  -0.01662   0.00000  -0.07969  -0.08117   1.97729
   A23        1.80765   0.00530   0.00000   0.04315   0.04387   1.85152
   A24        2.05247   0.00298   0.00000  -0.00742  -0.00893   2.04354
   A25        1.75930   0.00572   0.00000   0.04742   0.04840   1.80770
   A26        1.94332   0.00756   0.00000   0.01014   0.00690   1.95022
   A27        1.78403  -0.00211   0.00000   0.02143   0.02074   1.80477
   A28        2.01948  -0.00782   0.00000  -0.03935  -0.04068   1.97881
   A29        1.91295  -0.00175   0.00000  -0.00613  -0.00725   1.90570
   A30        1.93659   0.01087   0.00000   0.04738   0.04797   1.98456
   A31        1.88973  -0.00038   0.00000   0.00423   0.00442   1.89415
   A32        1.87364  -0.00057   0.00000  -0.02250  -0.02147   1.85216
   A33        1.82028   0.00029   0.00000   0.02182   0.02131   1.84159
   A34        1.91710  -0.00602   0.00000  -0.02788  -0.02781   1.88929
   A35        1.97881   0.00218   0.00000   0.00173   0.00140   1.98021
   A36        1.95253  -0.00261   0.00000  -0.01199  -0.01213   1.94040
   A37        1.83746   0.00232   0.00000   0.01815   0.01827   1.85572
   A38        1.89463   0.00783   0.00000   0.05304   0.05316   1.94778
   A39        1.87814  -0.00299   0.00000  -0.02838  -0.02857   1.84956
   A40        1.87976   0.00041   0.00000   0.00203   0.00203   1.88179
   A41        1.83008  -0.00383   0.00000  -0.01868  -0.01868   1.81140
   A42        1.86265   0.00975   0.00000   0.04761   0.04761   1.91026
   A43        1.87116  -0.00446   0.00000  -0.02179  -0.02179   1.84936
   A44        1.82368   0.00648   0.00000   0.02839   0.02827   1.85195
   A45        2.80544  -0.00286   0.00000   0.01368   0.01291   2.81836
   A46        2.57869  -0.00499   0.00000  -0.01697  -0.01618   2.56251
   A47        1.91114  -0.00715   0.00000  -0.06088  -0.06086   1.85028
   A48        1.97052  -0.00329   0.00000  -0.01811  -0.01808   1.95245
   A49        1.48216   0.00221   0.00000   0.02677   0.02581   1.50798
   A50        2.79431   0.00456   0.00000   0.01294   0.01255   2.80686
   A51        1.58328   0.00382   0.00000   0.02200   0.02401   1.60729
   A52        1.91114  -0.00541   0.00000  -0.05099  -0.05100   1.86014
   A53        2.02011  -0.00436   0.00000  -0.02828  -0.02720   1.99292
   A54        2.63074   0.00809   0.00000   0.03926   0.03937   2.67011
    D1        0.96351  -0.00368   0.00000  -0.07453  -0.07180   0.89170
    D2        2.88785  -0.00076   0.00000  -0.02457  -0.02468   2.86317
    D3       -1.44356   0.00156   0.00000   0.02660   0.02611  -1.41745
    D4        3.13376  -0.00370   0.00000  -0.05997  -0.05828   3.07548
    D5       -1.22508  -0.00078   0.00000  -0.01001  -0.01116  -1.23623
    D6        0.72670   0.00154   0.00000   0.04116   0.03963   0.76633
    D7       -1.08804  -0.00876   0.00000  -0.12306  -0.12061  -1.20865
    D8        0.83631  -0.00585   0.00000  -0.07310  -0.07349   0.76282
    D9        2.78809  -0.00353   0.00000  -0.02193  -0.02270   2.76539
   D10       -0.00721  -0.01024   0.00000   0.00000   0.00001  -0.00720
   D11       -2.14950  -0.00260   0.00000   0.02813   0.02820  -2.12130
   D12        2.13265  -0.00810   0.00000  -0.02163  -0.02198   2.11067
   D13       -2.19104  -0.00376   0.00000   0.01815   0.01804  -2.17300
   D14        1.94986   0.00389   0.00000   0.04629   0.04623   1.99609
   D15       -0.05118  -0.00161   0.00000  -0.00347  -0.00395  -0.05513
   D16        2.06438  -0.00417   0.00000   0.02861   0.02927   2.09366
   D17       -0.07790   0.00347   0.00000   0.05675   0.05746  -0.02044
   D18       -2.07894  -0.00203   0.00000   0.00699   0.00728  -2.07165
   D19        0.78375   0.00687   0.00000   0.07845   0.07875   0.86250
   D20       -1.27981   0.00002   0.00000   0.00949   0.00907  -1.27074
   D21        2.91584  -0.00261   0.00000   0.00287   0.00299   2.91883
   D22        0.80927   0.00570   0.00000   0.03935   0.03842   0.84769
   D23        2.94133  -0.00015   0.00000  -0.01458  -0.01546   2.92587
   D24       -1.26687   0.00350   0.00000   0.03947   0.03861  -1.22825
   D25       -1.35060   0.00492   0.00000   0.05032   0.05034  -1.30026
   D26        0.78146  -0.00094   0.00000  -0.00361  -0.00354   0.77792
   D27        2.85645   0.00272   0.00000   0.05043   0.05054   2.90698
   D28        2.90440   0.00514   0.00000   0.04049   0.04029   2.94469
   D29       -1.24672  -0.00072   0.00000  -0.01344  -0.01359  -1.26031
   D30        0.82827   0.00294   0.00000   0.04060   0.04048   0.86875
   D31       -0.81013   0.00332   0.00000  -0.02439  -0.02235  -0.83248
   D32        1.34438  -0.00487   0.00000  -0.05721  -0.05628   1.28810
   D33       -2.98297  -0.00499   0.00000  -0.04090  -0.04011  -3.02308
   D34        1.35660   0.00343   0.00000  -0.03728  -0.03618   1.32043
   D35       -2.77207  -0.00477   0.00000  -0.07010  -0.07011  -2.84218
   D36       -0.81624  -0.00489   0.00000  -0.05379  -0.05394  -0.87018
   D37       -2.90977   0.00810   0.00000   0.00619   0.00708  -2.90269
   D38       -0.75526  -0.00010   0.00000  -0.02662  -0.02685  -0.78211
   D39        1.20056  -0.00022   0.00000  -0.01031  -0.01068   1.18989
   D40       -3.01665  -0.00285   0.00000  -0.01359  -0.01453  -3.03118
   D41       -0.90861   0.00059   0.00000  -0.01013  -0.00974  -0.91835
   D42        1.17005   0.00130   0.00000   0.00338   0.00393   1.17398
   D43        0.01423   0.00329   0.00000   0.00000  -0.00001   0.01422
   D44       -2.16783   0.00541   0.00000   0.03609   0.03550  -2.13234
   D45        2.11552  -0.00044   0.00000  -0.01524  -0.01552   2.10001
   D46       -2.82631   0.00401   0.00000   0.00128   0.00063  -2.82568
   D47        1.27481   0.00614   0.00000   0.03737   0.03614   1.31095
   D48       -0.72502   0.00029   0.00000  -0.01396  -0.01488  -0.73989
   D49       -0.96513   0.00408   0.00000   0.06367   0.06045  -0.90469
   D50       -2.91664   0.00092   0.00000   0.01418   0.01406  -2.90258
   D51        1.48493  -0.00188   0.00000  -0.03553  -0.03593   1.44900
   D52        1.85411   0.00472   0.00000   0.06966   0.06680   1.92091
   D53       -0.09740   0.00156   0.00000   0.02018   0.02041  -0.07698
   D54       -1.97902  -0.00124   0.00000  -0.02954  -0.02958  -2.00860
   D55       -0.99642   0.00272   0.00000   0.02350   0.02384  -0.97258
   D56        2.50362  -0.00268   0.00000  -0.00495  -0.00590   2.49773
   D57       -2.98085   0.00060   0.00000   0.01589   0.01577  -2.96508
   D58        1.12358   0.00808   0.00000   0.05066   0.05123   1.17481
   D59       -0.86072   0.00518   0.00000   0.04463   0.04414  -0.81658
   D60       -2.92823  -0.00832   0.00000  -0.07829  -0.07870  -3.00693
   D61        1.30484  -0.00855   0.00000  -0.08343  -0.08382   1.22102
   D62       -0.82298  -0.00424   0.00000  -0.03820  -0.03865  -0.86163
   D63        0.90229   0.00615   0.00000   0.05200   0.05263   0.95493
   D64       -1.14782   0.00591   0.00000   0.04686   0.04751  -1.10031
   D65        3.00754   0.01022   0.00000   0.09210   0.09268   3.10023
   D66       -0.96321  -0.00191   0.00000  -0.01514  -0.01533  -0.97854
   D67       -3.01332  -0.00215   0.00000  -0.02027  -0.02045  -3.03378
   D68        1.14204   0.00216   0.00000   0.02496   0.02472   1.16676
   D69       -0.23501   0.00053   0.00000  -0.01296  -0.01206  -0.24708
   D70        1.98723  -0.00238   0.00000  -0.04673  -0.04723   1.94001
   D71       -2.29324  -0.00292   0.00000  -0.04143  -0.04183  -2.33507
   D72       -1.26087   0.00113   0.00000  -0.00247  -0.00220  -1.26307
   D73        0.85741  -0.00279   0.00000  -0.00924  -0.00919   0.84822
   D74        2.83771   0.00225   0.00000   0.02367   0.02334   2.86105
   D75       -2.86935   0.00399   0.00000   0.04019   0.04134  -2.82801
   D76       -1.62920   0.00364   0.00000   0.02739   0.02720  -1.60200
   D77       -0.13392   0.00562   0.00000   0.01367   0.01427  -0.11965
   D78        1.11401  -0.00512   0.00000  -0.05467  -0.05522   1.05878
   D79       -0.63991   0.00004   0.00000  -0.00225  -0.00222  -0.64213
   D80        1.32393  -0.00305   0.00000  -0.01529  -0.01604   1.30789
   D81        1.52340  -0.00546   0.00000  -0.04139  -0.04136   1.48203
   D82       -0.48823   0.00042   0.00000   0.03716   0.03712  -0.45112
   D83       -0.37974   0.00156   0.00000   0.01457   0.01490  -0.36484
   D84       -2.39137   0.00744   0.00000   0.09312   0.09338  -2.29800
   D85        1.20099   0.00051   0.00000   0.03822   0.03578   1.23677
   D86       -2.66599  -0.00214   0.00000  -0.02881  -0.03015  -2.69614
         Item               Value     Threshold  Converged?
 Maximum Force            0.026779     0.000450     NO 
 RMS     Force            0.006122     0.000300     NO 
 Maximum Displacement     0.202747     0.001800     NO 
 RMS     Displacement     0.043543     0.001200     NO 
 Predicted change in Energy=-2.011357D-02
 GradGradGradGradGradGradGradGradGradGradGradGradGradGradGradGradGradGrad

                          Input orientation:                          
 ---------------------------------------------------------------------
 Center     Atomic      Atomic             Coordinates (Angstroms)
 Number     Number       Type             X           Y           Z
 ---------------------------------------------------------------------
      1          6           0       -0.778970    0.439742    0.986982
      2          6           0        1.083177    0.300274   -0.789883
      3          8           0       -0.158180   -1.756105    0.036066
      4          6           0        1.128967   -1.206025   -0.522840
      5          6           0       -1.212778   -0.783287    0.206237
      6          6           0        0.527397    1.060413    0.414695
      7          1           0        1.290761    1.076624    1.197783
      8          1           0        0.489321    0.518506   -1.683391
      9          1           0       -1.947784   -1.306586    0.841389
     10          1           0       -1.592046    1.166584    1.026522
     11          6           0       -1.984700   -0.540554   -1.109018
     12          1           0       -2.346004   -1.509709   -1.479791
     13          1           0       -1.366678   -0.118789   -1.904198
     14          8           0       -3.054687    0.378401   -0.915287
     15          1           0       -3.748632   -0.075773   -0.411412
     16          8           0        2.419003    0.723858   -1.055177
     17          1           0        2.347662    1.693083   -1.114189
     18          8           0        0.380112    2.437072   -0.011437
     19          1           0       -0.561326    2.657806   -0.069463
     20          8           0       -0.552759    0.062478    2.352822
     21          1           0        0.017125   -0.725937    2.321844
     22          1           0        1.315304   -1.781837   -1.435028
     23          8           0        2.133881   -1.453998    0.424396
     24          1           0        2.249729   -2.431147    0.450230
     25          8           0       -0.009347   -4.355370    1.040134
     26          1           0       -0.203984   -4.794971    0.203549
     27          1           0       -0.144268   -3.401142    0.880884
     28          8           0        2.721471   -4.102274    1.006956
     29          1           0        3.217481   -3.750238    1.758947
     30          1           0        1.775568   -3.957566    1.204562
 ---------------------------------------------------------------------
                    Distance matrix (angstroms):
                    1          2          3          4          5
     1  C    0.000000
     2  C    2.577653   0.000000
     3  O    2.472117   2.540050   0.000000
     4  C    2.937402   1.530472   1.507219   0.000000
     5  C    1.514448   2.727228   1.444822   2.488781   0.000000
     6  C    1.555423   1.528958   2.923380   2.525390   2.543796
     7  H    2.175739   2.143974   3.387236   2.863076   3.272635
     8  H    2.957306   1.094827   2.923978   2.174863   2.857009
     9  H    2.106416   3.798655   2.013280   3.367140   1.103401
    10  H    1.091309   3.347632   3.402806   3.928576   2.149118
    11  C    2.609210   3.196984   2.474865   3.237495   1.544240
    12  H    3.512965   3.938438   2.673034   3.617098   2.157448
    13  H    3.002712   2.723803   2.811743   3.052618   2.217922
    14  O    2.966695   4.140501   3.721685   4.490810   2.449482
    15  H    3.322673   4.861176   3.989374   5.008079   2.704186
    16  O    3.805018   1.426266   3.739371   2.381601   4.129465
    17  H    3.970089   1.908930   4.415793   3.199959   4.533505
    18  O    2.515878   2.380375   4.227854   3.754260   3.599361
    19  H    2.466426   2.963335   4.433540   4.241678   3.513051
    20  O    1.434928   3.550976   2.971581   3.564651   2.399745
    21  H    1.942789   3.445638   2.513316   3.091748   2.447804
    22  H    3.897118   2.192095   2.082291   1.094700   3.175225
    23  O    3.519582   2.378219   2.344272   1.403068   3.420171
    24  H    4.207508   3.218600   2.534805   1.924552   3.842386
    25  O    4.856773   5.120312   2.790427   3.695541   3.860493
[...]
 0042257,0.00092721,-0.00041239,-0.00024950,-0.00013497,-0.00008100,-0.
 00058692,0.00131168,0.00018689,0.00019108,-0.00024264,-0.00006512,-0.0
 0048216,-0.00016514,0.00073658,0.00074966,0.00004751,-0.00100096,-0.00
 323365,0.00050205,-0.00429198,0.11299111,-0.36332737,-0.00290859,-0.11
 113923,0.35929738,-0.00018151,-0.00000240,0.00016832,-0.00575348,-0.00
 010876,-0.00443253,0.00156909,-0.00041692,-0.00024558,-0.01704648,0.03
 638478,-0.00671116,-0.00014802,0.00022639,-0.00027986,-0.00041291,-0.0
 0031070,-0.00068908,0.00011565,0.00032628,0.00041806,-0.00015842,0.001
 74424,-0.00029133,0.00014901,-0.00005387,0.00000013,0.00003409,-0.0000
 1368,-0.00004015,-0.00004560,0.00004720,0.00000194,-0.00003435,-0.0000
 3580,0.00001696,0.00003432,0.00004036,0.00002045,0.00008545,-0.0000548
 8,-0.00000110,-0.00002233,0.00000066,0.00000215,0.00025668,-0.00079197
 ,0.00035854,0.00001090,-0.00007937,-0.00003098,0.00032575,0.00008555,0
 .00033057,0.00005644,-0.00014927,0.00001691,0.00018056,0.00009688,-0.0
 0041473,-0.00025353,-0.00035238,0.00060295,0.00078792,0.00117367,0.000
 62414,-0.00556958,-0.03941453,-0.03625954,0.02811524,0.00087987,0.0565
 1815,-0.00002722,-0.00029624,-0.00015708,0.00043415,-0.00010300,-0.000
 31960,0.00694084,0.00268356,-0.00139096,-0.00587887,0.00203166,-0.0010
 0048,-0.00065108,-0.00054868,0.00054254,-0.00035104,-0.00002333,0.0003
 1550,0.00004215,0.00011359,0.00004727,0.00008002,-0.00022408,0.0001849
 9,0.00056344,-0.00044921,-0.00036915,0.00001703,0.00000035,-0.00001561
 ,0.00009315,-0.00064170,-0.00018633,0.00008551,0.00016211,0.00028473,-
 0.00002186,0.00019126,-0.00013473,0.00006526,0.00029558,0.00011126,0.0
 0005774,-0.00020303,-0.00002923,0.00042938,0.00016281,-0.00005781,0.00
 000916,0.00003391,0.00000743,0.00031011,-0.00009591,-0.00019184,-0.000
 09567,-0.00001755,0.00007174,0.00039198,0.00040678,0.00006969,-0.00044
 476,-0.00012828,0.00003297,0.00033946,0.00008302,-0.00039576,0.0029532
 1,-0.00413305,0.00180034,-0.00113060,0.00631112,-0.00036012,0.11904462
 ,0.00122342,-0.00039869,0.00074453,-0.00091301,0.00095151,-0.00022827,
 0.00044407,-0.01729430,0.00524932,0.00774479,-0.00101115,-0.00066864,-
 0.00599606,0.00069850,0.00150523,0.00011406,0.00086983,0.00000922,-0.0
 0003568,-0.00002721,0.00001486,0.00005323,-0.00003274,0.00003956,0.000
 23469,0.00028556,-0.00016548,-0.00009653,-0.00049425,-0.00029810,-0.00
 035617,-0.00034469,-0.00103126,-0.00002324,0.00009630,-0.00001101,-0.0
 0002314,-0.00004096,0.00005225,0.00122910,-0.00040672,0.00064605,-0.00
 034677,-0.00003235,-0.00012824,-0.00066130,-0.00107273,0.00035196,-0.0
 0002035,0.00004945,0.00000961,-0.00001593,-0.00078581,0.00014116,-0.00
 001033,0.00020556,-0.00008224,-0.00014986,-0.00027486,-0.00062217,0.00
 017010,0.00036151,0.00053727,-0.00036357,-0.00001585,0.00023467,-0.002
 82560,0.00102177,-0.00097863,0.00168652,-0.00198194,-0.00002506,0.0066
 8063,0.57994444,-0.00058029,0.00038622,-0.00065838,-0.00000222,-0.0002
 4913,0.00022839,-0.00072715,0.00416622,0.00271756,-0.00163635,-0.00075
 076,-0.00114580,0.00196463,0.00018263,-0.00026491,0.00003223,-0.000189
 96,-0.00015142,0.00002861,0.00001998,0.00001192,0.00000666,0.00000284,
 0.00001797,-0.00036556,0.00008873,-0.00005253,0.00004448,0.00015846,0.
 00016916,0.00013443,-0.00035048,0.00000138,0.00012446,0.00010586,0.000
 08742,0.00002466,-0.00001269,0.00005029,-0.00035583,0.00028735,0.00005
 365,0.00006268,-0.00001345,-0.00005715,0.00013666,0.00026425,0.0000199
 8,-0.00000260,-0.00003045,-0.00004499,-0.00008268,0.00024089,0.0000915
 6,0.00003475,-0.00006502,-0.00001151,-0.00003230,-0.00027276,0.0006582
 8,0.00013136,0.00029029,-0.00033462,-0.00017297,-0.00007859,0.00052435
 ,0.00026795,-0.00017798,0.00133319,0.00004776,-0.00006693,-0.00082776,
 0.17112353,0.09478407,0.40545942,-0.00008218,0.00011310,0.00001954,0.0
 0001743,-0.00003305,0.00017720,-0.00076674,0.00072948,-0.00020938,0.00
 040539,-0.00032973,-0.00049249,0.00064406,-0.00009887,-0.00007604,0.00
 008269,-0.00003616,-0.00011832,-0.00000972,-0.00001325,-0.00000223,-0.
 00001662,0.00002811,-0.00004350,-0.00009253,0.00000539,0.00013776,0.00
 000301,0.00004163,0.00002895,0.00004654,0.00030032,0.00014900,-0.00001
 671,-0.00007345,-0.00012446,-0.00001131,-0.00008918,0.00002035,-0.0001
 0323,-0.00010656,-0.00009732,0.00001139,0.00009475,0.00004452,-0.00005
 798,0.00005719,0.00001579,0.00001021,-0.00000743,-0.00001355,-0.000083
 36,0.00007796,0.00005730,0.00003059,-0.00000655,-0.00001477,-0.0000811
 0,-0.00005734,-0.00000543,0.00004682,-0.00000980,-0.00004304,-0.000105
 47,-0.00003433,0.00024378,-0.00031226,0.00031440,0.00014499,0.00016515
 ,-0.00045665,-0.00024435,-0.06631383,-0.07737615,-0.14136998,0.0654060
 8,-0.00008188,0.00001110,-0.00019929,-0.00012642,-0.00011891,0.0001572
 5,0.00064057,0.00030198,0.00142870,-0.00077649,-0.00041321,-0.00027248
 ,0.00044556,-0.00041329,0.00003883,0.00000762,-0.00013777,-0.00001734,
 0.00001434,0.00000691,-0.00000035,0.00000421,0.00000684,0.00001127,-0.
 00000237,-0.00002069,-0.00009168,0.00000237,0.00005763,0.00003090,0.00
 018659,-0.00041776,-0.00007098,0.00009494,0.00011142,0.00012985,0.0000
 1046,0.00004838,0.00000413,-0.00029877,0.00026160,0.00002054,0.0000898
 7,-0.00004133,-0.00000710,0.00016832,0.00015798,-0.00005427,-0.0000285
 2,-0.00002451,0.00000268,-0.00000772,0.00022355,-0.00001398,0.00000652
 ,-0.00006079,0.00001322,0.00003716,0.00005078,0.00020399,-0.00001622,-
 0.00002721,-0.00011023,-0.00010660,-0.00003316,0.00017837,0.00025040,0
 .00000885,0.00033301,-0.00012397,-0.00007993,-0.00012843,-0.05497630,-
 0.14928742,-0.14935177,0.07436997,0.16863114,0.00000102,-0.00000396,0.
 00000324,0.00009673,-0.00001401,-0.00004860,0.00014116,0.00083141,-0.0
 0067184,-0.00022285,0.00018516,0.00048382,-0.00006128,-0.00000076,0.00
 002135,-0.00003530,0.00000738,0.00004846,0.00000319,-0.00000008,-0.000
 00610,-0.00001181,0.00000745,-0.00001017,0.00005293,-0.00003204,-0.000
 03917,0.00000270,0.00000529,0.00000418,-0.00003737,0.00016151,0.000107
 75,-0.00004397,-0.00005115,0.00000721,-0.00000130,0.00002504,-0.000021
 67,0.00005883,-0.00007857,-0.00008033,0.00000036,-0.00000787,0.0000276
 2,-0.00000645,-0.00000229,-0.00003391,0.00000729,0.00001017,0.00000999
 ,0.00002977,-0.00003495,-0.00002968,-0.00001127,0.00000937,0.00001057,
 0.00002143,0.00002465,-0.00005152,-0.00002345,-0.00000204,0.00000914,0
 .00009952,-0.00000551,-0.00012908,0.00001998,0.00006454,-0.00019126,-0
 .00002570,-0.00011038,0.00009651,-0.14114238,-0.20349305,-0.33963141,0
 .13949547,0.19202211,0.33574064,-0.00042937,0.00033526,0.00006409,-0.0
 0066703,0.00014064,0.00046294,-0.01027516,-0.00039846,0.00194072,0.003
 41424,-0.00454272,0.00165658,0.00184442,0.00200034,-0.00157208,0.00017
 852,-0.00003478,-0.00025875,-0.00003488,-0.00007950,-0.00002136,-0.000
 01703,0.00012357,-0.00009252,-0.00069812,0.00044946,0.00042484,0.00002
 935,0.00010116,0.00007608,-0.00023745,0.00075043,0.00047258,-0.0001039
 2,-0.00018850,-0.00026207,0.00005848,-0.00016592,0.00009660,-0.0002047
 7,-0.00018883,-0.00022293,-0.00003686,0.00014140,0.00001914,-0.0001363
 3,-0.00017239,0.00000148,-0.00005659,-0.00002328,0.00001379,-0.0001673
 9,0.00012363,0.00010390,0.00005012,-0.00000154,-0.00002646,-0.00023462
 ,-0.00027529,-0.00002385,0.00032675,-0.00000960,-0.00005967,-0.0003287
 0,0.00001909,0.00040544,-0.00026093,0.00197592,-0.00156121,-0.00184638
 ,-0.00151760,0.00034453,-0.03470431,0.07316947,-0.02930298,0.00251381,
 -0.01844133,0.00178314,0.04392285,-0.00167521,0.00051477,-0.00119498,0
 .00180826,-0.00130722,0.00016333,0.00157540,-0.00060325,-0.00261601,-0
 .01401059,0.00238231,0.00132177,0.00904404,-0.00223437,-0.00242395,-0.
 00019755,-0.00120778,0.00002183,0.00005164,0.00006025,-0.00001104,-0.0
 0006720,-0.00001061,-0.00003147,-0.00050860,-0.00003337,0.00025791,0.0
 0013139,0.00071403,0.00043328,0.00030363,0.00101255,0.00173934,0.00000
 723,-0.00024427,-0.00008686,0.00002594,0.00002041,-0.00008640,-0.00175
 489,0.00047154,-0.00105225,0.00045893,0.00010701,0.00018513,0.00094638
 ,0.00165434,-0.00048227,0.00009043,-0.00003040,-0.00004396,0.00004375,
 0.00097955,-0.00018104,0.00001030,-0.00026043,0.00011287,0.00019421,0.
 00035542,0.00100587,-0.00028907,-0.00046896,-0.00098315,0.00094366,0.0
 0014392,-0.00076156,0.00433317,-0.00259459,0.00187307,-0.00163982,0.00
 427305,-0.00020584,0.04958179,-0.40505394,0.05205931,0.00514969,-0.019
 38720,0.01004744,-0.05965149,0.42256615,0.00120289,-0.00078482,0.00102
 412,-0.00013814,0.00024102,-0.00013314,0.00122235,-0.00005100,-0.00413
 841,0.00361777,0.00086369,0.00058093,-0.00333597,-0.00075621,0.0003583
 2,0.00005158,0.00033026,0.00011665,-0.00004436,-0.00004254,-0.00002339
 ,-0.00000769,-0.00000070,-0.00003595,0.00059474,-0.00019029,0.00012801
 ,-0.00009385,-0.00031731,-0.00031251,-0.00015136,0.00051524,-0.0000926
 4,-0.00020702,-0.00015782,-0.00014464,-0.00003370,-0.00001306,-0.00005
 704,0.00047367,-0.00038686,-0.00002575,-0.00008763,0.00000587,0.000062
 45,-0.00025104,-0.00036585,0.00002197,-0.00000631,0.00002452,0.0000527
 1,0.00004450,-0.00025263,-0.00007173,-0.00002279,0.00007926,-0.0000082
 0,0.00000784,0.00042689,-0.00087641,-0.00019389,-0.00054855,0.00034506
 ,0.00006788,0.00005134,-0.00036581,-0.00079122,0.00068781,-0.00186764,
 -0.00006688,-0.00052392,0.00094705,-0.03448335,0.10540648,-0.06477346,
 0.00625964,-0.04462791,0.00465555,0.02647019,-0.06003956,0.06447461,-0
 .00022320,-0.00010904,-0.00016622,-0.00032146,-0.00033315,0.00034709,0
 .00051595,0.00271824,-0.00066334,-0.00153660,-0.00133490,0.00039405,0.
 00115710,-0.00055609,-0.00024961,-0.00004806,-0.00029661,-0.00002161,0
 .00000715,-0.00000189,-0.00000609,0.00005754,0.00004039,0.00002633,0.0
 0006838,-0.00009915,-0.00004707,0.00001710,0.00012923,0.00004230,0.000
 16761,-0.00021264,0.00018822,0.00005499,0.00006546,0.00009474,0.000005
 76,0.00006967,-0.00005934,-0.00040834,0.00030371,-0.00012305,0.0001290
 6,-0.00007546,0.00001486,0.00065318,0.00038934,-0.00019523,-0.00009416
 ,-0.00002135,-0.00001185,0.00009556,0.00041497,-0.00011848,-0.00002499
 ,-0.00009403,0.00005970,0.00019160,0.00033491,0.00016851,-0.00019038,-
 0.00031597,-0.00018196,-0.00003667,-0.00016985,0.00033396,0.00526924,0
 .00531836,0.00079452,-0.01388733,0.00021305,-0.00239652,-0.02412801,-0
 .00146355,-0.00151963,-0.00201101,0.00168344,0.00138911,0.00043742,-0.
 00498897,0.00059612,0.54075523,-0.00032536,-0.00016202,0.00019882,0.00
 135005,0.00067926,0.00066073,0.00515431,0.00150682,-0.00062921,-0.0116
 5449,-0.00233018,-0.00864357,-0.00089745,0.00113255,0.00021229,-0.0006
 3294,0.00081734,0.00024977,0.00003360,0.00028217,0.00022537,0.00022135
 ,-0.00096985,0.00051708,0.00041028,-0.00016209,-0.00008687,0.00008551,
 -0.00007536,-0.00004647,-0.00032132,-0.00023542,-0.00032083,0.00007695
 ,0.00012044,0.00005448,-0.00005608,0.00002933,-0.00010983,0.00068116,-
 0.00010580,0.00032100,-0.00018888,-0.00005110,-0.00010452,-0.00005625,
 -0.00042241,0.00036407,0.00016992,0.00015204,-0.00002279,0.00045798,-0
 .00096607,-0.00007395,-0.00014670,0.00017848,0.00004158,0.00038532,0.0
 0012622,-0.00033968,-0.00053301,0.00002361,0.00051164,0.00068137,0.000
 57810,0.00129492,0.01372178,-0.02607079,0.00821569,-0.00253485,0.00509
 831,-0.00710677,-0.00569100,0.00754257,-0.00051599,0.00103198,-0.00026
 564,0.00029725,-0.00227113,-0.00367028,0.00010258,0.06822582,0.1216849
 6,-0.00003205,0.00005654,-0.00029019,0.00024334,0.00008410,0.00046260,
 -0.00018739,0.00002618,0.00063527,0.00035105,-0.00156239,-0.00140196,0
 .00009875,-0.00003139,0.00002160,0.00003729,0.00007607,-0.00015538,0.0
 0001536,0.00001756,0.00000095,0.00002329,-0.00011257,0.00002817,-0.000
 07499,0.00001015,0.00000092,0.00000157,-0.00000738,0.00004206,0.000024
 59,-0.00004205,-0.00006447,0.00002780,0.00003342,0.00001197,0.00000046
 ,-0.00003041,0.00002066,-0.00002390,0.00004401,0.00006859,-0.00001134,
 -0.00000652,-0.00002670,-0.00004505,0.00008540,0.00011148,-0.00000534,
 -0.00000470,-0.00004653,-0.00007978,0.00004501,0.00009390,0.00002358,-
 0.00000249,-0.00001987,0.00001938,-0.00010003,0.00032755,-0.00006146,0
 .00016500,-0.00018540,0.00030216,-0.00008666,0.00090503,0.00000201,0.0
 0298602,0.00589580,-0.00235510,-0.00064785,-0.01054201,-0.00227629,0.0
 0061169,0.00678796,0.00260530,-0.00028956,-0.00034597,0.00048319,-0.00
 000880,-0.00099979,0.13393028,-0.14209746,0.42651119,-0.00000148,0.000
 03219,-0.00005114,0.00021311,0.00015094,-0.00007944,0.00030108,-0.0002
 1891,0.00013713,-0.00057886,0.00004393,-0.00044169,-0.00020651,0.00018
 469,0.00002275,-0.00003624,0.00011442,0.00003194,0.00001020,0.00001891
 ,0.00000817,0.00000020,-0.00006861,0.00003034,0.00001042,-0.00001016,-
 0.00000486,0.00000467,-0.00002779,0.00000593,-0.00005716,0.00001590,-0
 .00005343,0.00000061,0.00000040,-0.00000372,-0.00000406,-0.00000836,0.
 00000640,0.00011390,-0.00005227,0.00004938,-0.00003663,0.00000786,-0.0
 0001544,-0.00017256,-0.00011258,0.00005547,0.00004825,0.00001384,-0.00
 000078,0.00000491,-0.00016358,0.00002609,-0.00000315,0.00003266,-0.000
 01200,-0.00000866,-0.00009051,0.00004013,-0.00001410,0.00012608,0.0000
 0585,-0.00002792,0.00010928,-0.00003570,0.00047197,-0.00147493,0.00063
 235,-0.00017548,0.00303498,-0.00064554,-0.00231278,-0.00054720,0.00206
 190,0.00034294,-0.00005054,0.00003640,0.00018088,0.00003047,-0.0003407
 6,-0.14309842,0.02969515,-0.15954691,0.16186613,0.00003510,0.00000676,
 0.00009915,-0.00007760,-0.00003303,-0.00006736,-0.00035536,-0.00006571
 ,-0.00015733,0.00038789,0.00056612,0.00041811,0.00007201,-0.00008434,-
 0.00001330,0.00004757,-0.00008640,0.00004520,-0.00000436,-0.00002118,-
 0.00000889,-0.00003252,0.00005534,-0.00003342,-0.00001356,0.00000664,0
 .00000951,-0.00000926,0.00001326,-0.00001388,0.00004543,0.00001188,0.0
 0004055,-0.00001241,-0.00001698,-0.00001011,0.00000314,0.00000358,0.00
 000589,-0.00008125,0.00000688,-0.00004971,0.00002980,0.00000684,0.0000
 1959,-0.00004790,0.00000305,-0.00007273,0.00000264,-0.00001602,0.00003
 454,-0.00002865,0.00007953,-0.00002182,0.00000712,-0.00002138,0.000000
 06,-0.00006726,0.00000723,-0.00010327,0.00010486,-0.00005049,0.0000526
 1,-0.00016048,0.00010466,-0.00030177,-0.00055294,-0.00275757,-0.002448
 67,0.00327897,0.00158964,0.00681581,-0.00134518,-0.00064922,0.00041424
 ,0.00003434,0.00020956,-0.00006922,0.00019213,0.00015910,0.00020495,0.
 04978923,-0.04369085,0.11293146,-0.04455190,0.04078642,0.00000575,-0.0
 0001767,0.00009165,-0.00004216,0.00003312,0.00005105,0.00010583,-0.000
 03843,-0.00003302,-0.00012724,-0.00008638,-0.00028059,-0.00003204,0.00
 001598,0.00002679,0.00000257,-0.00000367,0.00001243,-0.00000590,0.0000
 0028,0.00000788,0.00001007,-0.00001891,0.00000646,0.00001358,0.0000050
 9,0.00000205,0.00000047,0.00000239,-0.00001376,0.00000381,-0.00000187,
 0.00000513,-0.00000315,-0.00000397,-0.00000560,-0.00000060,0.00000287,
 -0.00000551,0.00000419,-0.00000854,-0.00001121,0.00000311,0.00000261,0
 .00000746,0.00005167,-0.00000586,-0.00002555,-0.00000792,0.00000305,0.
 00001493,0.00001817,0.00000594,-0.00002628,-0.00000797,0.00000029,0.00
 000802,-0.00000586,0.00002712,-0.00010964,0.00001225,-0.00003716,0.000
 07974,0.00002962,-0.00000562,0.00006871,0.00041222,-0.00147112,-0.0000
 0677,-0.00004332,0.00195191,-0.00018511,0.00155858,-0.00015945,-0.0004
 0720,-0.00009803,0.00006949,-0.00001100,-0.00014442,0.00016395,0.00009
 634,-0.21194417,0.10347384,-0.36798103,0.20220583,-0.10438709,0.365713
 79,0.00040903,0.00015255,0.00018241,-0.00028011,0.00020269,-0.00014041
 ,-0.00264761,-0.00444533,0.00149203,0.00726822,0.00060346,0.00165832,-
 0.00110524,0.00017910,0.00026431,0.00032780,0.00011086,-0.00017196,-0.
 00002954,-0.00011507,-0.00006904,-0.00011067,0.00027496,-0.00020361,-0
 .00027160,0.00023183,0.00010200,-0.00005100,-0.00013395,-0.00004998,-0
 .00008047,0.00034620,-0.00012297,-0.00009374,-0.00011635,-0.00014845,0
 .00001460,-0.00010770,0.00010823,0.00025414,-0.00032923,0.00004292,-0.
 00009302,0.00011227,0.00001805,-0.00057981,-0.00027130,0.00007527,0.00
 000746,-0.00002794,0.00000187,-0.00028441,-0.00006745,0.00016969,0.000
 08086,0.00004802,-0.00007888,-0.00035944,-0.00041894,-0.00012486,0.000
 43381,0.00030751,0.00006014,-0.00015567,-0.00015404,-0.00011916,-0.005
 58021,0.00613218,-0.00236061,0.00494539,-0.01109661,0.00120711,0.00420
 283,-0.00152562,-0.00007618,0.00033793,-0.00297522,-0.00161587,-0.0025
 1703,0.01005307,-0.00035321,-0.36357423,-0.09707308,0.02651019,-0.0168
 3525,-0.00668963,0.00802505,0.37636700,-0.00001899,0.00003477,-0.00001
 469,-0.00022733,-0.00015927,0.00031761,-0.00160171,-0.00018209,0.00008
 245,0.00187315,-0.00161380,0.00151274,0.00069362,-0.00038642,-0.000185
 06,0.00013170,-0.00019417,-0.00010596,-0.00000788,-0.00005427,-0.00003
 119,-0.00003845,0.00013712,-0.00008439,-0.00013643,0.00005298,0.000048
 20,-0.00000904,0.00006195,0.00001733,0.00009686,0.00010022,0.00017663,
 -0.00001504,-0.00003923,-0.00002370,0.00001381,-0.00000852,0.00001573,
 -0.00027766,0.00006038,-0.00014296,0.00007713,0.00001962,0.00003866,0.
 00011227,0.00018211,-0.00012522,-0.00004329,-0.00003352,0.00000457,-0.
 00009489,0.00031929,0.00000590,0.00002958,-0.00005970,0.00000507,-0.00
 007883,0.00003472,0.00004995,0.00011794,-0.00012318,-0.00012070,-0.000
 21643,0.00005829,0.00011312,0.00125383,0.00140839,-0.00148282,-0.00752
 754,-0.00419559,0.00142896,0.00013838,-0.01282219,-0.00132537,-0.00361
 981,0.00064110,0.00020712,0.00843983,0.00169224,0.00011914,-0.11962316
 ,-0.06077432,0.02785762,0.01376563,0.00387669,0.00048782,0.10679277,0.
 07196640,0.00006177,-0.00004315,0.00022471,0.00008948,0.00002267,-0.00
 025247,0.00000292,-0.00033283,-0.00044695,0.00046601,0.00078303,0.0013
 1023,-0.00021406,0.00004616,0.00003558,-0.00001954,-0.00002103,0.00010
 686,-0.00001364,-0.00002403,-0.00001561,-0.00001939,0.00003932,-0.0000
 2513,0.00004897,0.00000660,0.00000191,-0.00000523,-0.00000966,-0.00003
 510,-0.00002980,0.00007091,0.00003081,-0.00002998,-0.00003663,-0.00001
 786,-0.00000114,0.00001501,-0.00001136,0.00005835,-0.00006778,-0.00004
 256,-0.00000352,0.00001145,0.00002084,-0.00005278,-0.00005732,-0.00004
 948,0.00000367,0.00000658,0.00002560,0.00002936,-0.00006951,-0.0000611
 3,-0.00001454,0.00001572,0.00000842,-0.00002284,0.00006103,-0.00023780
 ,0.00003301,-0.00010792,0.00012682,0.00007113,-0.00008078,-0.00045809,
 -0.00045254,0.00054470,-0.00104828,0.00045451,-0.00091839,0.00082807,0
 .00636013,-0.00244633,-0.00985131,-0.00644670,0.00059105,0.00007568,-0
 .00127093,0.00082403,0.00106275,0.07932438,0.04335680,-0.05986642,-0.0
 4412467,-0.01333311,0.00290983,-0.03428240,-0.02884660,0.06565144\\-0.
 00076686,0.00077936,-0.00096901,0.00100584,0.00176604,0.00428435,0.002
 99085,0.00289854,0.01017910,-0.00278883,-0.00261140,-0.00940718,-0.001
 22008,-0.00206359,-0.00506955,0.00076324,-0.00077416,0.00098557,-0.000
 00141,0.00000113,0.00000231,0.00000202,0.00000210,0.00000103,0.0000001
 3,-0.00000276,-0.00000101,-0.00000204,-0.00000289,0.00000057,0.0000038
 2,-0.00000068,-0.00000042,0.00000181,-0.00000062,-0.00000294,0.0000023
 0,-0.00000135,-0.00000124,-0.00000111,-0.00000302,-0.00000112,-0.00000
 158,-0.00000415,-0.00000396,0.00000137,0.00000521,-0.00000007,-0.00000
 112,0.00000457,0.00000885,-0.00000562,-0.00000289,0.00001463,-0.000001
 34,-0.00000127,-0.00000062,-0.00000237,-0.00000371,-0.00000480,-0.0000
 0415,-0.00000347,0.00000060,0.00000151,0.00000223,0.00000220,0.0000065
 1,-0.00000658,-0.00001105,-0.00000787,0.00002455,0.00001780,-0.0000172
 5,-0.00002182,-0.00002704,0.00000364,0.00000062,-0.00000413,0.00002194
 ,0.00001596,0.00000650,-0.00000174,-0.00001789,-0.00002073,0.00000361,
 -0.00000422,-0.00000446,0.00001478,0.00002615,0.00002581\\\@


     SCHOPENHAUER'S LAW OF ENTROPY
 IF YOU PUT A SPOONFUL OF WINE IN A BARREL FULL
 OF SEWAGE, YOU GET SEWAGE.
 IF YOU PUT A SPOONFUL OF SEWAGE IN A BARREL FULL
 OF WINE, YOU GET SEWAGE.
 Job cpu time:       0 days  0 hours 30 minutes  0.7 seconds.
 File lengths (MBytes):  RWF=    334 Int=      0 D2E=      0 Chk=      7 Scr=      2
 Normal termination of Gaussian 09 at Wed Jan 25 22:24:02 2017.
