 Entering Gaussian System, Link 0=g09
 Initial command:
 /global/software/gaussian/g09.e01/l1.exe "/scratch/10462944.yak.local/Gau-31715.inp" -scrdir="/scratch/10462944.yak.local/"
 Entering Link 1 = /global/software/gaussian/g09.e01/l1.exe PID=     31716.
  
 Copyright (c) 1988,1990,1992,1993,1995,1998,2003,2009,2015,
            Gaussian, Inc.  All Rights Reserved.
  
 This is part of the Gaussian(R) 09 program.  It is based on
 the Gaussian(R) 03 system (copyright 2003, Gaussian, Inc.),
 the Gaussian(R) 98 system (copyright 1998, Gaussian, Inc.),
 the Gaussian(R) 94 system (copyright 1995, Gaussian, Inc.),
 the Gaussian 92(TM) system (copyright 1992, Gaussian, Inc.),
 the Gaussian 90(TM) system (copyright 1990, Gaussian, Inc.),
 the Gaussian 88(TM) system (copyright 1988, Gaussian, Inc.),
 the Gaussian 86(TM) system (copyright 1986, Carnegie Mellon
 University), and the Gaussian 82(TM) system (copyright 1983,
 Carnegie Mellon University). Gaussian is a federally registered
 trademark of Gaussian, Inc.
  
 This software contains proprietary and confidential information,
 including trade secrets, belonging to Gaussian, Inc.
  
 This software is provided under written license and may be
 used, copied, transmitted, or stored only in accord with that
 written license.
  
 The following legend is applicable only to US Government
 contracts under FAR:
  
                    RESTRICTED RIGHTS LEGEND
  
 Use, reproduction and disclosure by the US Government is
 subject to restrictions as set forth in subparagraphs (a)
 and (c) of the Commercial Computer Software - Restricted
 Rights clause in FAR 52.227-19.
  
 Gaussian, Inc.
 340 Quinnipiac St., Bldg. 40, Wallingford CT 06492
  
  
 ---------------------------------------------------------------
 Warning -- This program may not be used in any manner that
 competes with the business of Gaussian, Inc. or will provide
 assistance to any competitor of Gaussian, Inc.  The licensee
 of this program is prohibited from giving any competitor of
 Gaussian, Inc. access to this program.  By using this program,
 the user acknowledges that Gaussian, Inc. is engaged in the
 business of creating and licensing software in the field of
 computational chemistry and represents and warrants to the
 licensee that it is not a competitor of Gaussian, Inc. and that
 it will not use this program in any manner prohibited above.
 ---------------------------------------------------------------
  

 Cite this work as:
 Gaussian 09, Revision E.01,
 M. J. Frisch, G. W. Trucks, H. B. Schlegel, G. E. Scuseria, 
 M. A. Robb, J. R. Cheeseman, G. Scalmani, V. Barone, B. Mennucci, 
 G. A. Petersson, H. Nakatsuji, M. Caricato, X. Li, H. P. Hratchian, 
 A. F. Izmaylov, J. Bloino, G. Zheng, J. L. Sonnenberg, M. Hada, 
 M. Ehara, K. Toyota, R. Fukuda, J. Hasegawa, M. Ishida, T. Nakajima, 
 Y. Honda, O. Kitao, H. Nakai, T. Vreven, J. A. Montgomery, Jr., 
 J. E. Peralta, F. Ogliaro, M. Bearpark, J. J. Heyd, E. Brothers, 
 K. N. Kudin, V. N. Staroverov, T. Keith, R. Kobayashi, J. Normand, 
 K. Raghavachari, A. Rendell, J. C. Burant, S. S. Iyengar, J. Tomasi, 
 M. Cossi, N. Rega, J. M. Millam, M. Klene, J. E. Knox, J. B. Cross, 
 V. Bakken, C. Adamo, J. Jaramillo, R. Gomperts, R. E. Stratmann, 
 O. Yazyev, A. J. Austin, R. Cammi, C. Pomelli, J. W. Ochterski, 
 R. L. Martin, K. Morokuma, V. G. Zakrzewski, G. A. Voth, 
 P. Salvador, J. J. Dannenberg, S. Dapprich, A. D. Daniels, 
 O. Farkas, J. B. Foresman, J. V. Ortiz, J. Cioslowski, 
 and D. J. Fox, Gaussian, Inc., Wallingford CT, 2013.
 
 ******************************************
 Gaussian 09:  ES64L-G09RevE.01 30-Nov-2015
                15-Jan-2017 
 ******************************************
 %NPROCS=4
 Will use up to    4 processors via shared memory.
 -----------------------------------------
 # opt=(MaxCycle=1000) freq B3LYP/6-31G(d)
 -----------------------------------------
 1/6=1000,14=-1,18=20,19=15,26=3,38=1/1,3;
 2/9=110,12=2,17=6,18=5,40=1/2;
 3/5=1,6=6,7=1,11=2,16=1,25=1,30=1,71=1,74=-5/1,2,3;
 4//1;
 5/5=2,38=5/2;
 6/7=2,8=2,9=2,10=2,28=1/1;
 7//1,2,3,16;
 1/6=1000,14=-1,18=20,19=15,26=3/3(2);
 2/9=110/2;
 99//99;
 2/9=110/2;
 3/5=1,6=6,7=1,11=2,16=1,25=1,30=1,71=1,74=-5/1,2,3;
 4/5=5,16=3,69=1/1;
 5/5=2,38=5/2;
 7//1,2,3,16;
 1/6=1000,14=-1,18=20,19=15,26=3/3(-5);
 2/9=110/2;
 6/7=2,8=2,9=2,10=2,19=2,28=1/1;
 99/9=1/99;
 -------------------------------------------------
 ./boats/1/glo_2w_alpha_ts_boat1_B3LYP_631Gd_r.out
 -------------------------------------------------
 Symbolic Z-matrix:
 Charge =  0 Multiplicity = 1
 H                     1.4305   -0.96602  -1.30023 
 C                     1.29756  -0.84288  -0.21662 
 C                     0.23008   1.40875  -0.30525 
 C                    -1.02296  -0.16308   1.37158 
 C                    -0.88559   1.22673   0.72877 
 O                     0.00063  -1.27676   0.14903 
 C                     1.50471   0.65978   0.06847 
 H                    -0.62555   1.88475   1.57997 
 H                     1.73709   0.82756   1.13417 
 C                     2.31645  -1.71352   0.51322 
 H                     2.16911  -2.76713   0.23896 
 H                     2.16657  -1.61869   1.59916 
 H                    -0.13703   1.01003  -1.26476 
 O                     3.61744  -1.25217   0.12813 
 H                     4.28194  -1.6974    0.67386 
 O                    -2.135     1.58861   0.18118 
 H                    -1.99918   2.43694  -0.27154 
 O                     0.45468   2.80912  -0.41414 
 H                     1.30248   2.90309  -0.88307 
 O                     2.55015   1.18502  -0.74093 
 H                     3.32994   0.62695  -0.56663 
 H                    -0.24801  -0.35976   2.13085 
 O                    -2.11126  -0.74007   1.46673 
 O                    -1.50404  -1.50671  -1.77238 
 H                    -1.55098  -2.42669  -2.07149 
 H                    -2.42255  -1.27529  -1.36677 
 H                    -0.6074   -1.40526  -0.68082 
 O                    -3.55929  -0.9139   -0.55218 
 H                    -4.05583  -1.70568  -0.29524 
 H                    -3.09142  -0.62656   0.29378 
 
 Add virtual bond connecting atoms H27        and O24        Dist= 2.68D+00.
 Add virtual bond connecting atoms O28        and H26        Dist= 2.73D+00.
 Add virtual bond connecting atoms H30        and O23        Dist= 2.90D+00.

 GradGradGradGradGradGradGradGradGradGradGradGradGradGradGradGradGradGrad
 Berny optimization.
 Initialization pass.
                           ----------------------------
                           !    Initial Parameters    !
                           ! (Angstroms and Degrees)  !
 --------------------------                            --------------------------
 ! Name  Definition              Value          Derivative Info.                !
 --------------------------------------------------------------------------------
 ! R1    R(1,2)                  1.0987         estimate D2E/DX2                !
 ! R2    R(2,6)                  1.4156         estimate D2E/DX2                !
 ! R3    R(2,7)                  1.5434         estimate D2E/DX2                !
 ! R4    R(2,10)                 1.526          estimate D2E/DX2                !
 ! R5    R(3,5)                  1.532          estimate D2E/DX2                !
 ! R6    R(3,7)                  1.5249         estimate D2E/DX2                !
 ! R7    R(3,13)                 1.102          estimate D2E/DX2                !
 ! R8    R(3,18)                 1.4224         estimate D2E/DX2                !
 ! R9    R(4,5)                  1.5374         estimate D2E/DX2                !
 ! R10   R(4,22)                 1.1026         estimate D2E/DX2                !
 ! R11   R(4,23)                 1.2355         estimate D2E/DX2                !
 ! R12   R(5,8)                  1.1069         estimate D2E/DX2                !
 ! R13   R(5,16)                 1.4113         estimate D2E/DX2                !
 ! R14   R(6,27)                 1.0368         estimate D2E/DX2                !
 ! R15   R(7,9)                  1.1036         estimate D2E/DX2                !
 ! R16   R(7,20)                 1.4227         estimate D2E/DX2                !
 ! R17   R(10,11)                1.0986         estimate D2E/DX2                !
 ! R18   R(10,12)                1.1003         estimate D2E/DX2                !
 ! R19   R(10,14)                1.4331         estimate D2E/DX2                !
 ! R20   R(14,15)                0.9683         estimate D2E/DX2                !
 ! R21   R(16,17)                0.9711         estimate D2E/DX2                !
 ! R22   R(18,19)                0.9734         estimate D2E/DX2                !
 ! R23   R(20,21)                0.9746         estimate D2E/DX2                !
 ! R24   R(23,30)                1.5328         estimate D2E/DX2                !
 ! R25   R(24,25)                0.9685         estimate D2E/DX2                !
 ! R26   R(24,26)                1.0304         estimate D2E/DX2                !
 ! R27   R(24,27)                1.4162         estimate D2E/DX2                !
 ! R28   R(26,28)                1.4444         estimate D2E/DX2                !
 ! R29   R(28,29)                0.9693         estimate D2E/DX2                !
 ! R30   R(28,30)                1.0085         estimate D2E/DX2                !
 ! A1    A(1,2,6)              109.3455         estimate D2E/DX2                !
 ! A2    A(1,2,7)              105.9658         estimate D2E/DX2                !
 ! A3    A(1,2,10)             109.085          estimate D2E/DX2                !
 ! A4    A(6,2,7)              111.9409         estimate D2E/DX2                !
 ! A5    A(6,2,10)             108.2579         estimate D2E/DX2                !
 ! A6    A(7,2,10)             112.1789         estimate D2E/DX2                !
 ! A7    A(5,3,7)              112.6407         estimate D2E/DX2                !
 ! A8    A(5,3,13)             107.5829         estimate D2E/DX2                !
 ! A9    A(5,3,18)             106.4766         estimate D2E/DX2                !
 ! A10   A(7,3,13)             108.3088         estimate D2E/DX2                !
 ! A11   A(7,3,18)             111.7353         estimate D2E/DX2                !
 ! A12   A(13,3,18)            110.0078         estimate D2E/DX2                !
 ! A13   A(5,4,22)             112.729          estimate D2E/DX2                !
 ! A14   A(5,4,23)             122.2148         estimate D2E/DX2                !
 ! A15   A(22,4,23)            118.8671         estimate D2E/DX2                !
 ! A16   A(3,5,4)              117.044          estimate D2E/DX2                !
 ! A17   A(3,5,8)              106.1006         estimate D2E/DX2                !
 ! A18   A(3,5,16)             110.6312         estimate D2E/DX2                !
 ! A19   A(4,5,8)              103.7019         estimate D2E/DX2                !
 ! A20   A(4,5,16)             108.3559         estimate D2E/DX2                !
 ! A21   A(8,5,16)             110.7275         estimate D2E/DX2                !
 ! A22   A(2,6,27)             111.6257         estimate D2E/DX2                !
 ! A23   A(2,7,3)              108.7072         estimate D2E/DX2                !
 ! A24   A(2,7,9)              110.7722         estimate D2E/DX2                !
 ! A25   A(2,7,20)             110.6698         estimate D2E/DX2                !
 ! A26   A(3,7,9)              109.7556         estimate D2E/DX2                !
 ! A27   A(3,7,20)             107.0663         estimate D2E/DX2                !
 ! A28   A(9,7,20)             109.7882         estimate D2E/DX2                !
 ! A29   A(2,10,11)            109.7674         estimate D2E/DX2                !
 ! A30   A(2,10,12)            109.3833         estimate D2E/DX2                !
 ! A31   A(2,10,14)            107.0943         estimate D2E/DX2                !
 ! A32   A(11,10,12)           108.1046         estimate D2E/DX2                !
 ! A33   A(11,10,14)           111.3093         estimate D2E/DX2                !
 ! A34   A(12,10,14)           111.1687         estimate D2E/DX2                !
 ! A35   A(10,14,15)           108.8765         estimate D2E/DX2                !
 ! A36   A(5,16,17)            106.3232         estimate D2E/DX2                !
 ! A37   A(3,18,19)            105.6312         estimate D2E/DX2                !
 ! A38   A(7,20,21)            105.95           estimate D2E/DX2                !
 ! A39   A(4,23,30)            118.0197         estimate D2E/DX2                !
 ! A40   A(25,24,26)           106.9598         estimate D2E/DX2                !
 ! A41   A(25,24,27)           109.6794         estimate D2E/DX2                !
 ! A42   A(26,24,27)           104.1744         estimate D2E/DX2                !
 ! A43   A(26,28,29)           110.3819         estimate D2E/DX2                !
 ! A44   A(26,28,30)           100.3256         estimate D2E/DX2                !
 ! A45   A(29,28,30)           104.3615         estimate D2E/DX2                !
 ! A46   A(23,30,28)           156.557          estimate D2E/DX2                !
 ! A47   L(24,26,28,3,-1)      171.9864         estimate D2E/DX2                !
 ! A48   L(6,27,24,13,-1)      178.0265         estimate D2E/DX2                !
 ! A49   L(24,26,28,3,-2)      188.6781         estimate D2E/DX2                !
 ! A50   L(6,27,24,13,-2)      183.8914         estimate D2E/DX2                !
 ! D1    D(1,2,6,27)           -13.0477         estimate D2E/DX2                !
 ! D2    D(7,2,6,27)           104.0632         estimate D2E/DX2                !
 ! D3    D(10,2,6,27)         -131.781          estimate D2E/DX2                !
 ! D4    D(1,2,7,3)             79.0004         estimate D2E/DX2                !
 ! D5    D(1,2,7,9)           -160.3282         estimate D2E/DX2                !
 ! D6    D(1,2,7,20)           -38.3167         estimate D2E/DX2                !
 ! D7    D(6,2,7,3)            -40.124          estimate D2E/DX2                !
 ! D8    D(6,2,7,9)             80.5473         estimate D2E/DX2                !
 ! D9    D(6,2,7,20)          -157.4411         estimate D2E/DX2                !
 ! D10   D(10,2,7,3)          -162.0594         estimate D2E/DX2                !
 ! D11   D(10,2,7,9)           -41.3881         estimate D2E/DX2                !
 ! D12   D(10,2,7,20)           80.6235         estimate D2E/DX2                !
 ! D13   D(1,2,10,11)          -59.7478         estimate D2E/DX2                !
 ! D14   D(1,2,10,12)         -178.2045         estimate D2E/DX2                !
 ! D15   D(1,2,10,14)           61.2179         estimate D2E/DX2                !
 ! D16   D(6,2,10,11)           59.1504         estimate D2E/DX2                !
 ! D17   D(6,2,10,12)          -59.3062         estimate D2E/DX2                !
 ! D18   D(6,2,10,14)         -179.8838         estimate D2E/DX2                !
 ! D19   D(7,2,10,11)         -176.8363         estimate D2E/DX2                !
 ! D20   D(7,2,10,12)           64.7071         estimate D2E/DX2                !
 ! D21   D(7,2,10,14)          -55.8705         estimate D2E/DX2                !
 ! D22   D(7,3,5,4)            -38.1067         estimate D2E/DX2                !
 ! D23   D(7,3,5,8)             76.9907         estimate D2E/DX2                !
 ! D24   D(7,3,5,16)          -162.8577         estimate D2E/DX2                !
 ! D25   D(13,3,5,4)            81.1827         estimate D2E/DX2                !
 ! D26   D(13,3,5,8)          -163.7199         estimate D2E/DX2                !
 ! D27   D(13,3,5,16)          -43.5682         estimate D2E/DX2                !
 ! D28   D(18,3,5,4)          -160.912          estimate D2E/DX2                !
 ! D29   D(18,3,5,8)           -45.8145         estimate D2E/DX2                !
 ! D30   D(18,3,5,16)           74.3371         estimate D2E/DX2                !
 ! D31   D(5,3,7,2)             75.9509         estimate D2E/DX2                !
 ! D32   D(5,3,7,9)            -45.3454         estimate D2E/DX2                !
 ! D33   D(5,3,7,20)          -164.4589         estimate D2E/DX2                !
 ! D34   D(13,3,7,2)           -42.9158         estimate D2E/DX2                !
 ! D35   D(13,3,7,9)          -164.2121         estimate D2E/DX2                !
 ! D36   D(13,3,7,20)           76.6744         estimate D2E/DX2                !
 ! D37   D(18,3,7,2)          -164.2404         estimate D2E/DX2                !
 ! D38   D(18,3,7,9)            74.4632         estimate D2E/DX2                !
 ! D39   D(18,3,7,20)          -44.6503         estimate D2E/DX2                !
 ! D40   D(5,3,18,19)          165.6061         estimate D2E/DX2                !
 ! D41   D(7,3,18,19)           42.2341         estimate D2E/DX2                !
 ! D42   D(13,3,18,19)         -78.1015         estimate D2E/DX2                !
 ! D43   D(22,4,5,3)            75.7986         estimate D2E/DX2                !
 ! D44   D(22,4,5,8)           -40.6218         estimate D2E/DX2                !
 ! D45   D(22,4,5,16)         -158.3136         estimate D2E/DX2                !
 ! D46   D(23,4,5,3)          -132.2419         estimate D2E/DX2                !
 ! D47   D(23,4,5,8)           111.3378         estimate D2E/DX2                !
 ! D48   D(23,4,5,16)           -6.3541         estimate D2E/DX2                !
 ! D49   D(5,4,23,30)           39.0294         estimate D2E/DX2                !
 ! D50   D(22,4,23,30)        -170.6477         estimate D2E/DX2                !
 ! D51   D(3,5,16,17)          -46.4051         estimate D2E/DX2                !
 ! D52   D(4,5,16,17)         -175.9587         estimate D2E/DX2                !
 ! D53   D(8,5,16,17)           70.9374         estimate D2E/DX2                !
 ! D54   D(2,6,24,25)           97.724          estimate D2E/DX2                !
 ! D55   D(2,6,24,26)         -148.2768         estimate D2E/DX2                !
 ! D56   D(2,7,20,21)          -55.1506         estimate D2E/DX2                !
 ! D57   D(3,7,20,21)         -173.4714         estimate D2E/DX2                !
 ! D58   D(9,7,20,21)           67.4362         estimate D2E/DX2                !
 ! D59   D(2,10,14,15)         171.706          estimate D2E/DX2                !
 ! D60   D(11,10,14,15)        -68.3099         estimate D2E/DX2                !
 ! D61   D(12,10,14,15)         52.2706         estimate D2E/DX2                !
 ! D62   D(4,23,30,28)          97.5456         estimate D2E/DX2                !
 ! D63   D(25,24,28,29)         15.9243         estimate D2E/DX2                !
 ! D64   D(25,24,28,30)        123.6983         estimate D2E/DX2                !
 ! D65   D(27,24,28,29)        -98.193          estimate D2E/DX2                !
 ! D66   D(27,24,28,30)          9.581          estimate D2E/DX2                !
 ! D67   D(26,28,30,23)        -49.409          estimate D2E/DX2                !
 ! D68   D(29,28,30,23)         64.9264         estimate D2E/DX2                !
 --------------------------------------------------------------------------------
 Trust Radius=3.00D-01 FncErr=1.00D-07 GrdErr=1.00D-06
 Number of steps in this run=    180 maximum allowed number of steps=    180.
 GradGradGradGradGradGradGradGradGradGradGradGradGradGradGradGradGradGrad

                          Input orientation:                          
 ---------------------------------------------------------------------
 Center     Atomic      Atomic             Coordinates (Angstroms)
 Number     Number       Type             X           Y           Z
 ---------------------------------------------------------------------
      1          1           0        1.430500   -0.966020   -1.300230
      2          6           0        1.297560   -0.842880   -0.216620
      3          6           0        0.230080    1.408750   -0.305250
      4          6           0       -1.022960   -0.163080    1.371580
      5          6           0       -0.885590    1.226730    0.728770
      6          8           0        0.000630   -1.276760    0.149030
      7          6           0        1.504710    0.659780    0.068470
      8          1           0       -0.625550    1.884750    1.579970
      9          1           0        1.737090    0.827560    1.134170
     10          6           0        2.316450   -1.713520    0.513220
     11          1           0        2.169110   -2.767130    0.238960
     12          1           0        2.166570   -1.618690    1.599160
     13          1           0       -0.137030    1.010030   -1.264760
     14          8           0        3.617440   -1.252170    0.128130
     15          1           0        4.281940   -1.697400    0.673860
     16          8           0       -2.135000    1.588610    0.181180
     17          1           0       -1.999180    2.436940   -0.271540
     18          8           0        0.454680    2.809120   -0.414140
     19          1           0        1.302480    2.903090   -0.883070
     20          8           0        2.550150    1.185020   -0.740930
     21          1           0        3.329940    0.626950   -0.566630
     22          1           0       -0.248010   -0.359760    2.130850
     23          8           0       -2.111260   -0.740070    1.466730
     24          8           0       -1.504040   -1.506710   -1.772380
     25          1           0       -1.550980   -2.426690   -2.071490
     26          1           0       -2.422550   -1.275290   -1.366770
     27          1           0       -0.607400   -1.405260   -0.680820
     28          8           0       -3.559290   -0.913900   -0.552180
     29          1           0       -4.055830   -1.705680   -0.295240
     30          1           0       -3.091420   -0.626560    0.293780
 ---------------------------------------------------------------------
                    Distance matrix (angstroms):
                    1          2          3          4          5
     1  H    0.000000
     2  C    1.098657   0.000000
     3  C    2.840867   2.493433   0.000000
     4  C    3.715205   2.892978   2.617731   0.000000
     5  C    3.780115   3.153283   1.532008   1.537416   0.000000
     6  O    2.059476   1.415620   2.733310   1.944903   2.718262
     7  C    2.126517   1.543429   1.524895   2.960458   2.543809
     8  H    4.544203   3.790258   2.124319   2.096418   1.106866
     9  H    3.039281   2.192759   2.163514   2.942041   2.683680
    10  C    2.152270   1.526046   3.843358   3.780517   4.352539
    11  H    2.481662   2.160993   4.636160   4.272378   5.051933
    12  H    3.061738   2.157340   4.067206   3.513359   4.262590
    13  H    2.522535   2.567084   1.102001   3.018501   2.140435
    14  O    2.627699   2.380801   4.329263   4.926012   5.175229
    15  H    3.544384   3.229502   5.198499   5.566230   5.937754
    16  O    4.629633   4.225264   2.421274   2.392092   1.411325
    17  H    4.939741   4.650670   2.455180   3.226911   1.924918
    18  O    3.998633   3.753207   1.422441   3.769110   2.367810
    19  H    3.893639   3.804796   1.927944   4.460103   3.193096
    20  O    2.488655   2.440545   2.371202   4.364308   3.737120
    21  H    2.585265   2.532484   3.207595   4.829963   4.450673
    22  H    3.867461   2.851808   3.048078   1.102598   2.211173
    23  O    4.500132   3.803195   3.638573   1.235463   2.432109
    24  O    3.021059   3.272617   3.695883   3.452718   3.756318
    25  H    3.408463   3.750090   4.582835   4.154211   4.650987
    26  H    3.866015   3.917785   3.920120   3.270233   3.607442
    27  H    2.174773   2.039761   2.959912   2.434758   2.998617
    28  O    5.045820   4.868946   4.451405   3.270711   3.656747
    29  H    5.626448   5.423042   5.298000   3.788958   4.438248
    30  H    4.806648   4.423850   3.941280   2.378023   2.913689
                    6          7          8          9         10
     6  O    0.000000
     7  C    2.453352   0.000000
     8  H    3.526306   2.884994   0.000000
     9  H    2.900682   1.103570   2.626491   0.000000
    10  C    2.384621   2.547406   4.768738   2.679240   0.000000
    11  H    2.632792   3.494883   5.590029   3.729590   1.098645
    12  H    2.628895   2.823561   4.479999   2.526818   1.100328
    13  H    2.692055   2.143709   3.016003   3.049670   4.074126
    14  O    3.616954   2.850042   5.472757   2.978777   1.433078
    15  H    4.333820   3.692669   6.142987   3.614356   1.972110
    16  O    3.573835   3.758047   2.079123   4.059614   5.552452
    17  H    4.238831   3.943495   2.370625   4.304165   6.038777
    18  O    4.149426   2.440315   2.449047   2.822839   4.977997
    19  H    4.497909   2.445151   3.289511   2.926767   4.928575
    20  O    3.654099   1.422656   3.995156   2.074812   3.166866
    21  H    3.901357   1.932846   4.672885   2.338832   2.769664
    22  H    2.197799   2.892214   2.341758   2.518675   3.320519
    23  O    2.546458   4.121887   3.018251   4.168676   4.632645
    24  O    2.451270   4.139442   4.848917   4.939815   4.456779
    25  H    2.942880   4.841794   5.725216   5.628304   4.705991
    26  H    2.858226   4.607362   4.679566   5.289545   5.117082
    27  H    1.036756   3.047431   3.991950   3.711645   3.173272
    28  O    3.646422   5.339080   4.580975   5.824783   6.024848
    29  H    4.103196   6.053701   5.307958   6.482163   6.423365
    30  H    3.162987   4.778059   3.747196   5.112263   5.520389
                   11         12         13         14         15
    11  H    0.000000
    12  H    1.780187   0.000000
    13  H    4.674013   4.518714   0.000000
    14  O    2.098820   2.098402   4.599319   0.000000
    15  H    2.407802   2.310231   5.533147   0.968303   0.000000
    16  O    6.123820   5.549860   2.533255   6.415872   7.226183
    17  H    6.687122   6.107465   2.547579   6.731693   7.578853
    18  O    5.870296   5.156495   2.076150   5.176020   6.011687
    19  H    5.844775   5.230164   2.408641   4.862895   5.697870
    20  O    4.089605   3.672049   2.743348   2.798976   3.648160
    21  H    3.676449   3.329711   3.557248   2.023966   2.801379
    22  H    3.900916   2.774490   3.663169   4.443983   4.942929
    23  O    4.892643   4.369135   3.797561   5.905260   6.512920
    24  O    4.373349   4.985298   2.908672   5.468664   6.284745
    25  H    4.392397   5.286465   3.802777   5.738501   6.487817
    26  H    5.087956   5.474914   3.233681   6.222278   7.020864
    27  H    3.226406   3.597050   2.529004   4.304313   5.081943
    28  O    6.072473   6.157148   3.990130   7.216835   7.975082
    29  H    6.337344   6.504966   4.865392   7.698311   8.393904
    30  H    5.679632   5.507703   3.719663   6.740002   7.460402
                   16         17         18         19         20
    16  O    0.000000
    17  H    0.971116   0.000000
    18  O    2.924123   2.486017   0.000000
    19  H    3.831025   3.390018   0.973391   0.000000
    20  O    4.792056   4.741733   2.671233   2.128062   0.000000
    21  H    5.599069   5.635837   3.612788   3.064562   0.974626
    22  H    3.340373   4.081618   4.124627   4.704670   4.296879
    23  O    2.660066   3.623194   4.766390   5.517952   5.505314
    24  O    3.714231   4.248536   4.930293   5.302241   4.974511
    25  H    4.640930   5.205343   5.846639   6.161260   5.624421
    26  H    3.268143   3.893510   5.086095   5.618601   5.583238
    27  H    3.469851   4.106953   4.354323   4.717036   4.084518
    28  O    2.971359   3.706863   5.476485   6.189968   6.462689
    29  H    3.843034   4.625113   6.382966   7.092094   7.224525
    30  H    2.415449   3.301152   4.987973   5.757583   6.014961
                   21         22         23         24         25
    21  H    0.000000
    22  H    4.588215   0.000000
    23  O    5.967408   2.014297   0.000000
    24  O    5.419751   4.257735   3.383532   0.000000
    25  H    5.950857   4.861028   3.959495   0.968521   0.000000
    26  H    6.111455   4.219024   2.900359   1.030405   1.606856
    27  H    4.432332   3.021212   2.704819   1.416248   1.966628
    28  O    7.059456   4.297708   2.490583   2.462593   2.937711
    29  H    7.750123   4.711359   2.796121   2.955193   3.154234
    30  H    6.598898   3.395731   1.532778   2.750174   3.347824
                   26         27         28         29         30
    26  H    0.000000
    27  H    1.944785   0.000000
    28  O    1.444416   2.995269   0.000000
    29  H    2.000254   3.482900   0.969271   0.000000
    30  H    1.904118   2.779672   1.008521   1.562540   0.000000
 Stoichiometry    C6H16O8
 Framework group  C1[X(C6H16O8)]
 Deg. of freedom    84
 Full point group                 C1      NOp   1
 Largest Abelian subgroup         C1      NOp   1
 Largest concise Abelian subgroup C1      NOp   1
                         Standard orientation:                         
 ---------------------------------------------------------------------
 Center     Atomic      Atomic             Coordinates (Angstroms)
 Number     Number       Type             X           Y           Z
 ---------------------------------------------------------------------
      1          1           0       -1.425928   -0.945291    1.291906
      2          6           0       -1.292631   -0.818186    0.208797
      3          6           0       -0.219108    1.430196    0.306425
      4          6           0        1.029746   -0.138292   -1.376646
      5          6           0        0.896095    1.249306   -0.728297
      6          8           0        0.003138   -1.254087   -0.158563
      7          6           0       -1.495736    0.686150   -0.070298
      8          1           0        0.637844    1.911414   -1.576869
      9          1           0       -1.727638    0.858805   -1.135323
     10          6           0       -2.313838   -1.683167   -0.524525
     11          1           0       -2.169336   -2.738255   -0.254469
     12          1           0       -2.163677   -1.584408   -1.610075
     13          1           0        0.146906    1.026666    1.264342
     14          8           0       -3.613593   -1.219864   -0.137615
     15          1           0       -4.279274   -1.661126   -0.685126
     16          8           0        2.146459    1.605641   -0.179251
     17          1           0        2.012907    2.452520    0.276849
     18          8           0       -0.439947    2.830719    0.420899
     19          1           0       -1.287503    2.925094    0.890188
     20          8           0       -2.539781    1.210963    0.741177
     21          1           0       -3.321063    0.655690    0.564641
     22          1           0        0.254289   -0.329858   -2.136705
     23          8           0        2.116494   -0.717819   -1.474082
     24          8           0        1.507138   -1.495743    1.761935
     25          1           0        1.551599   -2.417032    2.057373
     26          1           0        2.426276   -1.265175    1.357264
     27          1           0        0.610800   -1.387530    0.670776
     28          8           0        3.564003   -0.903593    0.544138
     29          1           0        4.058420   -1.695673    0.284048
     30          1           0        3.096927   -0.611624   -0.300675
 ---------------------------------------------------------------------
 Rotational constants (GHZ):      0.8480432      0.4687034      0.3724948
 Standard basis: 6-31G(d) (6D, 7F)
 There are   242 symmetry adapted cartesian basis functions of A   symmetry.
 There are   242 symmetry adapted basis functions of A   symmetry.
   242 basis functions,   456 primitive gaussians,   242 cartesian basis functions
    58 alpha electrons       58 beta electrons
       nuclear repulsion energy      1111.5237712665 Hartrees.
 NAtoms=   30 NActive=   30 NUniq=   30 SFac= 1.00D+00 NAtFMM=   60 NAOKFM=F Big=F
 Integral buffers will be    131072 words long.
 Raffenetti 2 integral format.
 Two-electron integral symmetry is turned on.
 One-electron integrals computed using PRISM.
 NBasis=   242 RedAO= T EigKep=  1.52D-03  NBF=   242
 NBsUse=   242 1.00D-06 EigRej= -1.00D+00 NBFU=   242
 ExpMin= 1.61D-01 ExpMax= 5.48D+03 ExpMxC= 8.25D+02 IAcc=1 IRadAn=         1 AccDes= 0.00D+00
 Harris functional with IExCor=  402 and IRadAn=       1 diagonalized for initial guess.
 HarFok:  IExCor=  402 AccDes= 0.00D+00 IRadAn=         1 IDoV= 1 UseB2=F ITyADJ=14
 ICtDFT=  3500011 ScaDFX=  1.000000  1.000000  1.000000  1.000000
 FoFCou: FMM=F IPFlag=           0 FMFlag=      100000 FMFlg1=           0
         NFxFlg=           0 DoJE=T BraDBF=F KetDBF=T FulRan=T
         wScrn=  0.000000 ICntrl=     500 IOpCl=  0 I1Cent=   200000004 NGrid=           0
         NMat0=    1 NMatS0=      1 NMatT0=    0 NMatD0=    1 NMtDS0=    0 NMtDT0=    0
 Petite list used in FoFCou.
 Requested convergence on RMS density matrix=1.00D-08 within 128 cycles.
 Requested convergence on MAX density matrix=1.00D-06.
 Requested convergence on             energy=1.00D-06.
 No special actions if energy rises.
 Integral accuracy reduced to 1.0D-05 until final iterations.
 Initial convergence to 1.0D-05 achieved.  Increase integral accuracy.
 SCF Done:  E(RB3LYP) =  -839.968355878     A.U. after   14 cycles
            NFock= 14  Conv=0.65D-08     -V/T= 2.0083

 **********************************************************************

            Population analysis using the SCF density.

 **********************************************************************

 Orbital symmetries:
       Occupied  (A) (A) (A) (A) (A) (A) (A) (A) (A) (A) (A) (A)
                 (A) (A) (A) (A) (A) (A) (A) (A) (A) (A) (A) (A)
                 (A) (A) (A) (A) (A) (A) (A) (A) (A) (A) (A) (A)
                 (A) (A) (A) (A) (A) (A) (A) (A) (A) (A) (A) (A)
                 (A) (A) (A) (A) (A) (A) (A) (A) (A) (A)
       Virtual   (A) (A) (A) (A) (A) (A) (A) (A) (A) (A) (A) (A)
                 (A) (A) (A) (A) (A) (A) (A) (A) (A) (A) (A) (A)
                 (A) (A) (A) (A) (A) (A) (A) (A) (A) (A) (A) (A)
                 (A) (A) (A) (A) (A) (A) (A) (A) (A) (A) (A) (A)
                 (A) (A) (A) (A) (A) (A) (A) (A) (A) (A) (A) (A)
                 (A) (A) (A) (A) (A) (A) (A) (A) (A) (A) (A) (A)
                 (A) (A) (A) (A) (A) (A) (A) (A) (A) (A) (A) (A)
                 (A) (A) (A) (A) (A) (A) (A) (A) (A) (A) (A) (A)
                 (A) (A) (A) (A) (A) (A) (A) (A) (A) (A) (A) (A)
                 (A) (A) (A) (A) (A) (A) (A) (A) (A) (A) (A) (A)
                 (A) (A) (A) (A) (A) (A) (A) (A) (A) (A) (A) (A)
                 (A) (A) (A) (A) (A) (A) (A) (A) (A) (A) (A) (A)
                 (A) (A) (A) (A) (A) (A) (A) (A) (A) (A) (A) (A)
                 (A) (A) (A) (A) (A) (A) (A) (A) (A) (A) (A) (A)
                 (A) (A) (A) (A) (A) (A) (A) (A) (A) (A) (A) (A)
                 (A) (A) (A) (A)
 The electronic state is 1-A.
 Alpha  occ. eigenvalues --  -19.17719 -19.15170 -19.14857 -19.14339 -19.14109
 Alpha  occ. eigenvalues --  -19.13958 -19.13250 -19.11705 -10.27566 -10.24876
 Alpha  occ. eigenvalues --  -10.24490 -10.23949 -10.23543 -10.23371  -1.05338
 Alpha  occ. eigenvalues --   -1.04299  -1.03277  -1.02492  -1.00925  -1.00877
 Alpha  occ. eigenvalues --   -0.99884  -0.97864  -0.78204  -0.75325  -0.69128
 Alpha  occ. eigenvalues --   -0.63177  -0.60638  -0.57031  -0.55732  -0.54723
 Alpha  occ. eigenvalues --   -0.53789  -0.52310  -0.50869  -0.50357  -0.48662
 Alpha  occ. eigenvalues --   -0.46672  -0.45143  -0.44379  -0.43571  -0.42698
 Alpha  occ. eigenvalues --   -0.42138  -0.41354  -0.40195  -0.38437  -0.37213
 Alpha  occ. eigenvalues --   -0.35884  -0.35370  -0.34708  -0.33128  -0.32200
 Alpha  occ. eigenvalues --   -0.30388  -0.29760  -0.28996  -0.28385  -0.26711
 Alpha  occ. eigenvalues --   -0.26520  -0.25600  -0.24020
 Alpha virt. eigenvalues --    0.02382   0.04292   0.06402   0.07729   0.08985
 Alpha virt. eigenvalues --    0.10508   0.11388   0.12111   0.13696   0.14358
 Alpha virt. eigenvalues --    0.15699   0.16122   0.16717   0.17802   0.19880
 Alpha virt. eigenvalues --    0.20316   0.21052   0.21632   0.24881   0.26337
 Alpha virt. eigenvalues --    0.28064   0.29071   0.29298   0.30083   0.32238
 Alpha virt. eigenvalues --    0.33732   0.35380   0.39245   0.52377   0.53956
 Alpha virt. eigenvalues --    0.54850   0.56911   0.57571   0.58787   0.60427
 Alpha virt. eigenvalues --    0.62885   0.64339   0.65538   0.66291   0.67008
 Alpha virt. eigenvalues --    0.67516   0.69962   0.72410   0.73370   0.74972
 Alpha virt. eigenvalues --    0.75618   0.76663   0.78732   0.79334   0.79986
 Alpha virt. eigenvalues --    0.81427   0.82194   0.82608   0.83861   0.84724
 Alpha virt. eigenvalues --    0.85163   0.87459   0.87866   0.88690   0.89690
 Alpha virt. eigenvalues --    0.91101   0.92291   0.93693   0.94549   0.96343
 Alpha virt. eigenvalues --    0.97934   0.99609   1.00888   1.01567   1.02223
 Alpha virt. eigenvalues --    1.03967   1.04467   1.06858   1.08201   1.10140
 Alpha virt. eigenvalues --    1.12275   1.13753   1.15447   1.16082   1.17008
 Alpha virt. eigenvalues --    1.18704   1.23473   1.24619   1.26332   1.28564
 Alpha virt. eigenvalues --    1.31013   1.32648   1.34747   1.36058   1.37143
 Alpha virt. eigenvalues --    1.42237   1.42453   1.45658   1.48755   1.50891
 Alpha virt. eigenvalues --    1.52725   1.53810   1.56633   1.58049   1.60403
 Alpha virt. eigenvalues --    1.61401   1.64520   1.65952   1.67361   1.68662
 Alpha virt. eigenvalues --    1.70849   1.72169   1.72894   1.74145   1.75092
 Alpha virt. eigenvalues --    1.75752   1.77558   1.77942   1.80180   1.81379
 Alpha virt. eigenvalues --    1.82374   1.84277   1.85387   1.85749   1.87997
 Alpha virt. eigenvalues --    1.88380   1.89115   1.90705   1.93547   1.95438
 Alpha virt. eigenvalues --    1.96822   1.98705   2.02126   2.04573   2.06562
 Alpha virt. eigenvalues --    2.07376   2.10211   2.10767   2.13269   2.16554
 Alpha virt. eigenvalues --    2.18839   2.20899   2.27080   2.28150   2.29724
 Alpha virt. eigenvalues --    2.31940   2.34286   2.37012   2.39974   2.42193
 Alpha virt. eigenvalues --    2.43899   2.45184   2.46998   2.47771   2.49532
 Alpha virt. eigenvalues --    2.50941   2.53178   2.55639   2.56056   2.60227
 Alpha virt. eigenvalues --    2.62034   2.66522   2.67864   2.70420   2.76037
 Alpha virt. eigenvalues --    2.78080   2.79659   2.84624   2.88798   2.91049
 Alpha virt. eigenvalues --    2.93965   2.98082   3.01634   3.03291   3.11081
 Alpha virt. eigenvalues --    3.75326   3.77483   3.80343   3.85409   3.91016
 Alpha virt. eigenvalues --    3.98683   4.09750   4.22561   4.27607   4.33786
 Alpha virt. eigenvalues --    4.42500   4.50248   4.64333   4.77146
          Condensed to atoms (all electrons):
               1          2          3          4          5          6
     1  H    0.610091   0.353502  -0.008167   0.000523   0.000119  -0.027004
     2  C    0.353502   4.970676  -0.025709  -0.001325  -0.009451   0.169600
     3  C   -0.008167  -0.025709   4.989465  -0.021060   0.312640   0.003183
     4  C    0.000523  -0.001325  -0.021060   4.712804   0.258096   0.039789
     5  C    0.000119  -0.009451   0.312640   0.258096   5.083464  -0.022651
     6  O   -0.027004   0.169600   0.003183   0.039789  -0.022651   8.564383
     7  C   -0.051733   0.289849   0.271345  -0.007548  -0.012613  -0.044588
     8  H    0.000008   0.000840  -0.045592  -0.047603   0.325055   0.001757
     9  H    0.007082  -0.057612  -0.054638  -0.001244  -0.005022   0.002942
    10  C   -0.048752   0.356236   0.004168  -0.000446  -0.000325  -0.043419
    11  H   -0.006983  -0.034989  -0.000100   0.000036  -0.000000   0.004400
    12  H    0.006449  -0.033463  -0.000167  -0.000199  -0.000037   0.003040
    13  H    0.005353  -0.000515   0.350449  -0.001750  -0.051073   0.003390
    14  O    0.003652  -0.047033   0.000162   0.000017  -0.000001   0.001206
    15  H   -0.000170   0.005669   0.000007  -0.000001  -0.000000  -0.000096
    16  O   -0.000004   0.000015  -0.035282  -0.041966   0.240310  -0.000036
    17  H   -0.000001  -0.000030  -0.007119   0.006442  -0.028749  -0.000040
    18  O   -0.000064   0.002715   0.217608   0.001908  -0.042898   0.000086
    19  H    0.000052   0.000650  -0.027925  -0.000155   0.005964  -0.000017
    20  O    0.005829  -0.035264  -0.030705   0.000116   0.001933   0.001655
    21  H    0.000540  -0.006046   0.005077  -0.000004  -0.000140   0.000011
    22  H   -0.000099   0.001011   0.001663   0.352213  -0.095793  -0.027698
    23  O   -0.000073   0.001497   0.000609   0.439294  -0.053015  -0.036311
    24  O    0.003810   0.001099  -0.001304   0.001890   0.000021  -0.082275
    25  H   -0.000234  -0.000016   0.000053  -0.000045  -0.000015   0.003835
    26  H   -0.000106   0.000014  -0.000148  -0.000279  -0.000301   0.005110
    27  H   -0.006039  -0.004414  -0.001088  -0.001297   0.000455   0.137856
    28  O    0.000005  -0.000008  -0.000029   0.010374   0.000558  -0.000555
    29  H   -0.000000   0.000001  -0.000000  -0.000242  -0.000012  -0.000008
    30  H   -0.000003  -0.000041   0.000347  -0.015854  -0.007547   0.000960
               7          8          9         10         11         12
     1  H   -0.051733   0.000008   0.007082  -0.048752  -0.006983   0.006449
     2  C    0.289849   0.000840  -0.057612   0.356236  -0.034989  -0.033463
     3  C    0.271345  -0.045592  -0.054638   0.004168  -0.000100  -0.000167
     4  C   -0.007548  -0.047603  -0.001244  -0.000446   0.000036  -0.000199
     5  C   -0.012613   0.325055  -0.005022  -0.000325  -0.000000  -0.000037
     6  O   -0.044588   0.001757   0.002942  -0.043419   0.004400   0.003040
     7  C    5.065765  -0.004174   0.351645  -0.052965   0.006465  -0.012185
     8  H   -0.004174   0.652507   0.006514   0.000040  -0.000000  -0.000013
     9  H    0.351645   0.006514   0.669668  -0.004878   0.000089   0.004641
    10  C   -0.052965   0.000040  -0.004878   4.928337   0.359387   0.358439
    11  H    0.006465  -0.000000   0.000089   0.359387   0.616859  -0.050318
    12  H   -0.012185  -0.000013   0.004641   0.358439  -0.050318   0.623444
    13  H   -0.058737   0.008233   0.007546   0.000351   0.000001   0.000004
    14  O    0.010774  -0.000000   0.000271   0.211124  -0.033999  -0.034729
    15  H   -0.000194   0.000000  -0.000050  -0.018228  -0.002740  -0.005177
    16  O    0.004200  -0.038616  -0.000014  -0.000000  -0.000000   0.000000
    17  H    0.000730  -0.002440  -0.000016   0.000000  -0.000000  -0.000000
    18  O   -0.028444   0.000748   0.000608  -0.000047   0.000000  -0.000001
    19  H   -0.016291  -0.000155   0.000631  -0.000019   0.000001   0.000000
    20  O    0.207269  -0.000179  -0.042330   0.000832  -0.000254   0.000071
    21  H   -0.024097   0.000006  -0.002112  -0.003121   0.000317   0.000464
    22  H    0.001283   0.003850   0.002464  -0.000047  -0.000036   0.002075
    23  O    0.000023   0.000992   0.000029  -0.000014   0.000004  -0.000034
    24  O   -0.000293  -0.000001  -0.000001  -0.000099  -0.000003   0.000002
    25  H    0.000006   0.000000   0.000000   0.000004   0.000005  -0.000000
    26  H    0.000013   0.000028   0.000001   0.000006  -0.000000  -0.000000
    27  H    0.003612  -0.000028  -0.000159   0.000551   0.000262  -0.000097
    28  O    0.000000  -0.000020  -0.000000  -0.000000   0.000000  -0.000000
    29  H    0.000000   0.000002   0.000000  -0.000000   0.000000   0.000000
    30  H   -0.000003   0.000237   0.000002   0.000000   0.000000   0.000000
              13         14         15         16         17         18
     1  H    0.005353   0.003652  -0.000170  -0.000004  -0.000001  -0.000064
     2  C   -0.000515  -0.047033   0.005669   0.000015  -0.000030   0.002715
     3  C    0.350449   0.000162   0.000007  -0.035282  -0.007119   0.217608
     4  C   -0.001750   0.000017  -0.000001  -0.041966   0.006442   0.001908
     5  C   -0.051073  -0.000001  -0.000000   0.240310  -0.028749  -0.042898
     6  O    0.003390   0.001206  -0.000096  -0.000036  -0.000040   0.000086
     7  C   -0.058737   0.010774  -0.000194   0.004200   0.000730  -0.028444
     8  H    0.008233  -0.000000   0.000000  -0.038616  -0.002440   0.000748
     9  H    0.007546   0.000271  -0.000050  -0.000014  -0.000016   0.000608
    10  C    0.000351   0.211124  -0.018228  -0.000000   0.000000  -0.000047
    11  H    0.000001  -0.033999  -0.002740  -0.000000  -0.000000   0.000000
    12  H    0.000004  -0.034729  -0.005177   0.000000  -0.000000  -0.000001
    13  H    0.631770  -0.000011   0.000001   0.002131  -0.000800  -0.044378
    14  O   -0.000011   8.265777   0.235602  -0.000000   0.000000  -0.000000
    15  H    0.000001   0.235602   0.377127   0.000000  -0.000000   0.000000
    16  O    0.002131  -0.000000   0.000000   8.250232   0.238864  -0.001763
    17  H   -0.000800   0.000000  -0.000000   0.238864   0.371047   0.011702
    18  O   -0.044378  -0.000000   0.000000  -0.001763   0.011702   8.320471
    19  H   -0.000193   0.000005  -0.000000  -0.000102  -0.000408   0.235313
    20  O   -0.000312  -0.012179   0.000540  -0.000012  -0.000002  -0.009028
    21  H   -0.000240   0.038261  -0.001262   0.000001   0.000000   0.000239
    22  H    0.000131  -0.000020  -0.000001   0.002726  -0.000251  -0.000170
    23  O    0.000150   0.000000  -0.000000  -0.000833  -0.000017  -0.000013
    24  O    0.004870   0.000000  -0.000000  -0.000171   0.000005   0.000002
    25  H   -0.000101  -0.000000   0.000000   0.000005  -0.000000  -0.000000
    26  H    0.000385  -0.000000   0.000000   0.001537  -0.000031  -0.000001
    27  H   -0.001245  -0.000002  -0.000000   0.000328  -0.000011  -0.000007
    28  O    0.000002   0.000000  -0.000000  -0.001262   0.000161   0.000000
    29  H    0.000000   0.000000  -0.000000   0.000180  -0.000009  -0.000000
    30  H    0.000031  -0.000000   0.000000   0.009214  -0.000367  -0.000004
              19         20         21         22         23         24
     1  H    0.000052   0.005829   0.000540  -0.000099  -0.000073   0.003810
     2  C    0.000650  -0.035264  -0.006046   0.001011   0.001497   0.001099
     3  C   -0.027925  -0.030705   0.005077   0.001663   0.000609  -0.001304
     4  C   -0.000155   0.000116  -0.000004   0.352213   0.439294   0.001890
     5  C    0.005964   0.001933  -0.000140  -0.095793  -0.053015   0.000021
     6  O   -0.000017   0.001655   0.000011  -0.027698  -0.036311  -0.082275
     7  C   -0.016291   0.207269  -0.024097   0.001283   0.000023  -0.000293
     8  H   -0.000155  -0.000179   0.000006   0.003850   0.000992  -0.000001
     9  H    0.000631  -0.042330  -0.002112   0.002464   0.000029  -0.000001
    10  C   -0.000019   0.000832  -0.003121  -0.000047  -0.000014  -0.000099
    11  H    0.000001  -0.000254   0.000317  -0.000036   0.000004  -0.000003
    12  H    0.000000   0.000071   0.000464   0.002075  -0.000034   0.000002
    13  H   -0.000193  -0.000312  -0.000240   0.000131   0.000150   0.004870
    14  O    0.000005  -0.012179   0.038261  -0.000020   0.000000   0.000000
    15  H   -0.000000   0.000540  -0.001262  -0.000001  -0.000000  -0.000000
    16  O   -0.000102  -0.000012   0.000001   0.002726  -0.000833  -0.000171
    17  H   -0.000408  -0.000002   0.000000  -0.000251  -0.000017   0.000005
    18  O    0.235313  -0.009028   0.000239  -0.000170  -0.000013   0.000002
    19  H    0.356290   0.028285  -0.000672   0.000014   0.000001  -0.000000
    20  O    0.028285   8.327731   0.231236   0.000006  -0.000000   0.000001
    21  H   -0.000672   0.231236   0.335996  -0.000002  -0.000000   0.000000
    22  H    0.000014   0.000006  -0.000002   0.679897  -0.040378  -0.000026
    23  O    0.000001  -0.000000  -0.000000  -0.040378   8.178145  -0.001450
    24  O   -0.000000   0.000001   0.000000  -0.000026  -0.001450   8.459431
    25  H    0.000000  -0.000000  -0.000000   0.000003   0.000066   0.231064
    26  H   -0.000000  -0.000000   0.000000   0.000057   0.002709   0.165158
    27  H    0.000001  -0.000048  -0.000001   0.001806   0.005724   0.118583
    28  O   -0.000000   0.000000   0.000000  -0.000218  -0.059581  -0.080754
    29  H   -0.000000  -0.000000   0.000000   0.000011   0.003593   0.004269
    30  H    0.000000   0.000000  -0.000000   0.002196   0.092438   0.006215
              25         26         27         28         29         30
     1  H   -0.000234  -0.000106  -0.006039   0.000005  -0.000000  -0.000003
     2  C   -0.000016   0.000014  -0.004414  -0.000008   0.000001  -0.000041
     3  C    0.000053  -0.000148  -0.001088  -0.000029  -0.000000   0.000347
     4  C   -0.000045  -0.000279  -0.001297   0.010374  -0.000242  -0.015854
     5  C   -0.000015  -0.000301   0.000455   0.000558  -0.000012  -0.007547
     6  O    0.003835   0.005110   0.137856  -0.000555  -0.000008   0.000960
     7  C    0.000006   0.000013   0.003612   0.000000   0.000000  -0.000003
     8  H    0.000000   0.000028  -0.000028  -0.000020   0.000002   0.000237
     9  H    0.000000   0.000001  -0.000159  -0.000000   0.000000   0.000002
    10  C    0.000004   0.000006   0.000551  -0.000000  -0.000000   0.000000
    11  H    0.000005  -0.000000   0.000262   0.000000   0.000000   0.000000
    12  H   -0.000000  -0.000000  -0.000097  -0.000000   0.000000   0.000000
    13  H   -0.000101   0.000385  -0.001245   0.000002   0.000000   0.000031
    14  O   -0.000000  -0.000000  -0.000002   0.000000   0.000000  -0.000000
    15  H    0.000000   0.000000  -0.000000  -0.000000  -0.000000   0.000000
    16  O    0.000005   0.001537   0.000328  -0.001262   0.000180   0.009214
    17  H   -0.000000  -0.000031  -0.000011   0.000161  -0.000009  -0.000367
    18  O   -0.000000  -0.000001  -0.000007   0.000000  -0.000000  -0.000004
    19  H    0.000000  -0.000000   0.000001  -0.000000  -0.000000   0.000000
    20  O   -0.000000  -0.000000  -0.000048   0.000000  -0.000000   0.000000
    21  H   -0.000000   0.000000  -0.000001   0.000000   0.000000  -0.000000
    22  H    0.000003   0.000057   0.001806  -0.000218   0.000011   0.002196
    23  O    0.000066   0.002709   0.005724  -0.059581   0.003593   0.092438
    24  O    0.231064   0.165158   0.118583  -0.080754   0.004269   0.006215
    25  H    0.381448  -0.006328  -0.005783   0.004148  -0.000228  -0.000265
    26  H   -0.006328   0.290805  -0.006662   0.112904  -0.006704  -0.009315
    27  H   -0.005783  -0.006662   0.288693   0.003015   0.000043  -0.000116
    28  O    0.004148   0.112904   0.003015   8.425120   0.234629   0.171042
    29  H   -0.000228  -0.006704   0.000043   0.234629   0.388509  -0.012081
    30  H   -0.000265  -0.009315  -0.000116   0.171042  -0.012081   0.293923
 Mulliken charges:
               1
     1  H    0.152415
     2  C    0.102542
     3  C    0.102258
     4  C    0.317516
     5  C    0.101029
     6  O   -0.658506
     7  C    0.100885
     8  H    0.138006
     9  H    0.113943
    10  C   -0.047117
    11  H    0.141594
    12  H    0.137790
    13  H    0.144555
    14  O   -0.638878
    15  H    0.408974
    16  O   -0.629683
    17  H    0.411339
    18  O   -0.664580
    19  H    0.418730
    20  O   -0.675191
    21  H    0.425549
    22  H    0.113335
    23  O   -0.533556
    24  O   -0.830044
    25  H    0.392378
    26  H    0.451149
    27  H    0.466065
    28  O   -0.819531
    29  H    0.388047
    30  H    0.468988
 Sum of Mulliken charges =  -0.00000
 Mulliken charges with hydrogens summed into heavy atoms:
               1
     2  C    0.254957
     3  C    0.246813
     4  C    0.430850
     5  C    0.239034
     6  O   -0.192441
     7  C    0.214828
    10  C    0.232267
    14  O   -0.229904
    16  O   -0.218343
    18  O   -0.245850
    20  O   -0.249642
    23  O   -0.533556
    24  O    0.013483
    28  O    0.037504
 Electronic spatial extent (au):  <R**2>=           3154.4122
 Charge=              0.0000 electrons
 Dipole moment (field-independent basis, Debye):
    X=             -3.7341    Y=             -3.7524    Z=             -0.4501  Tot=              5.3128
 Quadrupole moment (field-independent basis, Debye-Ang):
   XX=            -76.3337   YY=            -74.4634   ZZ=            -84.0609
   XY=              0.0481   XZ=              8.1923   YZ=             -2.5662
 Traceless Quadrupole moment (field-independent basis, Debye-Ang):
   XX=              1.9523   YY=              3.8226   ZZ=             -5.7749
   XY=              0.0481   XZ=              8.1923   YZ=             -2.5662
 Octapole moment (field-independent basis, Debye-Ang**2):
  XXX=            -44.0248  YYY=            -35.8443  ZZZ=              6.2660  XYY=             18.0205
  XXY=            -52.4949  XXZ=            -14.3002  XZZ=             -7.8492  YZZ=             -3.7082
  YYZ=             21.3920  XYZ=            -17.4349
 Hexadecapole moment (field-independent basis, Debye-Ang**3):
 XXXX=          -1805.9649 YYYY=          -1004.0189 ZZZZ=           -462.4489 XXXY=            -29.9151
 XXXZ=             84.8472 YYYX=            -30.1840 YYYZ=            -19.4075 ZZZX=             19.8215
 ZZZY=            -18.7231 XXYY=           -384.0893 XXZZ=           -437.8223 YYZZ=           -221.9390
 XXYZ=             27.4148 YYXZ=             45.6197 ZZXY=             -1.8186
 N-N= 1.111523771266D+03 E-N=-4.196462463702D+03  KE= 8.330829684617D+02
 Calling FoFJK, ICntrl=      2127 FMM=F ISym2X=0 I1Cent= 0 IOpClX= 0 NMat=1 NMatS=1 NMatT=0.
 ***** Axes restored to original set *****
 -------------------------------------------------------------------
 Center     Atomic                   Forces (Hartrees/Bohr)
 Number     Number              X              Y              Z
 -------------------------------------------------------------------
      1        1           0.000517397    0.000058527   -0.000262640
      2        6           0.004732738   -0.000781274   -0.003383823
      3        6          -0.000405350   -0.000935278    0.000312182
      4        6          -0.005381395    0.009391320    0.012697546
      5        6          -0.001605195    0.001928689    0.001309382
      6        8           0.013718970   -0.008805996    0.000827455
      7        6           0.000222534   -0.000613775   -0.000450023
      8        1           0.000022193    0.000493682   -0.000188705
      9        1          -0.000005796   -0.000133382   -0.000011566
     10        6           0.001238306   -0.000187809   -0.001008110
     11        1           0.000040265   -0.000019677   -0.000040983
     12        1          -0.000137182    0.000076976   -0.000110547
     13        1          -0.000105519   -0.000047182    0.000053489
     14        8           0.000481592   -0.000116119    0.000571859
     15        1           0.000080558    0.000034528    0.000001551
     16        8          -0.000755451    0.000968378   -0.000142300
     17        1          -0.000103347    0.000041341   -0.000057057
     18        8          -0.000169117   -0.000653331    0.000445439
     19        1          -0.000053784   -0.000071331   -0.000064309
     20        8          -0.000139674    0.000191139   -0.000054168
     21        1           0.000022745    0.000081780    0.000103904
     22        1           0.000292930    0.000335045    0.000144117
     23        8           0.002696532    0.001145196    0.009779107
     24        8           0.004332758   -0.003674481   -0.015007471
     25        1          -0.000799669   -0.000189303   -0.000693241
     26        1           0.000616190    0.000238646   -0.001245326
     27        1           0.001031178   -0.000453757    0.000432653
     28        8          -0.018002319    0.000583693   -0.003522043
     29        1          -0.000567630    0.000059842    0.000920912
     30        1          -0.001815458    0.001053913   -0.001357283
 -------------------------------------------------------------------
 Cartesian Forces:  Max     0.018002319 RMS     0.003809331

 GradGradGradGradGradGradGradGradGradGradGradGradGradGradGradGradGradGrad
 Berny optimization.
 FormGI is forming the generalized inverse of G from B-inverse, IUseBI=4.
 Internal  Forces:  Max     0.024932325 RMS     0.006055890
 Search for a local minimum.
 Step number   1 out of a maximum of  180
 All quantities printed in internal units (Hartrees-Bohrs-Radians)
 Mixed Optimization -- RFO/linear search
 Second derivative matrix not updated -- first step.
 ITU=  0
     Eigenvalues ---    0.00230   0.00230   0.00231   0.00296   0.00369
     Eigenvalues ---    0.00421   0.00673   0.01069   0.01254   0.01392
     Eigenvalues ---    0.01395   0.01420   0.01542   0.01754   0.02363
     Eigenvalues ---    0.03026   0.04008   0.04314   0.04497   0.04652
     Eigenvalues ---    0.04802   0.04947   0.05115   0.05264   0.05432
     Eigenvalues ---    0.05811   0.06009   0.06301   0.06695   0.06977
     Eigenvalues ---    0.07277   0.07996   0.08356   0.08843   0.10287
     Eigenvalues ---    0.10839   0.10897   0.11242   0.12998   0.13536
     Eigenvalues ---    0.13918   0.15045   0.15339   0.15848   0.16000
     Eigenvalues ---    0.16000   0.16000   0.16000   0.16233   0.16942
     Eigenvalues ---    0.17738   0.18701   0.19317   0.19921   0.20406
     Eigenvalues ---    0.21761   0.21971   0.27862   0.28456   0.28898
     Eigenvalues ---    0.29607   0.29792   0.32934   0.33290   0.33396
     Eigenvalues ---    0.33462   0.33646   0.33831   0.33832   0.40550
     Eigenvalues ---    0.40850   0.41768   0.42063   0.42095   0.42860
     Eigenvalues ---    0.43794   0.45621   0.52443   0.52690   0.53150
     Eigenvalues ---    0.53526   0.53680   0.53725   0.86908
 RFO step:  Lambda=-4.00332487D-02 EMin= 2.30000000D-03
 Linear search not attempted -- first point.
 Maximum step size (   0.300) exceeded in Quadratic search.
    -- Step size scaled by   0.698
 Iteration  1 RMS(Cart)=  0.16618777 RMS(Int)=  0.00656521
 Iteration  2 RMS(Cart)=  0.01189482 RMS(Int)=  0.00107906
 Iteration  3 RMS(Cart)=  0.00015687 RMS(Int)=  0.00107760
 Iteration  4 RMS(Cart)=  0.00000036 RMS(Int)=  0.00107760
 Variable       Old X    -DE/DX   Delta X   Delta X   Delta X     New X
                                 (Linear)    (Quad)   (Total)
    R1        2.07616   0.00031   0.00000   0.00058   0.00058   2.07674
    R2        2.67513  -0.00236   0.00000  -0.00549  -0.00495   2.67019
    R3        2.91666   0.00707   0.00000   0.01612   0.01656   2.93322
    R4        2.88381   0.00098   0.00000   0.00203   0.00203   2.88584
    R5        2.89508   0.01261   0.00000   0.02797   0.02733   2.92240
    R6        2.88163   0.00897   0.00000   0.02298   0.02356   2.90520
    R7        2.08248   0.00000   0.00000  -0.00001   0.00003   2.08251
    R8        2.68802  -0.00078   0.00000  -0.00118  -0.00118   2.68684
    R9        2.90529  -0.00008   0.00000  -0.00227  -0.00342   2.90188
   R10        2.08361   0.00025   0.00000   0.00046   0.00046   2.08407
   R11        2.33469   0.00317   0.00000   0.00331   0.00302   2.33770
   R12        2.09167   0.00015   0.00000   0.00029   0.00029   2.09196
   R13        2.66702   0.00110   0.00000   0.00161   0.00161   2.66862
   R14        1.95919   0.01178   0.00000   0.01546   0.01469   1.97387
   R15        2.08545  -0.00004   0.00000  -0.00007  -0.00007   2.08538
   R16        2.68843  -0.00001   0.00000  -0.00002  -0.00002   2.68842
   R17        2.07614   0.00002   0.00000   0.00004   0.00004   2.07618
   R18        2.07932  -0.00008   0.00000  -0.00015  -0.00015   2.07917
   R19        2.70813   0.00033   0.00000   0.00051   0.00051   2.70864
   R20        1.82983   0.00004   0.00000   0.00005   0.00005   1.82988
   R21        1.83514   0.00005   0.00000   0.00006   0.00006   1.83521
   R22        1.83944  -0.00002   0.00000  -0.00002  -0.00002   1.83942
   R23        1.84178  -0.00001   0.00000  -0.00001  -0.00001   1.84176
   R24        2.89653   0.01220   0.00000   0.06820   0.06908   2.96561
   R25        1.83024   0.00044   0.00000   0.00053   0.00053   1.83077
   R26        1.94718   0.01872   0.00000   0.02559   0.02588   1.97306
   R27        2.67632   0.01312   0.00000   0.04471   0.04402   2.72034
   R28        2.72955   0.01979   0.00000   0.07664   0.07680   2.80635
   R29        1.83166   0.00049   0.00000   0.00059   0.00059   1.83225
   R30        1.90583   0.01279   0.00000   0.01975   0.02035   1.92618
    A1        1.90844   0.00012   0.00000  -0.00030   0.00022   1.90866
    A2        1.84945  -0.00097   0.00000  -0.00900  -0.00949   1.83996
    A3        1.90389  -0.00077   0.00000  -0.00207  -0.00193   1.90197
    A4        1.95374  -0.00323   0.00000   0.00771   0.00859   1.96233
    A5        1.88946   0.00220   0.00000   0.00048  -0.00079   1.88867
    A6        1.95789   0.00255   0.00000   0.00277   0.00298   1.96087
    A7        1.96595   0.02493   0.00000   0.09970   0.10045   2.06640
    A8        1.87768  -0.00141   0.00000   0.00675   0.00530   1.88298
    A9        1.85837  -0.01500   0.00000  -0.05251  -0.05183   1.80654
   A10        1.89034  -0.00993   0.00000  -0.02561  -0.02744   1.86290
   A11        1.95015  -0.00303   0.00000  -0.02304  -0.02261   1.92754
   A12        1.92000   0.00461   0.00000  -0.00488  -0.00546   1.91454
   A13        1.96749  -0.00542   0.00000  -0.00591  -0.00595   1.96154
   A14        2.13305   0.00790   0.00000   0.00854   0.00896   2.14201
   A15        2.07462  -0.00033   0.00000   0.00943   0.00899   2.08361
   A16        2.04280   0.01555   0.00000   0.06637   0.06489   2.10770
   A17        1.85180   0.00022   0.00000  -0.00416  -0.00388   1.84793
   A18        1.93088  -0.00939   0.00000  -0.02496  -0.02467   1.90621
   A19        1.80994  -0.00719   0.00000  -0.02301  -0.02256   1.78738
   A20        1.89117  -0.00116   0.00000  -0.00951  -0.00926   1.88191
   A21        1.93256   0.00209   0.00000  -0.00639  -0.00700   1.92556
   A22        1.94824   0.00715   0.00000   0.03233   0.03410   1.98233
   A23        1.89730   0.00659   0.00000   0.04769   0.04807   1.94536
   A24        1.93334   0.00353   0.00000   0.02400   0.02238   1.95572
   A25        1.93155  -0.00757   0.00000  -0.04222  -0.04142   1.89013
   A26        1.91560  -0.00234   0.00000   0.00112   0.00016   1.91575
   A27        1.86866  -0.00149   0.00000  -0.02534  -0.02590   1.84276
   A28        1.91616   0.00114   0.00000  -0.00620  -0.00589   1.91028
   A29        1.91580  -0.00018   0.00000  -0.00004  -0.00004   1.91576
   A30        1.90910  -0.00051   0.00000  -0.00196  -0.00196   1.90714
   A31        1.86915   0.00117   0.00000   0.00328   0.00328   1.87243
   A32        1.88678   0.00016   0.00000  -0.00001  -0.00002   1.88677
   A33        1.94271  -0.00024   0.00000   0.00015   0.00015   1.94287
   A34        1.94026  -0.00041   0.00000  -0.00146  -0.00146   1.93880
   A35        1.90025   0.00013   0.00000   0.00047   0.00047   1.90072
   A36        1.85569   0.00021   0.00000   0.00074   0.00074   1.85643
   A37        1.84361  -0.00014   0.00000  -0.00048  -0.00048   1.84314
   A38        1.84918  -0.00002   0.00000  -0.00006  -0.00006   1.84912
   A39        2.05983  -0.00293   0.00000  -0.00097   0.00135   2.06118
   A40        1.86680   0.00447   0.00000   0.01678   0.01593   1.88273
   A41        1.91427  -0.00621   0.00000  -0.01488  -0.01688   1.89739
   A42        1.81819   0.01123   0.00000   0.02011   0.01814   1.83633
   A43        1.92653   0.00186   0.00000   0.00636   0.00712   1.93364
   A44        1.75101   0.00880   0.00000   0.04168   0.04212   1.79313
   A45        1.82145  -0.00109   0.00000   0.00269  -0.00196   1.81949
   A46        2.73244   0.00563   0.00000   0.02198   0.02106   2.75350
   A47        3.00173  -0.00068   0.00000   0.03440   0.03460   3.03633
   A48        3.10715   0.00162   0.00000   0.02536   0.02181   3.12895
   A49        3.29305  -0.01788   0.00000  -0.19525  -0.19430   3.09875
   A50        3.20951  -0.00037   0.00000   0.06020   0.06242   3.27193
    D1       -0.22773  -0.00108   0.00000  -0.02920  -0.03048  -0.25821
    D2        1.81625  -0.00414   0.00000  -0.03587  -0.03690   1.77934
    D3       -2.30001  -0.00150   0.00000  -0.02683  -0.02783  -2.32784
    D4        1.37882  -0.00217   0.00000  -0.02893  -0.03037   1.34845
    D5       -2.79826   0.00135   0.00000   0.01791   0.01824  -2.78001
    D6       -0.66875   0.00004   0.00000  -0.00244  -0.00251  -0.67127
    D7       -0.70030   0.00006   0.00000  -0.02724  -0.02944  -0.72973
    D8        1.40582   0.00359   0.00000   0.01960   0.01917   1.42499
    D9       -2.74787   0.00228   0.00000  -0.00075  -0.00158  -2.74945
   D10       -2.82847  -0.00230   0.00000  -0.03552  -0.03697  -2.86544
   D11       -0.72236   0.00123   0.00000   0.01132   0.01164  -0.71072
   D12        1.40715  -0.00009   0.00000  -0.00903  -0.00912   1.39803
   D13       -1.04280  -0.00043   0.00000  -0.00230  -0.00242  -1.04522
   D14       -3.11025  -0.00021   0.00000  -0.00108  -0.00120  -3.11146
   D15        1.06845  -0.00012   0.00000  -0.00015  -0.00027   1.06818
   D16        1.03237   0.00055   0.00000  -0.00355  -0.00369   1.02867
   D17       -1.03509   0.00077   0.00000  -0.00234  -0.00248  -1.03757
   D18       -3.13957   0.00086   0.00000  -0.00141  -0.00155  -3.14111
   D19       -3.08638  -0.00027   0.00000   0.00847   0.00873  -3.07764
   D20        1.12935  -0.00005   0.00000   0.00968   0.00995   1.13930
   D21       -0.97513   0.00004   0.00000   0.01061   0.01088  -0.96425
   D22       -0.66509   0.00415   0.00000   0.02322   0.02160  -0.64349
   D23        1.34374   0.00397   0.00000   0.02849   0.02730   1.37104
   D24       -2.84240   0.00142   0.00000   0.00451   0.00355  -2.83885
   D25        1.41691   0.00584   0.00000   0.05551   0.05545   1.47235
   D26       -2.85745   0.00565   0.00000   0.06078   0.06115  -2.79630
   D27       -0.76041   0.00310   0.00000   0.03680   0.03740  -0.72301
   D28       -2.80844   0.00276   0.00000   0.02617   0.02593  -2.78251
   D29       -0.79961   0.00258   0.00000   0.03144   0.03163  -0.76798
   D30        1.29743   0.00003   0.00000   0.00746   0.00788   1.30531
   D31        1.32559   0.01257   0.00000   0.12894   0.12839   1.45399
   D32       -0.79143   0.00554   0.00000   0.06893   0.06814  -0.72329
   D33       -2.87035   0.00633   0.00000   0.09048   0.08975  -2.78060
   D34       -0.74902   0.00570   0.00000   0.07683   0.07696  -0.67206
   D35       -2.86604  -0.00132   0.00000   0.01682   0.01671  -2.84933
   D36        1.33822  -0.00054   0.00000   0.03837   0.03832   1.37654
   D37       -2.86654   0.00849   0.00000   0.11454   0.11430  -2.75223
   D38        1.29963   0.00147   0.00000   0.05453   0.05405   1.35368
   D39       -0.77929   0.00225   0.00000   0.07609   0.07566  -0.70363
   D40        2.89037   0.00891   0.00000   0.03326   0.03378   2.92415
   D41        0.73712  -0.01007   0.00000  -0.04093  -0.04169   0.69543
   D42       -1.36313   0.00132   0.00000   0.00973   0.00997  -1.35315
   D43        1.32294   0.00432   0.00000   0.04045   0.04002   1.36296
   D44       -0.70898   0.00084   0.00000   0.02661   0.02654  -0.68244
   D45       -2.76309   0.00258   0.00000   0.04977   0.04939  -2.71370
   D46       -2.30806   0.00840   0.00000   0.06809   0.06817  -2.23988
   D47        1.94321   0.00492   0.00000   0.05425   0.05470   1.99791
   D48       -0.11090   0.00666   0.00000   0.07741   0.07755  -0.03335
   D49        0.68119   0.00510   0.00000   0.03064   0.02901   0.71020
   D50       -2.97836   0.00827   0.00000   0.05584   0.05511  -2.92325
   D51       -0.80992   0.00555   0.00000   0.02846   0.02760  -0.78232
   D52       -3.07106  -0.00682   0.00000  -0.03211  -0.03126  -3.10232
   D53        1.23809   0.00129   0.00000   0.00387   0.00388   1.24197
   D54        1.70561   0.00675   0.00000   0.10812   0.10808   1.81368
   D55       -2.58792   0.01481   0.00000   0.11771   0.11506  -2.47285
   D56       -0.96256   0.00083   0.00000   0.00608   0.00677  -0.95579
   D57       -3.02765  -0.00204   0.00000  -0.01292  -0.01363  -3.04128
   D58        1.17698   0.00099   0.00000   0.00391   0.00394   1.18092
   D59        2.99684  -0.00018   0.00000  -0.00127  -0.00127   2.99556
   D60       -1.19223   0.00019   0.00000   0.00083   0.00083  -1.19140
   D61        0.91229  -0.00005   0.00000  -0.00008  -0.00008   0.91222
   D62        1.70249  -0.00688   0.00000  -0.02474  -0.02800   1.67449
   D63        0.27793   0.00176   0.00000   0.03422   0.03408   0.31201
   D64        2.15894   0.00755   0.00000   0.09009   0.09191   2.25086
   D65       -1.71379  -0.00214   0.00000  -0.01106  -0.01570  -1.72949
   D66        0.16722   0.00366   0.00000   0.04481   0.04214   0.20936
   D67       -0.86235  -0.00541   0.00000  -0.02478  -0.02720  -0.88955
   D68        1.13318  -0.00055   0.00000  -0.00192  -0.00427   1.12891
         Item               Value     Threshold  Converged?
 Maximum Force            0.024932     0.000450     NO 
 RMS     Force            0.006056     0.000300     NO 
 Maximum Displacement     0.629955     0.001800     NO 
 RMS     Displacement     0.169560     0.001200     NO 
 Predicted change in Energy=-2.278638D-02
 GradGradGradGradGradGradGradGradGradGradGradGradGradGradGradGradGradGrad

                          Input orientation:                          
 ---------------------------------------------------------------------
 Center     Atomic      Atomic             Coordinates (Angstroms)
 Number     Number       Type             X           Y           Z
 ---------------------------------------------------------------------
      1          1           0        1.539934   -0.934673   -1.361860
      2          6           0        1.398339   -0.906800   -0.272413
      3          6           0        0.213068    1.354108   -0.223856
      4          6           0       -1.268731    0.014318    1.561686
      5          6           0       -0.962332    1.299875    0.779668
      6          8           0        0.139723   -1.461846    0.050671
      7          6           0        1.503111    0.591508    0.119244
      8          1           0       -0.705217    2.013332    1.586119
      9          1           0        1.742163    0.724600    1.188323
     10          6           0        2.479497   -1.757339    0.390745
     11          1           0        2.406868   -2.794225    0.034849
     12          1           0        2.323794   -1.758015    1.479921
     13          1           0       -0.145098    0.954855   -1.186536
     14          8           0        3.745512   -1.177337    0.051193
     15          1           0        4.439433   -1.616205    0.564545
     16          8           0       -2.148722    1.702698    0.128172
     17          1           0       -1.922682    2.494151   -0.387230
     18          8           0        0.477502    2.745346   -0.350703
     19          1           0        1.332289    2.808392   -0.812040
     20          8           0        2.522699    1.189787   -0.672229
     21          1           0        3.322770    0.651821   -0.529530
     22          1           0       -0.581368   -0.134503    2.411180
     23          8           0       -2.395556   -0.494980    1.596281
     24          8           0       -1.514378   -1.632196   -1.787762
     25          1           0       -1.578365   -2.548256   -2.096488
     26          1           0       -2.407053   -1.395039   -1.300902
     27          1           0       -0.498112   -1.557442   -0.770955
     28          8           0       -3.617186   -0.901102   -0.595916
     29          1           0       -4.174169   -1.640945   -0.308699
     30          1           0       -3.234492   -0.524128    0.270333
 ---------------------------------------------------------------------
                    Distance matrix (angstroms):
                    1          2          3          4          5
     1  H    0.000000
     2  C    1.098964   0.000000
     3  C    2.879955   2.553220   0.000000
     4  C    4.163688   3.365358   2.679351   0.000000
     5  C    3.980035   3.398391   1.546469   1.535608   0.000000
     6  O    2.057607   1.413001   2.830255   2.538891   3.061547
     7  C    2.127029   1.552192   1.537364   3.177561   2.648840
     8  H    4.735189   4.050464   2.133971   2.077066   1.107019
     9  H    3.049182   2.216626   2.174549   3.115989   2.795038
    10  C    2.152018   1.527121   3.898145   4.308025   4.619957
    11  H    2.481997   2.161924   4.699825   4.871260   5.354244
    12  H    3.060727   2.156782   4.128357   4.006755   4.543091
    13  H    2.537791   2.585262   1.102016   3.114464   2.157051
    14  O    2.630623   2.384771   4.354541   5.370685   5.369455
    15  H    3.547199   3.232957   5.225562   6.019637   6.142383
    16  O    4.773060   4.421718   2.413191   2.383270   1.412174
    17  H    4.969551   4.754874   2.426482   3.221102   1.926193
    18  O    3.961532   3.767259   1.421815   3.763651   2.332433
    19  H    3.788925   3.754759   1.927060   4.495190   3.174027
    20  O    2.440235   2.412409   2.358482   4.554892   3.776978
    21  H    2.527497   2.489748   3.202638   5.085417   4.527259
    22  H    4.401821   3.423062   3.128978   1.102840   2.205540
    23  O    4.942874   4.249147   3.679258   1.237060   2.437723
    24  O    3.161764   3.362499   3.787860   3.740341   3.936178
    25  H    3.587076   3.857770   4.684488   4.477153   4.843541
    26  H    3.974212   3.972049   3.947514   3.387694   3.698453
    27  H    2.211479   2.066011   3.046673   2.916418   3.283930
    28  O    5.213797   5.025950   4.460408   3.317903   3.712787
    29  H    5.853114   5.620777   5.312757   3.831423   4.488749
    30  H    5.062385   4.680185   3.956976   2.412827   2.957891
                    6          7          8          9         10
     6  O    0.000000
     7  C    2.465723   0.000000
     8  H    3.892093   3.008325   0.000000
     9  H    2.939833   1.103534   2.794413   0.000000
    10  C    2.382753   2.558148   5.078315   2.709209   0.000000
    11  H    2.629721   3.505294   5.933306   3.762242   1.098667
    12  H    2.626907   2.836410   4.838311   2.566457   1.100249
    13  H    2.729881   2.133935   3.020219   3.042158   4.090515
    14  O    3.616996   2.856887   5.687298   2.987279   1.433350
    15  H    4.333060   3.700577   6.378447   3.625428   1.972682
    16  O    3.906063   3.817160   2.075045   4.149649   5.784567
    17  H    4.482765   3.951281   2.368019   4.364031   6.169245
    18  O    4.239771   2.431408   2.384522   2.837496   4.983162
    19  H    4.516793   2.410612   3.245723   2.917471   4.858877
    20  O    3.637626   1.422648   4.024650   2.070576   3.133262
    21  H    3.864713   1.932797   4.749143   2.335515   2.713313
    22  H    2.802467   3.181999   2.304183   2.762650   4.010567
    23  O    3.122720   4.308329   3.024728   4.332958   5.178128
    24  O    2.478891   4.205564   5.032662   5.001663   4.551109
    25  H    2.956755   4.925757   5.927232   5.703287   4.824740
    26  H    2.883969   4.610051   4.779971   5.282528   5.183754
    27  H    1.044529   3.068441   4.283588   3.750376   3.202446
    28  O    3.853164   5.381151   4.662056   5.877843   6.235077
    29  H    4.332538   6.115431   5.383095   6.545217   6.691341
    30  H    3.508973   4.869533   3.816704   5.212401   5.846792
                   11         12         13         14         15
    11  H    0.000000
    12  H    1.780131   0.000000
    13  H    4.696799   4.534875   0.000000
    14  O    2.099181   2.097555   4.605981   0.000000
    15  H    2.408242   2.309536   5.540267   0.968330   0.000000
    16  O    6.401908   5.814393   2.510425   6.560680   7.389812
    17  H    6.847633   6.292831   2.483571   6.767604   7.633964
    18  O    5.878601   5.200023   2.071739   5.121411   5.963028
    19  H    5.767258   5.204637   2.399691   4.738655   5.579103
    20  O    4.047929   3.655250   2.727058   2.760776   3.616223
    21  H    3.610074   3.292895   3.542541   1.965138   2.754610
    22  H    4.653024   3.455865   3.784257   5.037751   5.551031
    23  O    5.548682   4.886825   3.861432   6.369115   7.002764
    24  O    4.477544   5.042336   2.988182   5.590625   6.401677
    25  H    4.526056   5.351825   3.892822   5.902170   6.645578
    26  H    5.188044   5.499604   3.263667   6.303143   7.099520
    27  H    3.258506   3.615221   2.570791   4.339211   5.115307
    28  O    6.345945   6.351271   3.981056   7.396241   8.171117
    29  H    6.690152   6.740652   4.872596   7.941398   8.657789
    30  H    6.085535   5.820663   3.722125   7.013926   7.756824
                   16         17         18         19         20
    16  O    0.000000
    17  H    0.971149   0.000000
    18  O    2.865918   2.413569   0.000000
    19  H    3.771472   3.297582   0.973380   0.000000
    20  O    4.767169   4.641552   2.589590   2.014077   0.000000
    21  H    5.610182   5.561402   3.537001   2.948326   0.974620
    22  H    3.323257   4.066945   4.128284   4.765697   4.571257
    23  O    2.654442   3.618402   4.748149   5.532550   5.672196
    24  O    3.898039   4.376635   5.019521   5.364174   5.050346
    25  H    4.831670   5.335353   5.941092   6.230201   5.728893
    26  H    3.421251   4.024327   5.134814   5.647167   5.601697
    27  H    3.763171   4.311850   4.431977   4.734191   4.084399
    28  O    3.075786   3.800347   5.488459   6.189052   6.486589
    29  H    3.933604   4.708968   6.393697   7.097256   7.279646
    30  H    2.481503   3.356075   4.985383   5.756102   6.080393
                   21         22         23         24         25
    21  H    0.000000
    22  H    4.950593   0.000000
    23  O    6.207534   2.021209   0.000000
    24  O    5.495259   4.554636   3.677157   0.000000
    25  H    6.059453   5.209538   4.303520   0.968800   0.000000
    26  H    6.133149   4.324538   3.033793   1.044101   1.627758
    27  H    4.420211   3.486786   3.214487   1.439542   1.976284
    28  O    7.111889   4.341255   2.542252   2.525232   3.020203
    29  H    7.842808   4.751351   2.847042   3.043386   3.279879
    30  H    6.709718   3.431341   1.569331   2.902131   3.527279
                   26         27         28         29         30
    26  H    0.000000
    27  H    1.987782   0.000000
    28  O    1.485059   3.192185   0.000000
    29  H    2.041479   3.705948   0.969584   0.000000
    30  H    1.977857   3.104802   1.019290   1.570208   0.000000
 Stoichiometry    C6H16O8
 Framework group  C1[X(C6H16O8)]
 Deg. of freedom    84
 Full point group                 C1      NOp   1
 Largest Abelian subgroup         C1      NOp   1
 Largest concise Abelian subgroup C1      NOp   1
                         Standard orientation:                         
 ---------------------------------------------------------------------
 Center     Atomic      Atomic             Coordinates (Angstroms)
 Number     Number       Type             X           Y           Z
 ---------------------------------------------------------------------
      1          1           0       -1.615221   -0.975228    1.234058
      2          6           0       -1.445125   -0.847087    0.155927
      3          6           0       -0.160574    1.350320    0.356578
      4          6           0        1.305302    0.125168   -1.522020
      5          6           0        1.036213    1.340518   -0.622795
      6          8           0       -0.204435   -1.425421   -0.194492
      7          6           0       -1.473898    0.685678   -0.087180
      8          1           0        0.831178    2.140865   -1.359609
      9          1           0       -1.679838    0.934048   -1.142495
     10          6           0       -2.545640   -1.577391   -0.610638
     11          1           0       -2.527744   -2.646462   -0.357980
     12          1           0       -2.362718   -1.478311   -1.691041
[...]
 .00011023,-0.00096628,-0.00138016,-0.00026612,0.00047497,-0.00008939,0
 .00000698,-0.00058618,0.00068185,0.00001460,0.00014713,-0.00036321,-0.
 00001482,-0.00036216,0.00011288,-0.00014080,-0.00090113,0.00040334,-0.
 00097516,-0.01679811,0.53721850,-0.00072117,-0.00046978,0.00109874,0.0
 0394013,0.00342229,-0.00556330,0.00004355,0.00033739,-0.00072556,0.000
 53057,0.00193868,0.00038935,-0.00040865,0.00044222,0.00023355,-0.01809
 130,-0.00517075,-0.00961819,-0.00010184,0.00062107,0.00036256,-0.00001
 191,-0.00013838,0.00008168,0.00004725,0.00009346,0.00009777,0.00025585
 ,-0.00095774,0.00069654,0.00001385,0.00006668,-0.00001145,0.00020380,-
 0.00007837,0.00019174,-0.00006567,-0.00016421,-0.00036397,-0.00148758,
 0.00003852,0.00013213,-0.00007483,-0.00010075,0.00001708,0.00023309,-0
 .00061410,0.00024307,-0.00007886,0.00008997,-0.00025033,-0.00016009,-0
 .00086222,0.00069276,-0.00007805,0.00009111,-0.00030306,-0.00062463,-0
 .00110709,0.00058029,0.00022751,0.00015452,-0.00015552,-0.00002607,-0.
 00011954,0.00014366,-0.00017821,-0.00123742,-0.00068306,-0.00776716,0.
 21096344,0.12148444,0.00016081,-0.00016245,0.00006265,0.00052808,0.000
 18945,-0.00034528,0.00033954,0.00036308,0.00035257,0.00012607,-0.00004
 799,0.00005358,-0.00011073,0.00000140,-0.00004969,-0.00193644,0.001063
 56,-0.00173490,0.00014640,-0.00000584,0.00001277,0.00001702,-0.0000221
 5,-0.00004564,-0.00007209,0.00002817,-0.00000627,-0.00000527,-0.000269
 26,-0.00005566,-0.00006601,0.00011778,-0.00003169,-0.00001189,0.000039
 56,0.00004588,-0.00015128,0.00008273,-0.00025126,-0.00004827,0.0001681
 6,0.00004760,-0.00002055,-0.00003224,-0.00002911,-0.00003054,-0.000035
 84,-0.00003896,-0.00000957,0.00002549,0.00000609,-0.00018442,-0.000326
 11,-0.00000623,0.00009000,-0.00002559,-0.00002403,-0.00016785,0.000045
 49,0.00005912,0.00006125,-0.00009061,-0.00002290,-0.00004004,0.0000086
 9,-0.00000865,-0.00011084,-0.00004236,-0.00005868,-0.09619589,-0.15262
 390,-0.06224009,0.08364642,-0.00006833,0.00001304,-0.00003415,-0.00029
 243,-0.00020604,0.00017035,0.00014428,0.00031355,0.00027514,-0.0000931
 8,-0.00015760,-0.00010217,-0.00009773,0.00000267,-0.00007284,0.0022843
 3,-0.00009193,0.00200153,0.00001804,-0.00008959,-0.00012485,0.00002950
 ,-0.00000009,-0.00001058,-0.00002845,0.00001208,0.00000369,-0.00004067
 ,0.00016926,-0.00001322,0.00001532,-0.00003094,-0.00000760,0.00001245,
 -0.00000681,0.00000344,-0.00020194,-0.00036610,-0.00020704,0.00009059,
 -0.00005733,0.00000828,0.00001238,0.00001629,0.00000374,0.00010388,0.0
 0004709,0.00010338,-0.00002459,-0.00001353,-0.00001278,-0.00000505,-0.
 00014730,0.00002733,0.00000725,-0.00001873,-0.00002904,0.00004995,0.00
 006737,0.00001967,-0.00003749,0.00000685,-0.00001550,0.00003085,0.0000
 1351,-0.00000399,0.00008535,0.00009251,0.00015603,-0.10429139,-0.39896
 191,-0.15344934,0.12059227,0.41813202,0.00002745,-0.00001625,0.0000402
 8,-0.00002946,0.00003096,0.00007157,-0.00008897,-0.00011877,0.00011470
 ,-0.00036016,-0.00030106,0.00014865,0.00011869,0.00002614,-0.00003243,
 -0.00132917,0.00135926,-0.00196600,-0.00004977,-0.00000961,0.00000009,
 -0.00000452,0.00001855,0.00000855,0.00000575,-0.00000759,0.00000167,-0
 .00013925,-0.00008176,0.00005828,-0.00001639,0.00001801,0.00001735,0.0
 0000069,-0.00000291,-0.00000801,-0.00018567,-0.00027589,-0.00026946,0.
 00011873,0.00005869,-0.00006521,-0.00002518,-0.00000079,0.00001601,-0.
 00000326,0.00012482,-0.00001357,0.00001149,-0.00003811,0.00003329,0.00
 006848,0.00015201,-0.00013262,-0.00002049,-0.00001794,0.00004398,0.000
 13519,0.00010016,-0.00008843,-0.00003454,-0.00000509,0.00003492,0.0000
 2047,-0.00000775,-0.00000355,0.00025271,0.00040449,0.00006897,-0.04153
 754,-0.14726617,-0.06138273,0.04789702,0.16085044,0.06588389,-0.000189
 77,-0.00001591,0.00011385,-0.00123233,-0.00094472,0.00025150,-0.000315
 07,-0.00162629,-0.00149097,0.00275233,0.00075569,-0.00070715,0.0022264
 9,-0.00138031,0.00068981,0.00325148,0.00149870,0.00263309,0.00009667,-
 0.00042562,0.00005789,-0.00054878,0.00016872,-0.00006975,0.00015797,0.
 00007813,0.00022466,-0.00037087,0.00011810,-0.00009502,-0.00004724,0.0
 0007315,-0.00002624,0.00007427,0.00001873,0.00009331,-0.00022941,-0.00
 079143,0.00043900,0.00055173,0.00018920,0.00004010,-0.00001068,-0.0000
 1316,-0.00004668,-0.00292858,-0.00082138,-0.00173554,0.00040826,0.0000
 5135,-0.00020868,-0.00038607,0.00122721,0.00022723,0.00007289,-0.00012
 231,0.00007900,-0.00002503,0.00066813,0.00011099,-0.00011493,-0.000212
 51,-0.00005255,-0.00060606,0.00004591,-0.00017002,-0.00335406,-0.00091
 186,-0.00168767,-0.29048199,0.15398080,0.07235463,0.01596193,-0.015846
 93,-0.00589281,0.27935212,0.00047612,0.00018749,-0.00010989,0.00114612
 ,0.00143692,-0.00020353,-0.00040027,-0.00070110,-0.00059988,-0.0018213
 0,0.00044452,-0.00038613,-0.00179006,0.00047913,-0.00092241,-0.0033458
 9,-0.00251142,-0.00348002,-0.00049247,0.00080323,0.00030065,0.00032629
 ,0.00000420,0.00027591,0.00016601,-0.00019491,-0.00003323,0.00031925,-
 0.00013778,-0.00000226,0.00010143,-0.00013756,0.00003039,-0.00008801,-
 0.00000138,-0.00007545,-0.00107285,0.00019119,0.00041301,-0.00042909,-
 0.00030449,-0.00001983,-0.00001137,0.00001068,0.00005521,0.00164312,0.
 00080920,0.00174530,-0.00017309,-0.00036554,-0.00004600,0.00085912,0.0
 0024835,0.00002366,-0.00036885,0.00012847,-0.00002437,0.00044227,-0.00
 076806,-0.00012152,-0.00002706,0.00034423,0.00005192,0.00049733,-0.000
 14350,0.00020584,0.00200743,-0.00008947,0.00147528,0.10039864,-0.12360
 641,-0.05132798,0.03496082,-0.02070309,-0.01026242,-0.12928938,0.15135
 964,0.00031718,0.00015928,-0.00007477,0.00034680,0.00038006,0.00004834
 ,-0.00035650,0.00005629,0.00056083,-0.00294446,-0.00152316,-0.00069472
 ,-0.00076986,-0.00005531,-0.00055762,-0.00152298,-0.00237293,-0.004474
 39,-0.00035447,0.00024714,0.00005947,0.00019513,0.00010713,-0.00000396
 ,-0.00000935,-0.00007498,-0.00011374,0.00012060,0.00001602,-0.00002073
 ,0.00004505,-0.00006259,0.00001684,-0.00007007,-0.00000203,-0.00005900
 ,-0.00021948,0.00006918,0.00038869,-0.00005604,-0.00011937,-0.00004021
 ,-0.00000360,0.00001598,0.00003539,0.00096202,0.00074838,0.00057607,-0
 .00010052,-0.00008543,0.00027763,0.00052734,0.00015615,-0.00040250,-0.
 00011382,0.00008246,0.00006479,0.00032298,-0.00024747,-0.00022056,-0.0
 0001792,0.00014345,0.00005730,0.00043547,-0.00006782,0.00008076,0.0019
 2504,0.00161653,0.00157023,0.05034025,-0.05247338,-0.04299163,0.013374
 54,-0.00704538,-0.00310540,-0.06032396,0.05440668,0.05370488,0.0029797
 1,0.00145119,-0.00188175,-0.03168530,-0.00989317,-0.01655953,0.0013694
 4,0.00020072,0.00096255,0.00606978,0.00094185,0.00158121,0.00095478,-0
 .00025543,0.00002481,-0.17484207,-0.04566241,-0.14711364,0.00055181,-0
 .00116543,-0.00035179,-0.00013359,-0.00010923,-0.00012748,-0.00022085,
 0.00021055,0.00004552,-0.00340625,-0.00288315,0.00183878,-0.00011146,0
 .00026168,-0.00000252,0.00020125,-0.00000830,-0.00002751,0.00049629,0.
 00027385,-0.00017026,0.00047060,0.00088349,-0.00075275,-0.00035051,-0.
 00005252,0.00021092,-0.00135251,-0.00001036,-0.00072273,0.00023817,0.0
 0004668,0.00001730,-0.00104566,0.00019807,-0.00032782,0.00050121,-0.00
 041188,0.00025475,0.00050274,0.00246422,-0.00029203,-0.00044632,-0.000
 36697,-0.00011276,-0.00074980,0.00034589,-0.00046854,-0.00379349,-0.00
 225167,-0.00182542,-0.00096309,0.00043509,0.00754944,0.00134828,-0.003
 25338,0.00062102,-0.00718078,0.00544909,-0.00042647,0.20772515,0.00018
 450,0.00165582,0.00053547,-0.01483757,-0.00805402,-0.01437722,-0.00109
 114,-0.00215062,-0.00100673,0.00023225,-0.00054140,-0.00278824,0.00067
 726,-0.00073837,0.00016875,-0.04164697,-0.02644294,-0.02021561,-0.0040
 0981,-0.00105683,0.00072206,-0.00016542,0.00026388,0.00009950,0.000323
 54,0.00032855,0.00002800,0.00064519,0.00007571,0.00062993,0.00017288,-
 0.00025244,-0.00004204,-0.00004216,-0.00012260,-0.00017595,0.00065780,
 -0.00082123,0.00156937,0.00103971,-0.00017204,-0.00011729,0.00019819,0
 .00016042,0.00004796,-0.00052695,0.00029000,-0.00007950,0.00013878,-0.
 00015316,0.00000777,0.00065114,0.00143084,0.00002764,-0.00035485,0.000
 07877,0.00007519,0.00048475,-0.00119976,0.00039426,0.00008191,0.000125
 33,-0.00001960,0.00029875,-0.00018177,-0.00005588,-0.00037626,-0.00012
 386,0.00066287,0.00611639,-0.01447460,0.00235996,-0.00404640,0.0011743
 5,-0.00497924,-0.00001331,0.00181147,0.00431836,0.05429257,0.04965750,
 0.00349901,0.00179567,-0.00135955,0.01400512,0.00254563,0.01759655,0.0
 0093861,0.00030367,0.00179982,0.00185086,-0.00277845,-0.00171939,0.001
 17174,-0.00070028,0.00002118,-0.19046100,-0.03882147,-0.24970632,0.001
 70205,-0.00158109,-0.00177029,-0.00010241,0.00013774,-0.00029872,-0.00
 030847,-0.00007110,0.00005570,0.00093819,0.00345026,-0.00258469,-0.000
 03042,-0.00014503,-0.00004610,-0.00033738,0.00013179,0.00004440,-0.000
 05552,0.00080431,-0.00023152,0.00360986,-0.00029221,0.00031980,0.00052
 943,0.00022087,-0.00018395,-0.00127300,0.00022448,-0.00091235,0.000144
 43,0.00003287,0.00015139,-0.00065615,0.00013713,-0.00065592,0.00042192
 ,-0.00027952,0.00028506,0.00056775,0.00271575,-0.00063696,-0.00037795,
 -0.00055154,0.00015436,-0.00021868,0.00018181,-0.00019895,-0.00153288,
 0.00051183,-0.00015357,0.00659508,-0.00292345,-0.00744940,0.00240510,-
 0.00262286,0.00092131,-0.00494223,0.00712548,0.00783204,0.15778911,0.0
 3255335,0.23946895,0.00012541,0.00003064,-0.00003338,0.00112897,0.0004
 7107,-0.00024939,0.00071503,0.00196884,0.00102964,0.00162728,0.0005969
 2,0.00117063,0.00127753,0.00073333,0.00095998,-0.00227211,-0.00038711,
 -0.00141034,0.00044000,0.,-0.00019312,-0.00016896,-0.00016323,-0.00021
 870,-0.00018396,-0.00002582,-0.00014596,0.00044593,-0.00008352,0.00006
 067,-0.00002052,0.00002287,0.00002504,-0.00005964,-0.00002782,-0.00005
 192,0.00026787,-0.00025125,-0.00095795,-0.00059066,-0.00001992,0.00002
 109,0.00005326,0.00000382,0.00000009,0.00006155,-0.00582093,-0.0024523
 3,-0.00064195,0.00030947,-0.00087423,-0.00052658,-0.00140289,0.0002092
 6,0.00019168,0.00015691,-0.00011396,-0.00068146,-0.00036404,0.00013888
 ,0.00025215,-0.00000722,0.00001067,-0.00038885,0.00028092,0.00028361,0
 .00004592,-0.00052769,-0.00640997,-0.01253740,0.01598419,0.00779888,-0
 .00391668,0.00103344,0.00049020,-0.00506596,-0.01022484,-0.00618035,0.
 00290529,-0.00017364,0.00291058,0.09997244,-0.00014516,-0.00001958,0.0
 0002674,-0.00097956,-0.00107394,0.00019284,-0.00022585,-0.00020268,-0.
 00033520,-0.00101629,-0.00256871,0.00140572,0.00465607,-0.00339896,0.0
 0148858,0.00206198,0.00148796,0.00153116,0.00035369,-0.00052249,0.0001
 4103,-0.00137035,0.00063434,-0.00082663,-0.00004098,0.00007791,0.00005
 096,-0.00019801,0.00005603,0.00000383,-0.00008353,0.00011936,-0.000017
 57,0.00003841,-0.00000127,0.00003348,0.00026772,-0.00033910,-0.0000518
 5,0.00027711,0.00026684,0.00000526,0.00001473,-0.00001044,-0.00004261,
 -0.00884396,-0.00504233,-0.00640413,-0.00002120,0.00033048,-0.00124899
 ,-0.00088654,0.00040720,0.00008900,0.00029373,0.00000826,-0.00002518,-
 0.00053535,0.00066554,0.00009575,0.00005240,-0.00029292,-0.00003449,0.
 00013043,0.00015910,-0.00062693,0.00100831,0.00479459,0.00003539,0.018
 49188,-0.00495998,-0.00680912,-0.00003756,0.00085835,0.00097400,-0.007
 93479,-0.00671384,0.00810055,-0.00290821,-0.00086432,-0.00306141,0.141
 09539,0.50447134,-0.00026810,-0.00006051,0.00016217,0.00013116,-0.0001
 2253,-0.00025128,0.00057683,-0.00053729,-0.00178617,0.00728741,0.00517
 577,-0.00253311,0.00078894,-0.00069397,0.00026600,0.00033948,0.0012683
 2,0.00223524,0.00045367,-0.00010308,-0.00005306,-0.00040267,-0.0002391
 8,0.00014140,0.00016008,0.00003826,0.00025442,0.00005413,-0.00000095,-
 0.00005368,-0.00004166,0.00006258,0.00000162,0.00005572,-0.00000959,0.
 00007885,-0.00022875,0.00016395,0.00019048,-0.00010402,0.00009465,0.00
 009978,0.00002853,-0.00002161,-0.00005091,-0.00280008,-0.00495119,0.00
 147999,-0.00078785,-0.00083023,-0.00192668,-0.00064633,-0.00018002,0.0
 0094897,0.00007822,-0.00001192,-0.00006835,-0.00054649,0.00010929,0.00
 037943,0.00007609,-0.00014528,-0.00006735,-0.00202095,-0.00023465,0.00
 013049,-0.01222870,-0.00388554,-0.01130832,0.01125125,-0.00837432,0.00
 275006,0.00075560,0.00024737,-0.00025160,-0.00361592,0.00767936,-0.007
 63319,-0.00168294,-0.00087099,-0.00310375,0.02202026,-0.05953824,0.508
 30023,0.00012218,0.00004224,-0.00008786,-0.00065960,-0.00030521,0.0002
 8669,-0.00085498,-0.00036959,0.00067331,-0.00712461,-0.00394976,-0.000
 50881,0.00023494,-0.00049184,0.00038918,0.00105071,-0.00048541,-0.0007
 1935,-0.00038727,-0.00003414,0.00012165,0.00001692,0.00048311,-0.00026
 813,-0.00002306,-0.00001011,-0.00007169,-0.00022028,0.00006244,-0.0000
 1514,0.00002249,-0.00003332,-0.00001446,-0.00000590,0.00001657,-0.0000
 1542,0.00013753,-0.00008957,0.00007229,0.00033304,-0.00002497,-0.00004
 873,-0.00003229,0.00001077,0.00001926,-0.00107724,0.00092349,-0.001226
 82,0.00024051,0.00006420,0.00040593,0.00042963,0.00061609,-0.00049190,
 -0.00010987,-0.00002948,0.00002460,0.00049487,0.00017240,-0.00021983,-
 0.00014752,0.00005128,0.00002058,0.00151454,-0.00032307,-0.00064436,0.
 00124943,0.00416779,0.00259341,-0.00167340,0.00138991,-0.00202510,0.00
 014469,0.00011920,0.00015388,0.00151014,-0.00292656,0.00644671,-0.0004
 3576,0.00052445,0.00061274,-0.01824739,-0.00381994,-0.01417204,0.02007
 942,-0.00001211,-0.00002205,0.00001250,0.00018238,0.00028161,-0.000064
 66,0.00000698,0.00001743,0.00021260,-0.00170507,0.00011861,-0.00110159
 ,-0.00184459,0.00031266,-0.00087765,-0.00032651,-0.00043929,-0.0000329
 4,-0.00014296,0.00013913,-0.00003363,0.00029593,-0.00003659,0.00019246
 ,0.00001267,-0.00001394,-0.00002107,0.00001118,0.00000330,0.00000481,0
 .00002908,-0.00004207,-0.00000398,0.00000002,0.00000636,-0.00000104,-0
 .00004302,0.00004060,0.00001465,-0.00002818,-0.00008809,-0.00000188,-0
 .00001052,0.00000488,0.00001319,0.00120039,0.00116120,-0.00055090,0.00
 039655,0.00020953,0.00059531,0.00035739,-0.00000309,-0.00014463,-0.000
 09461,-0.00001370,0.00001507,0.00024661,-0.00017392,-0.00005324,-0.000
 04436,0.00009617,0.00000560,0.00038150,0.00024073,0.00054650,0.0023039
 5,-0.00401054,0.00253580,0.00112176,-0.00236149,0.00135694,0.00034627,
 -0.00008529,-0.00066196,-0.00188728,0.00431952,-0.00391921,0.00058724,
 0.00024218,0.00000487,-0.01010192,-0.08133779,0.08093990,0.01232283,0.
 10086922,0.00019519,0.00004383,-0.00011356,-0.00020530,-0.00007078,0.0
 0013580,-0.00073707,0.00059008,0.00131251,-0.00668198,-0.00633229,0.00
 376420,0.00233139,-0.00017221,0.00100141,0.00002922,-0.00084099,-0.001
 54500,-0.00029621,-0.00002801,0.00023328,-0.00027186,0.00044954,-0.000
 52283,-0.00013652,-0.00003050,-0.00021485,-0.00006988,0.00001330,0.000
 07001,0.00001846,-0.00003048,-0.00001048,-0.00003797,0.00000729,-0.000
 05951,0.00030034,-0.00012071,-0.00041871,0.00010549,-0.00003495,-0.000
 07854,-0.00002186,0.00001765,0.00003475,-0.00219146,-0.00088143,-0.002
 77584,0.00017689,0.00020266,0.00025440,0.00028043,0.00018561,-0.000670
 26,-0.00003151,0.00005464,-0.00003541,0.00026490,0.00003653,-0.0002657
 1,-0.00005626,0.00006075,0.00004292,0.00218261,0.00078388,0.00011743,0
 .00550122,0.00659784,-0.00541812,-0.00383303,0.00167114,0.00100001,0.0
 0009883,-0.00020606,-0.00019438,0.00528624,-0.00313876,-0.00530179,0.0
 0151545,0.00030390,0.00174675,0.00578601,0.13424076,-0.43164896,-0.008
 28073,-0.13072225,0.43963932,0.00002524,0.00000762,-0.00000110,0.00003
 463,0.00042600,0.00003058,-0.00053830,-0.00132705,-0.00065099,0.000808
 22,0.00177646,-0.00197890,-0.00478220,0.00064523,-0.00253090,-0.000164
 42,-0.00064988,-0.00028423,-0.00051111,0.00039476,0.00007014,0.0008475
 5,-0.00015294,0.00063739,0.00017833,-0.00005037,0.00008597,-0.00012475
 ,-0.00002000,-0.00002575,0.00006266,-0.00008089,0.00000245,0.00000836,
 0.00001391,0.00000317,-0.00056412,0.00058358,0.00068778,0.00015071,-0.
 00013357,-0.00002167,-0.00004101,-0.00000155,0.00002599,-0.00041588,0.
 00225257,0.00331370,0.00024284,-0.00163390,0.00049045,0.00074632,0.000
 64199,-0.00013869,-0.00028137,-0.00009350,0.00011370,0.00071471,-0.000
 19950,-0.00013514,-0.00016484,0.00017818,0.00002000,-0.00013413,-0.000
 31108,0.00025720,-0.00181850,-0.00100335,-0.00014632,-0.00503469,0.000
 04176,0.00094266,0.00050785,-0.00034753,-0.00020460,0.00667130,0.00366
 805,-0.00188928,0.00040293,0.00056443,0.00060450,-0.06420821,-0.139694
 59,-0.00451087,0.00341814,-0.00356161,-0.00122102,0.06396375,0.0000299
 7,-0.00003120,-0.00000790,0.00057834,0.00056605,-0.00008749,0.00048511
 ,0.00087102,0.00093459,0.00349473,0.00283528,-0.00033508,-0.00420954,0
 .00532030,-0.00051238,-0.00105294,-0.00050277,-0.00044401,-0.00016774,
 0.00018883,-0.00035034,0.00175564,-0.00084949,0.00097873,-0.00004334,-
 0.00000182,-0.00006254,0.00009015,-0.00004394,-0.00001211,0.00004336,-
 0.00006252,0.00001099,-0.00001460,0.00000470,-0.00001065,0.00010616,-0
 .00000924,-0.00038892,-0.00012615,-0.00014405,-0.00000184,-0.00001275,
 0.00000209,0.00002182,0.00432556,-0.00725947,0.00354727,-0.00117874,-0
 .00204367,-0.00054200,0.00052157,-0.00070463,-0.00006935,-0.00015301,-
 0.00006544,0.00006394,0.00040075,-0.00040540,-0.00005819,-0.00003457,0
 .00016786,0.00001993,-0.00055905,-0.00030561,0.00035212,-0.00318106,-0
 .00170736,-0.00232736,-0.00227358,0.00216929,0.00063053,-0.00026462,0.
 00001734,-0.00006422,0.00336339,-0.00619969,-0.00257458,0.00118994,0.0
 0005514,0.00095089,-0.13310596,-0.40698895,-0.01496836,-0.00807381,-0.
 01943527,-0.00265000,0.13806679,0.43456263,0.00007100,-0.00001570,-0.0
 0006102,-0.00007216,0.00011264,0.00014222,0.00011226,0.00041280,0.0015
 9729,-0.00173948,0.00054761,-0.00129524,-0.00367671,0.00187605,-0.0018
 5607,0.00002769,-0.00042697,-0.00049963,-0.00026705,0.00007449,-0.0002
 6930,0.00103758,-0.00021802,0.00047949,-0.00009313,0.00001670,-0.00012
 579,-0.00007004,-0.00000678,0.00000442,0.00002880,-0.00004085,-0.00000
 057,-0.00001466,0.00001132,-0.00002549,0.00009679,-0.00025761,-0.00007
 325,0.00010150,-0.00006429,-0.00004623,-0.00002233,0.00000734,0.000025
 66,0.00209033,0.00075159,-0.00312079,0.00148608,0.00079638,0.00289702,
 0.00057319,0.00001240,-0.00077065,-0.00003590,-0.00008131,0.00011102,0
 .00049887,-0.00011131,-0.00021538,-0.00006124,0.00010861,0.00003149,0.
 00018841,-0.00010641,0.00042209,0.00065536,-0.00162657,0.00077494,0.00
 058811,0.00064774,-0.00069721,-0.00022230,0.00008699,0.00004987,-0.001
 53611,-0.00303500,0.00042094,0.00043511,0.00022391,0.00061414,-0.02362
 388,-0.06939269,-0.05668273,0.01699013,0.05174045,-0.00007882,0.006453
 78,0.01795650,0.05824759\\-0.00000049,0.00000419,-0.00000176,0.0000126
 2,-0.00001603,-0.00000028,0.00001021,0.00000545,0.00001274,-0.00005902
 ,-0.00007992,-0.00000898,-0.00000567,0.00000905,0.00000734,-0.00002497
 ,-0.00000345,-0.00001103,-0.00000080,0.00002712,0.00000207,-0.00000300
 ,-0.00000180,-0.00001200,0.00000101,-0.00000667,-0.00000020,-0.0000012
 5,0.00000868,-0.00000011,0.00000573,0.00000239,-0.00000441,0.00000407,
 -0.00000328,-0.00000275,0.00000242,-0.00000137,-0.00000159,-0.00000364
 ,0.00000431,-0.00000230,0.00000142,0.00000815,-0.00000092,-0.00000188,
 0.00000084,0.00000837,-0.00000500,-0.00000024,0.00000328,0.00000751,0.
 00000471,0.00000738,-0.00000988,0.00000754,-0.00000694,-0.00001707,0.0
 0000035,0.00000949,-0.00000283,-0.00000121,0.00000341,0.00001356,0.000
 01411,0.00001167,0.00004817,0.00001986,0.00000986,0.00000997,-0.000027
 30,-0.00000797,-0.00000287,0.00001307,-0.00001459,0.00002260,-0.000023
 60,0.00002489,0.00000404,0.00001902,-0.00001068,0.00000595,0.00000617,
 0.00000218,0.00000365,-0.00000787,-0.00002203,-0.00001455,0.00001771,0
 .00000586\\\@


 ... UNTIL SCIENCE IS MIXED WITH EMOTION AND APPEALS TO THE HEART AND
 IMAGINATION , IT IS LIKE DEAD INORGANIC MATTER; AND WHEN IT IS SO MIXED
 AND SO TRANSFORMED IT IS LITERATURE.

                                  -- JOHN BURROUGHS
 Job cpu time:       0 days  0 hours 36 minutes 34.4 seconds.
 File lengths (MBytes):  RWF=    220 Int=      0 D2E=      0 Chk=      6 Scr=      1
 Normal termination of Gaussian 09 at Sun Jan 15 13:34:07 2017.
