 Entering Gaussian System, Link 0=g09
 Initial command:
 /global/software/gaussian/g09.e01/l1.exe "/scratch/10462943.yak.local/Gau-18654.inp" -scrdir="/scratch/10462943.yak.local/"
 Entering Link 1 = /global/software/gaussian/g09.e01/l1.exe PID=     18655.
  
 Copyright (c) 1988,1990,1992,1993,1995,1998,2003,2009,2015,
            Gaussian, Inc.  All Rights Reserved.
  
 This is part of the Gaussian(R) 09 program.  It is based on
 the Gaussian(R) 03 system (copyright 2003, Gaussian, Inc.),
 the Gaussian(R) 98 system (copyright 1998, Gaussian, Inc.),
 the Gaussian(R) 94 system (copyright 1995, Gaussian, Inc.),
 the Gaussian 92(TM) system (copyright 1992, Gaussian, Inc.),
 the Gaussian 90(TM) system (copyright 1990, Gaussian, Inc.),
 the Gaussian 88(TM) system (copyright 1988, Gaussian, Inc.),
 the Gaussian 86(TM) system (copyright 1986, Carnegie Mellon
 University), and the Gaussian 82(TM) system (copyright 1983,
 Carnegie Mellon University). Gaussian is a federally registered
 trademark of Gaussian, Inc.
  
 This software contains proprietary and confidential information,
 including trade secrets, belonging to Gaussian, Inc.
  
 This software is provided under written license and may be
 used, copied, transmitted, or stored only in accord with that
 written license.
  
 The following legend is applicable only to US Government
 contracts under FAR:
  
                    RESTRICTED RIGHTS LEGEND
  
 Use, reproduction and disclosure by the US Government is
 subject to restrictions as set forth in subparagraphs (a)
 and (c) of the Commercial Computer Software - Restricted
 Rights clause in FAR 52.227-19.
  
 Gaussian, Inc.
 340 Quinnipiac St., Bldg. 40, Wallingford CT 06492
  
  
 ---------------------------------------------------------------
 Warning -- This program may not be used in any manner that
 competes with the business of Gaussian, Inc. or will provide
 assistance to any competitor of Gaussian, Inc.  The licensee
 of this program is prohibited from giving any competitor of
 Gaussian, Inc. access to this program.  By using this program,
 the user acknowledges that Gaussian, Inc. is engaged in the
 business of creating and licensing software in the field of
 computational chemistry and represents and warrants to the
 licensee that it is not a competitor of Gaussian, Inc. and that
 it will not use this program in any manner prohibited above.
 ---------------------------------------------------------------
  

 Cite this work as:
 Gaussian 09, Revision E.01,
 M. J. Frisch, G. W. Trucks, H. B. Schlegel, G. E. Scuseria, 
 M. A. Robb, J. R. Cheeseman, G. Scalmani, V. Barone, B. Mennucci, 
 G. A. Petersson, H. Nakatsuji, M. Caricato, X. Li, H. P. Hratchian, 
 A. F. Izmaylov, J. Bloino, G. Zheng, J. L. Sonnenberg, M. Hada, 
 M. Ehara, K. Toyota, R. Fukuda, J. Hasegawa, M. Ishida, T. Nakajima, 
 Y. Honda, O. Kitao, H. Nakai, T. Vreven, J. A. Montgomery, Jr., 
 J. E. Peralta, F. Ogliaro, M. Bearpark, J. J. Heyd, E. Brothers, 
 K. N. Kudin, V. N. Staroverov, T. Keith, R. Kobayashi, J. Normand, 
 K. Raghavachari, A. Rendell, J. C. Burant, S. S. Iyengar, J. Tomasi, 
 M. Cossi, N. Rega, J. M. Millam, M. Klene, J. E. Knox, J. B. Cross, 
 V. Bakken, C. Adamo, J. Jaramillo, R. Gomperts, R. E. Stratmann, 
 O. Yazyev, A. J. Austin, R. Cammi, C. Pomelli, J. W. Ochterski, 
 R. L. Martin, K. Morokuma, V. G. Zakrzewski, G. A. Voth, 
 P. Salvador, J. J. Dannenberg, S. Dapprich, A. D. Daniels, 
 O. Farkas, J. B. Foresman, J. V. Ortiz, J. Cioslowski, 
 and D. J. Fox, Gaussian, Inc., Wallingford CT, 2013.
 
 ******************************************
 Gaussian 09:  ES64L-G09RevE.01 30-Nov-2015
                15-Jan-2017 
 ******************************************
 %NPROCS=4
 Will use up to    4 processors via shared memory.
 -----------------------------------------
 # opt=(MaxCycle=1000) freq B3LYP/6-31G(d)
 -----------------------------------------
 1/6=1000,14=-1,18=20,19=15,26=3,38=1/1,3;
 2/9=110,12=2,17=6,18=5,40=1/2;
 3/5=1,6=6,7=1,11=2,16=1,25=1,30=1,71=1,74=-5/1,2,3;
 4//1;
 5/5=2,38=5/2;
 6/7=2,8=2,9=2,10=2,28=1/1;
 7//1,2,3,16;
 1/6=1000,14=-1,18=20,19=15,26=3/3(2);
 2/9=110/2;
 99//99;
 2/9=110/2;
 3/5=1,6=6,7=1,11=2,16=1,25=1,30=1,71=1,74=-5/1,2,3;
 4/5=5,16=3,69=1/1;
 5/5=2,38=5/2;
 7//1,2,3,16;
 1/6=1000,14=-1,18=20,19=15,26=3/3(-5);
 2/9=110/2;
 6/7=2,8=2,9=2,10=2,19=2,28=1/1;
 99/9=1/99;
 ------------------------------------------------
 ./boats/1/glo_2w_beta_ts_boat1_B3LYP_631Gd_r.out
 ------------------------------------------------
 Symbolic Z-matrix:
 Charge =  0 Multiplicity = 1
 H                     0.4133    1.6308    1.53467 
 C                     0.06338   1.15451   0.60946 
 C                     1.85471  -0.56048   0.25947 
 C                    -0.54967  -1.41622  -0.21445 
 C                     0.95701  -1.69338  -0.24166 
 O                    -0.62571  -0.04155   0.9845 
 C                     1.32289   0.79273  -0.20007 
 H                    -1.08974  -2.06718   0.49335 
 H                     1.19467  -1.83906  -1.30531 
 H                     1.08315   0.73826  -1.27217 
 C                    -0.83324   2.13503  -0.14464 
 H                    -1.70686   2.40652   0.4632 
 H                    -1.18201   1.66655  -1.07456 
 O                    -1.09301  -1.03099  -1.28201 
 H                     1.86532  -0.5869    1.36005 
 O                    -0.00898   3.27792  -0.40751 
 H                    -0.49072   3.87694  -0.99626 
 O                     1.1696   -2.88815   0.49446 
 H                     2.11953  -3.07989   0.43346 
 O                     3.15771  -0.80871  -0.25283 
 H                     3.64277   0.02911  -0.15318 
 O                     2.34733   1.75373   0.0278 
 H                     1.9779    2.6073   -0.2607 
 O                    -3.0671    0.23048   1.23623 
 H                    -2.55941  -1.08119  -1.14944 
 H                    -1.63856   0.11434   1.15132 
 H                    -3.41391  -0.26857   1.99133 
 O                    -3.5405   -1.01601  -0.85584 
 H                    -3.39476  -0.25453   0.39225 
 H                    -3.98459  -0.4943   -1.54067 
 
 Add virtual bond connecting atoms H26        and O24        Dist= 2.71D+00.
 Add virtual bond connecting atoms O14        and H25        Dist= 2.78D+00.
 Add virtual bond connecting atoms H29        and O28        Dist= 2.78D+00.

 GradGradGradGradGradGradGradGradGradGradGradGradGradGradGradGradGradGrad
 Berny optimization.
 Initialization pass.
                           ----------------------------
                           !    Initial Parameters    !
                           ! (Angstroms and Degrees)  !
 --------------------------                            --------------------------
 ! Name  Definition              Value          Derivative Info.                !
 --------------------------------------------------------------------------------
 ! R1    R(1,2)                  1.0979         estimate D2E/DX2                !
 ! R2    R(2,6)                  1.4304         estimate D2E/DX2                !
 ! R3    R(2,7)                  1.5403         estimate D2E/DX2                !
 ! R4    R(2,11)                 1.5277         estimate D2E/DX2                !
 ! R5    R(3,5)                  1.5299         estimate D2E/DX2                !
 ! R6    R(3,7)                  1.5249         estimate D2E/DX2                !
 ! R7    R(3,15)                 1.1009         estimate D2E/DX2                !
 ! R8    R(3,20)                 1.4219         estimate D2E/DX2                !
 ! R9    R(4,5)                  1.5322         estimate D2E/DX2                !
 ! R10   R(4,8)                  1.1029         estimate D2E/DX2                !
 ! R11   R(4,14)                 1.2583         estimate D2E/DX2                !
 ! R12   R(5,9)                  1.0996         estimate D2E/DX2                !
 ! R13   R(5,18)                 1.4193         estimate D2E/DX2                !
 ! R14   R(6,26)                 1.0383         estimate D2E/DX2                !
 ! R15   R(7,10)                 1.0999         estimate D2E/DX2                !
 ! R16   R(7,22)                 1.423          estimate D2E/DX2                !
 ! R17   R(11,12)                1.0984         estimate D2E/DX2                !
 ! R18   R(11,13)                1.0981         estimate D2E/DX2                !
 ! R19   R(11,16)                1.4334         estimate D2E/DX2                !
 ! R20   R(14,25)                1.4732         estimate D2E/DX2                !
 ! R21   R(16,17)                0.9683         estimate D2E/DX2                !
 ! R22   R(18,19)                0.971          estimate D2E/DX2                !
 ! R23   R(20,21)                0.9732         estimate D2E/DX2                !
 ! R24   R(22,23)                0.9738         estimate D2E/DX2                !
 ! R25   R(24,26)                1.4358         estimate D2E/DX2                !
 ! R26   R(24,27)                0.9693         estimate D2E/DX2                !
 ! R27   R(24,29)                1.0271         estimate D2E/DX2                !
 ! R28   R(25,28)                1.0262         estimate D2E/DX2                !
 ! R29   R(28,29)                1.4693         estimate D2E/DX2                !
 ! R30   R(28,30)                0.9687         estimate D2E/DX2                !
 ! A1    A(1,2,6)              107.1782         estimate D2E/DX2                !
 ! A2    A(1,2,7)              106.5099         estimate D2E/DX2                !
 ! A3    A(1,2,11)             108.9412         estimate D2E/DX2                !
 ! A4    A(6,2,7)              109.5922         estimate D2E/DX2                !
 ! A5    A(6,2,11)             112.5411         estimate D2E/DX2                !
 ! A6    A(7,2,11)             111.791          estimate D2E/DX2                !
 ! A7    A(5,3,7)              110.7199         estimate D2E/DX2                !
 ! A8    A(5,3,15)             108.3814         estimate D2E/DX2                !
 ! A9    A(5,3,20)             106.8829         estimate D2E/DX2                !
 ! A10   A(7,3,15)             109.0215         estimate D2E/DX2                !
 ! A11   A(7,3,20)             111.4655         estimate D2E/DX2                !
 ! A12   A(15,3,20)            110.3128         estimate D2E/DX2                !
 ! A13   A(5,4,8)              112.7154         estimate D2E/DX2                !
 ! A14   A(5,4,14)             117.7055         estimate D2E/DX2                !
 ! A15   A(8,4,14)             120.9127         estimate D2E/DX2                !
 ! A16   A(3,5,4)              115.928          estimate D2E/DX2                !
 ! A17   A(3,5,9)              106.7472         estimate D2E/DX2                !
 ! A18   A(3,5,18)             111.4434         estimate D2E/DX2                !
 ! A19   A(4,5,9)              104.6956         estimate D2E/DX2                !
 ! A20   A(4,5,18)             106.8785         estimate D2E/DX2                !
 ! A21   A(9,5,18)             110.9647         estimate D2E/DX2                !
 ! A22   A(2,6,26)             112.7389         estimate D2E/DX2                !
 ! A23   A(2,7,3)              109.5867         estimate D2E/DX2                !
 ! A24   A(2,7,10)             110.2227         estimate D2E/DX2                !
 ! A25   A(2,7,22)             110.2363         estimate D2E/DX2                !
 ! A26   A(3,7,10)             109.0148         estimate D2E/DX2                !
 ! A27   A(3,7,22)             107.456          estimate D2E/DX2                !
 ! A28   A(10,7,22)            110.2697         estimate D2E/DX2                !
 ! A29   A(2,11,12)            110.627          estimate D2E/DX2                !
 ! A30   A(2,11,13)            109.3045         estimate D2E/DX2                !
 ! A31   A(2,11,16)            105.3529         estimate D2E/DX2                !
 ! A32   A(12,11,13)           108.7521         estimate D2E/DX2                !
 ! A33   A(12,11,16)           111.2095         estimate D2E/DX2                !
 ! A34   A(13,11,16)           111.5607         estimate D2E/DX2                !
 ! A35   A(4,14,25)            110.0613         estimate D2E/DX2                !
 ! A36   A(11,16,17)           108.5829         estimate D2E/DX2                !
 ! A37   A(5,18,19)            106.2703         estimate D2E/DX2                !
 ! A38   A(3,20,21)            105.6372         estimate D2E/DX2                !
 ! A39   A(7,22,23)            105.7475         estimate D2E/DX2                !
 ! A40   A(26,24,27)           111.1262         estimate D2E/DX2                !
 ! A41   A(26,24,29)           103.3336         estimate D2E/DX2                !
 ! A42   A(27,24,29)           106.4318         estimate D2E/DX2                !
 ! A43   A(25,28,29)           100.4354         estimate D2E/DX2                !
 ! A44   A(25,28,30)           105.6787         estimate D2E/DX2                !
 ! A45   A(29,28,30)           111.5231         estimate D2E/DX2                !
 ! A46   L(14,25,28,12,-1)     169.8649         estimate D2E/DX2                !
 ! A47   L(6,26,24,11,-1)      180.5657         estimate D2E/DX2                !
 ! A48   L(24,29,28,3,-1)      167.0427         estimate D2E/DX2                !
 ! A49   L(14,25,28,12,-2)     187.8517         estimate D2E/DX2                !
 ! A50   L(6,26,24,11,-2)      172.5975         estimate D2E/DX2                !
 ! A51   L(24,29,28,3,-2)      179.0073         estimate D2E/DX2                !
 ! D1    D(1,2,6,26)            89.7544         estimate D2E/DX2                !
 ! D2    D(7,2,6,26)          -155.0467         estimate D2E/DX2                !
 ! D3    D(11,2,6,26)          -29.992          estimate D2E/DX2                !
 ! D4    D(1,2,7,3)             85.2116         estimate D2E/DX2                !
 ! D5    D(1,2,7,10)          -154.8136         estimate D2E/DX2                !
 ! D6    D(1,2,7,22)           -32.8562         estimate D2E/DX2                !
 ! D7    D(6,2,7,3)            -30.413          estimate D2E/DX2                !
 ! D8    D(6,2,7,10)            89.5617         estimate D2E/DX2                !
 ! D9    D(6,2,7,22)          -148.4809         estimate D2E/DX2                !
 ! D10   D(11,2,7,3)          -155.8998         estimate D2E/DX2                !
 ! D11   D(11,2,7,10)          -35.9251         estimate D2E/DX2                !
 ! D12   D(11,2,7,22)           86.0323         estimate D2E/DX2                !
 ! D13   D(1,2,11,12)          -60.608          estimate D2E/DX2                !
 ! D14   D(1,2,11,13)          179.6689         estimate D2E/DX2                !
 ! D15   D(1,2,11,16)           59.6712         estimate D2E/DX2                !
 ! D16   D(6,2,11,12)           58.1112         estimate D2E/DX2                !
 ! D17   D(6,2,11,13)          -61.6119         estimate D2E/DX2                !
 ! D18   D(6,2,11,16)          178.3905         estimate D2E/DX2                !
 ! D19   D(7,2,11,12)         -178.0449         estimate D2E/DX2                !
 ! D20   D(7,2,11,13)           62.232          estimate D2E/DX2                !
 ! D21   D(7,2,11,16)          -57.7656         estimate D2E/DX2                !
 ! D22   D(7,3,5,4)            -39.0958         estimate D2E/DX2                !
 ! D23   D(7,3,5,9)             77.0634         estimate D2E/DX2                !
 ! D24   D(7,3,5,18)          -161.6301         estimate D2E/DX2                !
 ! D25   D(15,3,5,4)            80.435          estimate D2E/DX2                !
 ! D26   D(15,3,5,9)          -163.4058         estimate D2E/DX2                !
 ! D27   D(15,3,5,18)          -42.0993         estimate D2E/DX2                !
 ! D28   D(20,3,5,4)          -160.6746         estimate D2E/DX2                !
 ! D29   D(20,3,5,9)           -44.5154         estimate D2E/DX2                !
 ! D30   D(20,3,5,18)           76.7911         estimate D2E/DX2                !
 ! D31   D(5,3,7,2)             73.3604         estimate D2E/DX2                !
 ! D32   D(5,3,7,10)           -47.3499         estimate D2E/DX2                !
 ! D33   D(5,3,7,22)          -166.8543         estimate D2E/DX2                !
 ! D34   D(15,3,7,2)           -45.7849         estimate D2E/DX2                !
 ! D35   D(15,3,7,10)         -166.4953         estimate D2E/DX2                !
 ! D36   D(15,3,7,22)           74.0004         estimate D2E/DX2                !
 ! D37   D(20,3,7,2)          -167.7986         estimate D2E/DX2                !
 ! D38   D(20,3,7,10)           71.491          estimate D2E/DX2                !
 ! D39   D(20,3,7,22)          -48.0133         estimate D2E/DX2                !
 ! D40   D(5,3,20,21)          163.8728         estimate D2E/DX2                !
 ! D41   D(7,3,20,21)           42.7662         estimate D2E/DX2                !
 ! D42   D(15,3,20,21)         -78.4984         estimate D2E/DX2                !
 ! D43   D(8,4,5,3)           -114.6008         estimate D2E/DX2                !
 ! D44   D(8,4,5,9)            128.0933         estimate D2E/DX2                !
 ! D45   D(8,4,5,18)            10.3107         estimate D2E/DX2                !
 ! D46   D(14,4,5,3)            97.3087         estimate D2E/DX2                !
 ! D47   D(14,4,5,9)           -19.9973         estimate D2E/DX2                !
 ! D48   D(14,4,5,18)         -137.7798         estimate D2E/DX2                !
 ! D49   D(5,4,14,25)          168.4299         estimate D2E/DX2                !
 ! D50   D(8,4,14,25)           23.0621         estimate D2E/DX2                !
 ! D51   D(3,5,18,19)          -55.2207         estimate D2E/DX2                !
 ! D52   D(4,5,18,19)          177.1842         estimate D2E/DX2                !
 ! D53   D(9,5,18,19)           63.5965         estimate D2E/DX2                !
 ! D54   D(2,6,24,27)         -140.5781         estimate D2E/DX2                !
 ! D55   D(2,6,24,29)          106.8046         estimate D2E/DX2                !
 ! D56   D(2,7,22,23)          -59.8003         estimate D2E/DX2                !
 ! D57   D(3,7,22,23)         -179.171          estimate D2E/DX2                !
 ! D58   D(10,7,22,23)          62.1293         estimate D2E/DX2                !
 ! D59   D(2,11,16,17)         171.8547         estimate D2E/DX2                !
 ! D60   D(12,11,16,17)        -68.2504         estimate D2E/DX2                !
 ! D61   D(13,11,16,17)         53.3582         estimate D2E/DX2                !
 ! D62   D(4,14,28,29)          49.7416         estimate D2E/DX2                !
 ! D63   D(4,14,28,30)         163.808          estimate D2E/DX2                !
 ! D64   D(26,24,28,25)         -7.5527         estimate D2E/DX2                !
 ! D65   D(26,24,28,30)       -117.3869         estimate D2E/DX2                !
 ! D66   D(27,24,28,25)       -122.2995         estimate D2E/DX2                !
 ! D67   D(27,24,28,30)        127.8664         estimate D2E/DX2                !
 --------------------------------------------------------------------------------
 Trust Radius=3.00D-01 FncErr=1.00D-07 GrdErr=1.00D-06
 Number of steps in this run=    180 maximum allowed number of steps=    180.
 GradGradGradGradGradGradGradGradGradGradGradGradGradGradGradGradGradGrad

                          Input orientation:                          
 ---------------------------------------------------------------------
 Center     Atomic      Atomic             Coordinates (Angstroms)
 Number     Number       Type             X           Y           Z
 ---------------------------------------------------------------------
      1          1           0        0.413300    1.630800    1.534670
      2          6           0        0.063380    1.154510    0.609460
      3          6           0        1.854710   -0.560480    0.259470
      4          6           0       -0.549670   -1.416220   -0.214450
      5          6           0        0.957010   -1.693380   -0.241660
      6          8           0       -0.625710   -0.041550    0.984500
      7          6           0        1.322890    0.792730   -0.200070
      8          1           0       -1.089740   -2.067180    0.493350
      9          1           0        1.194670   -1.839060   -1.305310
     10          1           0        1.083150    0.738260   -1.272170
     11          6           0       -0.833240    2.135030   -0.144640
     12          1           0       -1.706860    2.406520    0.463200
     13          1           0       -1.182010    1.666550   -1.074560
     14          8           0       -1.093010   -1.030990   -1.282010
     15          1           0        1.865320   -0.586900    1.360050
     16          8           0       -0.008980    3.277920   -0.407510
     17          1           0       -0.490720    3.876940   -0.996260
     18          8           0        1.169600   -2.888150    0.494460
     19          1           0        2.119530   -3.079890    0.433460
     20          8           0        3.157710   -0.808710   -0.252830
     21          1           0        3.642770    0.029110   -0.153180
     22          8           0        2.347330    1.753730    0.027800
     23          1           0        1.977900    2.607300   -0.260700
     24          8           0       -3.067100    0.230480    1.236230
     25          1           0       -2.559410   -1.081190   -1.149440
     26          1           0       -1.638560    0.114340    1.151320
     27          1           0       -3.413910   -0.268570    1.991330
     28          8           0       -3.540500   -1.016010   -0.855840
     29          1           0       -3.394760   -0.254530    0.392250
     30          1           0       -3.984590   -0.494300   -1.540670
 ---------------------------------------------------------------------
                    Distance matrix (angstroms):
                    1          2          3          4          5
     1  H    0.000000
     2  C    1.097866   0.000000
     3  C    2.916420   2.504505   0.000000
     4  C    3.642947   2.768269   2.595753   0.000000
     5  C    3.808036   3.103781   1.529856   1.532202   0.000000
     6  O    2.044256   1.430405   2.635800   1.825645   2.595576
     7  C    2.130502   1.540321   1.524856   2.895885   2.513233
     8  H    4.125352   3.423807   3.315815   1.102908   2.206615
     9  H    4.551478   3.729293   2.125784   2.100355   1.099571
    10  H    3.020543   2.180304   2.151267   2.902870   2.644000
    11  C    2.151323   1.527748   3.828074   3.563238   4.227426
    12  H    2.498973   2.173171   4.639976   4.051128   4.939859
    13  H    3.058492   2.156178   3.995118   3.262379   4.069184
    14  O    4.157858   3.113086   3.359553   1.258294   2.392419
    15  H    2.656510   2.615890   1.100948   2.999833   2.148209
    16  O    2.581354   2.355490   4.318740   4.729119   5.066998
    17  H    3.502571   3.208892   5.173838   5.350911   5.804637
    18  O    4.698397   4.192857   2.437754   2.371713   1.419346
    19  H    5.129765   4.710507   2.539258   3.211264   1.931230
    20  O    4.083889   3.764659   1.421928   3.757021   2.371887
    21  H    3.980418   3.828861   1.927448   4.435007   3.191881
    22  O    2.454840   2.431835   2.377375   4.301148   3.726683
    23  H    2.573884   2.556005   3.212566   4.751785   4.420229
    24  O    3.763396   3.323639   5.079753   3.339693   4.698814
    25  H    4.836976   3.869252   4.662684   2.241764   3.682941
    26  H    2.580065   2.066922   3.667930   2.322417   3.456187
    27  H    4.296939   4.003282   5.553639   3.792946   5.110897
    28  O    5.324723   4.454909   5.528084   3.084901   4.589515
    29  H    4.400104   3.740495   5.260054   3.132434   4.627098
    30  H    5.771932   4.871108   6.110835   3.795718   5.248298
                    6          7          8          9         10
     6  O    0.000000
     7  C    2.428224   0.000000
     8  H    2.135352   3.805351   0.000000
     9  H    3.433374   2.857326   2.916461   0.000000
    10  H    2.936131   1.099928   3.963459   2.579944   0.000000
    11  C    2.460798   2.540421   4.258097   4.610094   2.625803
    12  H    2.726479   3.496231   4.516164   5.437964   3.684936
    13  H    2.732545   2.793352   4.050629   4.241598   2.455956
    14  O    2.516829   3.214517   2.055627   2.426314   2.804642
    15  H    2.577533   2.152111   3.416837   3.020235   3.049003
    16  O    3.651976   2.827203   5.527177   5.332757   2.896594
    17  H    4.392744   3.665440   6.157136   5.967303   3.522003
    18  O    3.400942   3.748966   2.403874   2.083360   4.034762
    19  H    4.131767   4.004146   3.365796   2.327734   4.308309
    20  O    4.053861   2.435972   4.492367   2.454152   2.781361
    21  H    4.418057   2.442777   5.216233   3.287956   2.882132
    22  O    3.602398   1.422998   5.160382   4.001743   2.078281
    23  H    3.917361   1.930124   5.641788   4.634089   2.305853
    24  O    2.469363   4.653074   3.121068   5.376347   4.875909
    25  H    3.061658   4.414197   2.414718   3.832986   4.073537
    26  H    1.038266   3.325155   2.343749   4.228238   3.697335
    27  H    2.973097   5.325961   3.298592   5.879905   5.646918
    28  O    3.582237   5.230118   2.988561   4.827139   4.962755
    29  H    2.839676   4.868657   2.934116   5.143473   4.879304
    30  H    4.226528   5.623433   3.871866   5.356165   5.222383
                   11         12         13         14         15
    11  C    0.000000
    12  H    1.098357   0.000000
    13  H    1.098119   1.785421   0.000000
    14  O    3.374133   3.903722   2.706969   0.000000
    15  H    4.117672   4.746090   4.504618   3.991167   0.000000
    16  O    1.433423   2.097682   2.101777   4.528419   4.644793
    17  H    1.968966   2.402323   2.317291   4.952997   5.570367
    18  O    5.445379   6.025656   5.360708   3.424075   2.555195
    19  H    6.020668   6.689009   5.975197   4.178665   2.671739
    20  O    4.960342   5.874900   5.063134   4.379183   2.078666
    21  H    4.946679   5.886471   5.177707   4.982538   2.414262
    22  O    3.207982   4.129427   3.698518   4.615865   2.736014
    23  H    2.852896   3.760558   3.395940   4.869365   3.583632
    24  O    3.244109   2.680108   3.309926   3.439458   5.001221
    25  H    3.785942   3.935933   3.074559   1.473236   5.110783
    26  H    2.532043   2.394215   2.751788   2.744176   3.579453
    27  H    4.123047   3.522117   4.257434   4.084436   5.326361
    28  O    4.214750   4.100709   3.578609   2.484362   5.858088
    29  H    3.543957   3.152020   3.276941   2.950269   5.358689
    30  H    4.335122   4.197417   3.569452   2.952317   6.530253
                   16         17         18         19         20
    16  O    0.000000
    17  H    0.968259   0.000000
    18  O    6.342162   7.123577   0.000000
    19  H    6.757184   7.566703   0.971006   0.000000
    20  O    5.172272   5.984901   2.972389   2.589801   0.000000
    21  H    4.894357   5.709844   3.878971   3.511451   0.973219
    22  O    2.839867   3.689342   4.811639   4.855959   2.702141
    23  H    2.102136   2.871780   5.605674   5.731147   3.614020
    24  O    4.619618   4.991835   5.312787   6.205169   6.484248
    25  H    5.104605   5.374569   4.457917   5.328494   5.793411
    26  H    3.885064   4.481829   4.163193   4.984142   5.082112
    27  H    5.470427   5.886934   5.487384   6.399175   6.965213
    28  O    5.577676   5.767307   5.245308   6.160993   6.728493
    29  H    4.957956   5.237409   5.270653   6.196108   6.607428
    30  H    5.596353   5.622388   6.036385   6.916845   7.264285
                   21         22         23         24         25
    21  H    0.000000
    22  O    2.164540   0.000000
    23  H    3.070898   0.973803   0.000000
    24  O    6.855171   5.752968   5.774262   0.000000
    25  H    6.379055   5.787812   5.914558   2.769413   0.000000
    26  H    5.440720   4.453899   4.613831   1.435766   2.751500
    27  H    7.381346   6.413816   6.512594   0.969280   3.354841
    28  O    7.292830   6.566492   6.628371   2.480847   1.026152
    29  H    7.064331   6.094057   6.122246   1.027082   1.938552
    30  H    7.770181   6.899779   6.841749   3.013016   1.590169
                   26         27         28         29         30
    26  H    0.000000
    27  H    2.001026   0.000000
    28  O    2.987266   2.946365   0.000000
    29  H    1.948459   1.599256   1.469293   0.000000
    30  H    3.622307   3.584920   0.968705   2.035084   0.000000
 Stoichiometry    C6H16O8
 Framework group  C1[X(C6H16O8)]
 Deg. of freedom    84
 Full point group                 C1      NOp   1
 Largest Abelian subgroup         C1      NOp   1
 Largest concise Abelian subgroup C1      NOp   1
                         Standard orientation:                         
 ---------------------------------------------------------------------
 Center     Atomic      Atomic             Coordinates (Angstroms)
 Number     Number       Type             X           Y           Z
 ---------------------------------------------------------------------
      1          1           0        0.443575    1.624329    1.525960
      2          6           0        0.093614    1.143128    0.603310
      3          6           0        1.885804   -0.572605    0.261459
      4          6           0       -0.518247   -1.432118   -0.207271
      5          6           0        0.988581   -1.708556   -0.233581
      6          8           0       -0.594666   -0.051395    0.984680
      7          6           0        1.353056    0.777941   -0.204794
      8          1           0       -1.057707   -2.079767    0.504024
      9          1           0        1.225964   -1.859523   -1.296555
     10          1           0        1.112985    0.717868   -1.276521
     11          6           0       -0.803820    2.119280   -0.155474
     12          1           0       -1.677389    2.393369    0.451271
     13          1           0       -1.152637    1.645865   -1.082874
     14          8           0       -1.062168   -1.052647   -1.276596
     15          1           0        1.896801   -0.593406    1.362156
     16          8           0        0.019699    3.261283   -0.424450
     17          1           0       -0.462582    3.857019   -1.016083
     18          8           0        1.202102   -2.899436    0.508550
     19          1           0        2.152120   -3.090944    0.448204
     20          8           0        3.188772   -0.822703   -0.250013
     21          1           0        3.673388    0.015890   -0.154802
     22          8           0        2.377025    1.740673    0.017823
     23          1           0        2.007010    2.592551   -0.274900
     24          8           0       -3.036126    0.220526    1.235852
     25          1           0       -2.528494   -1.103004   -1.143271
     26          1           0       -1.607549    0.104767    1.151048
     27          1           0       -3.382396   -0.274864    1.993605
     28          8           0       -3.509522   -1.036886   -0.849673
     29          1           0       -3.363795   -0.268968    0.394468
     30          1           0       -3.954141   -0.518928   -1.537003
 ---------------------------------------------------------------------
 Rotational constants (GHZ):      0.7164860      0.5456634      0.3592796
 Standard basis: 6-31G(d) (6D, 7F)
 There are   242 symmetry adapted cartesian basis functions of A   symmetry.
 There are   242 symmetry adapted basis functions of A   symmetry.
   242 basis functions,   456 primitive gaussians,   242 cartesian basis functions
    58 alpha electrons       58 beta electrons
       nuclear repulsion energy      1110.6714618665 Hartrees.
 NAtoms=   30 NActive=   30 NUniq=   30 SFac= 1.00D+00 NAtFMM=   60 NAOKFM=F Big=F
 Integral buffers will be    131072 words long.
 Raffenetti 2 integral format.
 Two-electron integral symmetry is turned on.
 One-electron integrals computed using PRISM.
 NBasis=   242 RedAO= T EigKep=  1.42D-03  NBF=   242
 NBsUse=   242 1.00D-06 EigRej= -1.00D+00 NBFU=   242
 ExpMin= 1.61D-01 ExpMax= 5.48D+03 ExpMxC= 8.25D+02 IAcc=1 IRadAn=         1 AccDes= 0.00D+00
 Harris functional with IExCor=  402 and IRadAn=       1 diagonalized for initial guess.
 HarFok:  IExCor=  402 AccDes= 0.00D+00 IRadAn=         1 IDoV= 1 UseB2=F ITyADJ=14
 ICtDFT=  3500011 ScaDFX=  1.000000  1.000000  1.000000  1.000000
 FoFCou: FMM=F IPFlag=           0 FMFlag=      100000 FMFlg1=           0
         NFxFlg=           0 DoJE=T BraDBF=F KetDBF=T FulRan=T
         wScrn=  0.000000 ICntrl=     500 IOpCl=  0 I1Cent=   200000004 NGrid=           0
         NMat0=    1 NMatS0=      1 NMatT0=    0 NMatD0=    1 NMtDS0=    0 NMtDT0=    0
 Petite list used in FoFCou.
 Requested convergence on RMS density matrix=1.00D-08 within 128 cycles.
 Requested convergence on MAX density matrix=1.00D-06.
 Requested convergence on             energy=1.00D-06.
 No special actions if energy rises.
 Integral accuracy reduced to 1.0D-05 until final iterations.
 Initial convergence to 1.0D-05 achieved.  Increase integral accuracy.
 SCF Done:  E(RB3LYP) =  -839.970537682     A.U. after   14 cycles
            NFock= 14  Conv=0.45D-08     -V/T= 2.0083

 **********************************************************************

            Population analysis using the SCF density.

 **********************************************************************

 Orbital symmetries:
       Occupied  (A) (A) (A) (A) (A) (A) (A) (A) (A) (A) (A) (A)
                 (A) (A) (A) (A) (A) (A) (A) (A) (A) (A) (A) (A)
                 (A) (A) (A) (A) (A) (A) (A) (A) (A) (A) (A) (A)
                 (A) (A) (A) (A) (A) (A) (A) (A) (A) (A) (A) (A)
                 (A) (A) (A) (A) (A) (A) (A) (A) (A) (A)
       Virtual   (A) (A) (A) (A) (A) (A) (A) (A) (A) (A) (A) (A)
                 (A) (A) (A) (A) (A) (A) (A) (A) (A) (A) (A) (A)
                 (A) (A) (A) (A) (A) (A) (A) (A) (A) (A) (A) (A)
                 (A) (A) (A) (A) (A) (A) (A) (A) (A) (A) (A) (A)
                 (A) (A) (A) (A) (A) (A) (A) (A) (A) (A) (A) (A)
                 (A) (A) (A) (A) (A) (A) (A) (A) (A) (A) (A) (A)
                 (A) (A) (A) (A) (A) (A) (A) (A) (A) (A) (A) (A)
                 (A) (A) (A) (A) (A) (A) (A) (A) (A) (A) (A) (A)
                 (A) (A) (A) (A) (A) (A) (A) (A) (A) (A) (A) (A)
                 (A) (A) (A) (A) (A) (A) (A) (A) (A) (A) (A) (A)
                 (A) (A) (A) (A) (A) (A) (A) (A) (A) (A) (A) (A)
                 (A) (A) (A) (A) (A) (A) (A) (A) (A) (A) (A) (A)
                 (A) (A) (A) (A) (A) (A) (A) (A) (A) (A) (A) (A)
                 (A) (A) (A) (A) (A) (A) (A) (A) (A) (A) (A) (A)
                 (A) (A) (A) (A) (A) (A) (A) (A) (A) (A) (A) (A)
                 (A) (A) (A) (A)
 The electronic state is 1-A.
 Alpha  occ. eigenvalues --  -19.17398 -19.17320 -19.15653 -19.14744 -19.14023
 Alpha  occ. eigenvalues --  -19.13954 -19.13877 -19.11356 -10.27980 -10.24826
 Alpha  occ. eigenvalues --  -10.24549 -10.23655 -10.22986 -10.22901  -1.06094
 Alpha  occ. eigenvalues --   -1.04228  -1.03241  -1.02026  -1.01790  -1.01023
 Alpha  occ. eigenvalues --   -0.99940  -0.98275  -0.78318  -0.75275  -0.68883
 Alpha  occ. eigenvalues --   -0.63471  -0.61568  -0.56675  -0.55168  -0.54675
 Alpha  occ. eigenvalues --   -0.54412  -0.53203  -0.51707  -0.50100  -0.48580
 Alpha  occ. eigenvalues --   -0.46783  -0.45623  -0.44273  -0.43392  -0.42547
 Alpha  occ. eigenvalues --   -0.41848  -0.41624  -0.40754  -0.38532  -0.38197
 Alpha  occ. eigenvalues --   -0.36306  -0.35244  -0.34150  -0.34062  -0.32406
 Alpha  occ. eigenvalues --   -0.31323  -0.30330  -0.29465  -0.27745  -0.26737
 Alpha  occ. eigenvalues --   -0.26266  -0.26009  -0.24259
 Alpha virt. eigenvalues --    0.02598   0.04669   0.05859   0.08692   0.09477
 Alpha virt. eigenvalues --    0.10992   0.11598   0.12675   0.13839   0.14473
 Alpha virt. eigenvalues --    0.15194   0.16664   0.17261   0.17946   0.19349
 Alpha virt. eigenvalues --    0.20124   0.21387   0.22065   0.24169   0.26417
 Alpha virt. eigenvalues --    0.26907   0.28266   0.29056   0.30630   0.31035
 Alpha virt. eigenvalues --    0.32408   0.32981   0.37915   0.51655   0.52524
 Alpha virt. eigenvalues --    0.55108   0.55708   0.58702   0.59842   0.60334
 Alpha virt. eigenvalues --    0.61440   0.63153   0.65706   0.66179   0.68054
 Alpha virt. eigenvalues --    0.69512   0.70402   0.72072   0.73657   0.73810
 Alpha virt. eigenvalues --    0.75342   0.77197   0.78109   0.80137   0.80845
 Alpha virt. eigenvalues --    0.81739   0.82464   0.83501   0.85426   0.85559
 Alpha virt. eigenvalues --    0.86019   0.86508   0.87476   0.89653   0.90105
 Alpha virt. eigenvalues --    0.92125   0.92237   0.93888   0.95264   0.96016
 Alpha virt. eigenvalues --    0.97081   0.98745   1.00034   1.02218   1.02920
 Alpha virt. eigenvalues --    1.04227   1.05849   1.06832   1.07768   1.08484
 Alpha virt. eigenvalues --    1.09084   1.12591   1.14521   1.14975   1.15873
 Alpha virt. eigenvalues --    1.17628   1.20763   1.21935   1.26206   1.27594
 Alpha virt. eigenvalues --    1.28884   1.32304   1.33393   1.36965   1.39440
 Alpha virt. eigenvalues --    1.41156   1.42415   1.44028   1.48155   1.52980
 Alpha virt. eigenvalues --    1.53721   1.56169   1.57219   1.59279   1.61024
 Alpha virt. eigenvalues --    1.62530   1.64931   1.66161   1.67888   1.69705
 Alpha virt. eigenvalues --    1.70875   1.71333   1.72523   1.73308   1.74539
 Alpha virt. eigenvalues --    1.76479   1.76727   1.77228   1.80079   1.80844
 Alpha virt. eigenvalues --    1.81745   1.82909   1.85653   1.85981   1.87551
 Alpha virt. eigenvalues --    1.88768   1.89280   1.91324   1.93392   1.95235
 Alpha virt. eigenvalues --    1.97442   2.00904   2.03289   2.05010   2.05570
 Alpha virt. eigenvalues --    2.05727   2.09520   2.11556   2.12423   2.15308
 Alpha virt. eigenvalues --    2.19029   2.22638   2.23591   2.27062   2.30093
 Alpha virt. eigenvalues --    2.33218   2.35148   2.37538   2.39383   2.41360
 Alpha virt. eigenvalues --    2.42641   2.45658   2.49786   2.50312   2.51745
 Alpha virt. eigenvalues --    2.54084   2.55353   2.57503   2.59515   2.61681
 Alpha virt. eigenvalues --    2.63551   2.66708   2.68858   2.69396   2.75044
 Alpha virt. eigenvalues --    2.77068   2.77351   2.81947   2.87134   2.90061
 Alpha virt. eigenvalues --    2.95992   2.97233   3.01672   3.05620   3.10832
 Alpha virt. eigenvalues --    3.74647   3.78357   3.78616   3.87052   3.89255
 Alpha virt. eigenvalues --    3.97111   4.04151   4.17159   4.25445   4.35622
 Alpha virt. eigenvalues --    4.45507   4.49966   4.67108   4.79995
          Condensed to atoms (all electrons):
               1          2          3          4          5          6
     1  H    0.600865   0.365109  -0.006975   0.001086   0.000380  -0.032431
     2  C    0.365109   4.944819  -0.030191  -0.006554  -0.012316   0.152180
     3  C   -0.006975  -0.030191   4.943499  -0.027320   0.327417  -0.006609
     4  C    0.001086  -0.006554  -0.027320   4.786236   0.302963   0.032025
     5  C    0.000380  -0.012316   0.327417   0.302963   4.964039  -0.014245
     6  O   -0.032431   0.152180  -0.006609   0.032025  -0.014245   8.582514
     7  C   -0.048778   0.297926   0.284906  -0.003528  -0.019644  -0.029049
     8  H   -0.000174   0.003373   0.002252   0.343471  -0.073556  -0.028993
     9  H    0.000016   0.000819  -0.039553  -0.059238   0.348004   0.001982
    10  H    0.006869  -0.056152  -0.050391  -0.001168  -0.006326   0.002471
    11  C   -0.053795   0.350834   0.003638  -0.000603  -0.000178  -0.025400
    12  H   -0.006649  -0.035598  -0.000077  -0.000110  -0.000020   0.000595
    13  H    0.005821  -0.029479  -0.000261   0.000806  -0.000027  -0.000209
    14  O   -0.000141   0.006811  -0.000671   0.362693  -0.050495  -0.052470
    15  H    0.003672  -0.001447   0.348507  -0.002547  -0.048267   0.003116
    16  O    0.004153  -0.048741   0.000220   0.000017  -0.000002   0.001206
    17  H   -0.000225   0.005490   0.000005  -0.000001   0.000000  -0.000082
    18  O    0.000005   0.000042  -0.033358  -0.032162   0.214269   0.000424
    19  H   -0.000002  -0.000021  -0.007093   0.006786  -0.025546  -0.000121
    20  O   -0.000079   0.002929   0.231256   0.002796  -0.044071   0.000063
    21  H    0.000018   0.000779  -0.030037  -0.000226   0.006251  -0.000023
    22  O    0.005979  -0.041861  -0.032967   0.000101   0.001965   0.001473
    23  H    0.000500  -0.005114   0.005262   0.000006  -0.000167  -0.000001
    24  O    0.000019   0.001583   0.000000   0.002376   0.000076  -0.076674
    25  H    0.000005  -0.000198  -0.000034  -0.014023   0.002079   0.001904
    26  H   -0.002065  -0.008955   0.000338  -0.000693   0.001334   0.141338
    27  H    0.000004   0.000020  -0.000000  -0.000007   0.000004   0.003402
    28  O   -0.000000  -0.000015  -0.000000   0.008587  -0.000120  -0.000724
    29  H    0.000009  -0.000275  -0.000002   0.000472   0.000059   0.005655
    30  H   -0.000000  -0.000005   0.000000  -0.000388  -0.000001  -0.000005
               7          8          9         10         11         12
     1  H   -0.048778  -0.000174   0.000016   0.006869  -0.053795  -0.006649
     2  C    0.297926   0.003373   0.000819  -0.056152   0.350834  -0.035598
     3  C    0.284906   0.002252  -0.039553  -0.050391   0.003638  -0.000077
     4  C   -0.003528   0.343471  -0.059238  -0.001168  -0.000603  -0.000110
     5  C   -0.019644  -0.073556   0.348004  -0.006326  -0.000178  -0.000020
     6  O   -0.029049  -0.028993   0.001982   0.002471  -0.025400   0.000595
     7  C    5.021004   0.000474  -0.004715   0.356299  -0.034031   0.005786
     8  H    0.000474   0.656248   0.005412   0.000256  -0.000144   0.000007
     9  H   -0.004715   0.005412   0.615038   0.006976   0.000026  -0.000000
    10  H    0.356299   0.000256   0.006976   0.629953  -0.006352   0.000197
    11  C   -0.034031  -0.000144   0.000026  -0.006352   4.965278   0.360004
    12  H    0.005786   0.000007  -0.000000   0.000197   0.360004   0.594283
    13  H   -0.012353   0.000117   0.000020   0.004623   0.353306  -0.047785
    14  O    0.000968  -0.048445   0.006548   0.005799  -0.003443   0.000120
    15  H   -0.056119   0.000088   0.007760   0.007416   0.000288   0.000006
    16  O    0.008115   0.000000  -0.000000   0.000808   0.206331  -0.033274
    17  H   -0.000018  -0.000000   0.000000  -0.000077  -0.019248  -0.002258
    18  O    0.004220   0.010099  -0.037209   0.000032  -0.000001  -0.000000
    19  H    0.000458  -0.000651  -0.003896  -0.000024   0.000000  -0.000000
    20  O   -0.028913  -0.000080  -0.000026   0.000199  -0.000043   0.000000
    21  H   -0.015608   0.000007  -0.000069   0.000495  -0.000018   0.000000
    22  O    0.212443   0.000002  -0.000143  -0.040287  -0.000282  -0.000212
    23  H   -0.023397  -0.000000   0.000008  -0.003017  -0.003072   0.000228
    24  O   -0.000097   0.001825   0.000001   0.000005  -0.001034   0.005423
    25  H   -0.000039  -0.007504  -0.000026  -0.000038   0.000205  -0.000045
    26  H    0.002356  -0.000470  -0.000080  -0.000250  -0.000875   0.002299
    27  H    0.000003   0.000296  -0.000000  -0.000000   0.000011  -0.000032
    28  O    0.000001   0.003936   0.000003   0.000003  -0.000156   0.000015
    29  H    0.000016  -0.000742  -0.000001  -0.000003   0.000114   0.000276
    30  H   -0.000000  -0.000147  -0.000001  -0.000001   0.000021  -0.000018
              13         14         15         16         17         18
     1  H    0.005821  -0.000141   0.003672   0.004153  -0.000225   0.000005
     2  C   -0.029479   0.006811  -0.001447  -0.048741   0.005490   0.000042
     3  C   -0.000261  -0.000671   0.348507   0.000220   0.000005  -0.033358
     4  C    0.000806   0.362693  -0.002547   0.000017  -0.000001  -0.032162
     5  C   -0.000027  -0.050495  -0.048267  -0.000002   0.000000   0.214269
     6  O   -0.000209  -0.052470   0.003116   0.001206  -0.000082   0.000424
     7  C   -0.012353   0.000968  -0.056119   0.008115  -0.000018   0.004220
     8  H    0.000117  -0.048445   0.000088   0.000000  -0.000000   0.010099
     9  H    0.000020   0.006548   0.007760  -0.000000   0.000000  -0.037209
    10  H    0.004623   0.005799   0.007416   0.000808  -0.000077   0.000032
    11  C    0.353306  -0.003443   0.000288   0.206331  -0.019248  -0.000001
    12  H   -0.047785   0.000120   0.000006  -0.033274  -0.002258  -0.000000
    13  H    0.594686   0.008730   0.000011  -0.031020  -0.005018   0.000000
    14  O    0.008730   8.293050   0.000052   0.000019  -0.000002   0.000856
    15  H    0.000011   0.000052   0.648992  -0.000010   0.000001   0.002540
    16  O   -0.031020   0.000019  -0.000010   8.270870   0.236151   0.000000
    17  H   -0.005018  -0.000002   0.000001   0.236151   0.377436  -0.000000
    18  O    0.000000   0.000856   0.002540   0.000000  -0.000000   8.282315
    19  H    0.000000  -0.000132  -0.000496   0.000000  -0.000000   0.237041
    20  O   -0.000001  -0.000022  -0.046064  -0.000000   0.000000  -0.000921
    21  H   -0.000001   0.000003  -0.000373   0.000004  -0.000000  -0.000113
    22  O    0.000125   0.000017  -0.000643  -0.009571   0.000433  -0.000011
    23  H    0.000370   0.000000  -0.000250   0.033459  -0.001104   0.000001
    24  O   -0.000039  -0.001335   0.000003   0.000014   0.000001  -0.000000
    25  H    0.000104   0.107020   0.000002  -0.000001   0.000000  -0.000046
    26  H   -0.000122   0.004585  -0.000113  -0.000041  -0.000002  -0.000043
    27  H    0.000008   0.000015  -0.000000  -0.000001  -0.000000  -0.000000
    28  O    0.000661  -0.072919  -0.000000   0.000000   0.000000   0.000001
    29  H    0.000205   0.002715  -0.000000   0.000001  -0.000000  -0.000000
    30  H    0.000139   0.003326   0.000000  -0.000000  -0.000000  -0.000000
              19         20         21         22         23         24
     1  H   -0.000002  -0.000079   0.000018   0.005979   0.000500   0.000019
     2  C   -0.000021   0.002929   0.000779  -0.041861  -0.005114   0.001583
     3  C   -0.007093   0.231256  -0.030037  -0.032967   0.005262   0.000000
     4  C    0.006786   0.002796  -0.000226   0.000101   0.000006   0.002376
     5  C   -0.025546  -0.044071   0.006251   0.001965  -0.000167   0.000076
     6  O   -0.000121   0.000063  -0.000023   0.001473  -0.000001  -0.076674
     7  C    0.000458  -0.028913  -0.015608   0.212443  -0.023397  -0.000097
     8  H   -0.000651  -0.000080   0.000007   0.000002  -0.000000   0.001825
     9  H   -0.003896  -0.000026  -0.000069  -0.000143   0.000008   0.000001
    10  H   -0.000024   0.000199   0.000495  -0.040287  -0.003017   0.000005
    11  C    0.000000  -0.000043  -0.000018  -0.000282  -0.003072  -0.001034
    12  H   -0.000000   0.000000   0.000000  -0.000212   0.000228   0.005423
    13  H    0.000000  -0.000001  -0.000001   0.000125   0.000370  -0.000039
    14  O   -0.000132  -0.000022   0.000003   0.000017   0.000000  -0.001335
    15  H   -0.000496  -0.046064  -0.000373  -0.000643  -0.000250   0.000003
    16  O    0.000000  -0.000000   0.000004  -0.009571   0.033459   0.000014
    17  H   -0.000000   0.000000  -0.000000   0.000433  -0.001104   0.000001
    18  O    0.237041  -0.000921  -0.000113  -0.000011   0.000001  -0.000000
    19  H    0.377765   0.008999  -0.000316  -0.000001   0.000000  -0.000000
    20  O    0.008999   8.309649   0.235759  -0.007897   0.000180   0.000000
    21  H   -0.000316   0.235759   0.361122   0.027428  -0.000725  -0.000000
    22  O   -0.000001  -0.007897   0.027428   8.324577   0.231585   0.000000
    23  H    0.000000   0.000180  -0.000725   0.231585   0.343540  -0.000000
    24  O   -0.000000   0.000000  -0.000000   0.000000  -0.000000   8.451051
    25  H    0.000003   0.000000  -0.000000  -0.000000   0.000000   0.005898
    26  H    0.000004   0.000001   0.000000  -0.000028  -0.000000   0.118002
    27  H    0.000000  -0.000000   0.000000  -0.000000   0.000000   0.236146
    28  O   -0.000000  -0.000000   0.000000   0.000000  -0.000000  -0.075370
    29  H    0.000000   0.000000   0.000000  -0.000000   0.000000   0.164519
    30  H    0.000000   0.000000  -0.000000  -0.000000   0.000000   0.003256
              25         26         27         28         29         30
     1  H    0.000005  -0.002065   0.000004  -0.000000   0.000009  -0.000000
     2  C   -0.000198  -0.008955   0.000020  -0.000015  -0.000275  -0.000005
     3  C   -0.000034   0.000338  -0.000000  -0.000000  -0.000002   0.000000
     4  C   -0.014023  -0.000693  -0.000007   0.008587   0.000472  -0.000388
     5  C    0.002079   0.001334   0.000004  -0.000120   0.000059  -0.000001
     6  O    0.001904   0.141338   0.003402  -0.000724   0.005655  -0.000005
     7  C   -0.000039   0.002356   0.000003   0.000001   0.000016  -0.000000
     8  H   -0.007504  -0.000470   0.000296   0.003936  -0.000742  -0.000147
     9  H   -0.000026  -0.000080  -0.000000   0.000003  -0.000001  -0.000001
    10  H   -0.000038  -0.000250  -0.000000   0.000003  -0.000003  -0.000001
    11  C    0.000205  -0.000875   0.000011  -0.000156   0.000114   0.000021
    12  H   -0.000045   0.002299  -0.000032   0.000015   0.000276  -0.000018
    13  H    0.000104  -0.000122   0.000008   0.000661   0.000205   0.000139
    14  O    0.107020   0.004585   0.000015  -0.072919   0.002715   0.003326
    15  H    0.000002  -0.000113  -0.000000  -0.000000  -0.000000   0.000000
    16  O   -0.000001  -0.000041  -0.000001   0.000000   0.000001  -0.000000
    17  H    0.000000  -0.000002  -0.000000   0.000000  -0.000000  -0.000000
    18  O   -0.000046  -0.000043  -0.000000   0.000001  -0.000000  -0.000000
    19  H    0.000003   0.000004   0.000000  -0.000000   0.000000   0.000000
    20  O    0.000000   0.000001  -0.000000  -0.000000   0.000000   0.000000
    21  H   -0.000000   0.000000   0.000000   0.000000   0.000000  -0.000000
    22  O   -0.000000  -0.000028  -0.000000   0.000000  -0.000000  -0.000000
    23  H    0.000000  -0.000000   0.000000  -0.000000   0.000000   0.000000
    24  O    0.005898   0.118002   0.236146  -0.075370   0.164519   0.003256
    25  H    0.311111  -0.000428  -0.000253   0.159308  -0.009966  -0.006476
    26  H   -0.000428   0.281099  -0.005444   0.002607  -0.008180   0.000010
    27  H   -0.000253  -0.005444   0.365591   0.003106  -0.007564  -0.000112
    28  O    0.159308   0.002607   0.003106   8.461980   0.112428   0.233645
    29  H   -0.009966  -0.008180  -0.007564   0.112428   0.299835  -0.006163
    30  H   -0.006476   0.000010  -0.000112   0.233645  -0.006163   0.378717
 Mulliken charges:
               1
     1  H    0.156803
     2  C    0.144207
     3  C    0.118239
     4  C    0.298148
     5  C    0.126139
     6  O   -0.663314
     7  C    0.081316
     8  H    0.133044
     9  H    0.152343
    10  H    0.141686
    11  C   -0.091380
    12  H    0.156839
    13  H    0.156585
    14  O   -0.573251
    15  H    0.133878
    16  O   -0.638707
    17  H    0.408518
    18  O   -0.647980
    19  H    0.407242
    20  O   -0.663714
    21  H    0.415641
    22  O   -0.672225
    23  H    0.421710
    24  O   -0.835648
    25  H    0.451437
    26  H    0.473813
    27  H    0.404809
    28  O   -0.836975
    29  H    0.446593
    30  H    0.394205
 Sum of Mulliken charges =  -0.00000
 Mulliken charges with hydrogens summed into heavy atoms:
               1
     2  C    0.301009
     3  C    0.252117
     4  C    0.431192
     5  C    0.278482
     6  O   -0.189501
     7  C    0.223002
    11  C    0.222045
    14  O   -0.573251
    16  O   -0.230189
    18  O   -0.240738
    20  O   -0.248073
    22  O   -0.250515
    24  O    0.015753
    28  O    0.008667
 Electronic spatial extent (au):  <R**2>=           3163.7532
 Charge=              0.0000 electrons
 Dipole moment (field-independent basis, Debye):
    X=             -2.3747    Y=              3.5720    Z=             -0.0999  Tot=              4.2905
 Quadrupole moment (field-independent basis, Debye-Ang):
   XX=            -79.0395   YY=            -80.6351   ZZ=            -79.8839
   XY=             -5.1141   XZ=             -0.1435   YZ=             -7.6183
 Traceless Quadrupole moment (field-independent basis, Debye-Ang):
   XX=              0.8133   YY=             -0.7823   ZZ=             -0.0310
   XY=             -5.1141   XZ=             -0.1435   YZ=             -7.6183
 Octapole moment (field-independent basis, Debye-Ang**2):
  XXX=            -34.7692  YYY=             47.0938  ZZZ=              5.3332  XYY=              0.4664
  XXY=              4.0827  XXZ=              1.8662  XZZ=            -25.3616  YZZ=              7.8827
  YYZ=            -21.0454  XYZ=             10.5014
 Hexadecapole moment (field-independent basis, Debye-Ang**3):
 XXXX=          -1758.9260 YYYY=          -1284.8685 ZZZZ=           -308.9303 XXXY=            -12.0529
 XXXZ=             27.1948 YYYX=            -74.4903 YYYZ=            -80.8061 ZZZX=            -14.2099
 ZZZY=            -17.1384 XXYY=           -548.0909 XXZZ=           -287.0931 YYZZ=           -275.9153
 XXYZ=            -55.7778 YYXZ=              1.4261 ZZXY=              9.9365
 N-N= 1.110671461867D+03 E-N=-4.194518290373D+03  KE= 8.330500880448D+02
 Calling FoFJK, ICntrl=      2127 FMM=F ISym2X=0 I1Cent= 0 IOpClX= 0 NMat=1 NMatS=1 NMatT=0.
 ***** Axes restored to original set *****
 -------------------------------------------------------------------
 Center     Atomic                   Forces (Hartrees/Bohr)
 Number     Number              X              Y              Z
 -------------------------------------------------------------------
      1        1           0.000334715    0.000693042   -0.000221919
      2        6           0.001626284    0.003308756    0.001589303
      3        6          -0.000622693    0.000047742    0.000350741
      4        6           0.001951732   -0.009767396   -0.009259683
      5        6           0.002243209   -0.002384912   -0.001106282
      6        8           0.006464970    0.006778072    0.009852180
      7        6          -0.000219943    0.000534212    0.000380696
      8        1          -0.000069779   -0.000158077   -0.000359834
      9        1           0.000593961   -0.000195777    0.000026088
     10        1          -0.000036606    0.000030179    0.000029026
     11        6           0.000077780    0.000482774    0.000039214
     12        1          -0.000011428    0.000045039   -0.000020330
     13        1           0.000033019   -0.000016959    0.000021744
     14        8           0.005837841   -0.000289987   -0.003937488
     15        1          -0.000062437   -0.000046286    0.000008036
     16        8          -0.000333489    0.000689305   -0.000609947
     17        1           0.000000938    0.000036376   -0.000037308
     18        8           0.001278466   -0.001386750    0.001096903
     19        1           0.000060620   -0.000112629    0.000192205
     20        8          -0.000333656    0.000367878    0.000256140
     21        1          -0.000049859    0.000039654    0.000008153
     22        8           0.000737212   -0.000120210   -0.000512286
     23        1           0.000041672   -0.000006763   -0.000015319
     24        8          -0.007607055    0.005390130    0.008944876
     25        1          -0.000213533   -0.000309544   -0.000544404
     26        1           0.001569351    0.000186150    0.000335931
     27        1          -0.000497808    0.000186405    0.000266412
     28        8          -0.011801700   -0.003816999   -0.006532187
     29        1          -0.000480749    0.000348312    0.000253930
     30        1          -0.000511035   -0.000551734   -0.000494590
 -------------------------------------------------------------------
 Cartesian Forces:  Max     0.011801700 RMS     0.003027502

 GradGradGradGradGradGradGradGradGradGradGradGradGradGradGradGradGradGrad
 Berny optimization.
 FormGI is forming the generalized inverse of G from B-inverse, IUseBI=4.
 Internal  Forces:  Max     0.014945149 RMS     0.004331164
 Search for a local minimum.
 Step number   1 out of a maximum of  180
 All quantities printed in internal units (Hartrees-Bohrs-Radians)
 Mixed Optimization -- RFO/linear search
 Second derivative matrix not updated -- first step.
 ITU=  0
     Eigenvalues ---    0.00230   0.00230   0.00237   0.00292   0.00335
     Eigenvalues ---    0.00374   0.00399   0.00480   0.00956   0.01250
     Eigenvalues ---    0.01388   0.01402   0.01408   0.01436   0.02071
     Eigenvalues ---    0.02764   0.03311   0.04145   0.04428   0.04698
     Eigenvalues ---    0.04742   0.04898   0.05093   0.05276   0.05528
     Eigenvalues ---    0.05613   0.05772   0.05970   0.06709   0.07014
     Eigenvalues ---    0.07082   0.07349   0.08284   0.08715   0.09941
     Eigenvalues ---    0.10490   0.10711   0.10763   0.12295   0.12487
     Eigenvalues ---    0.13389   0.13463   0.14884   0.15250   0.15807
     Eigenvalues ---    0.16000   0.16000   0.16000   0.16000   0.16259
     Eigenvalues ---    0.16849   0.17455   0.18711   0.19199   0.20091
     Eigenvalues ---    0.20573   0.21956   0.27890   0.28875   0.29211
     Eigenvalues ---    0.29602   0.29646   0.33363   0.33577   0.33690
     Eigenvalues ---    0.33730   0.33864   0.33891   0.33919   0.40114
     Eigenvalues ---    0.40501   0.40903   0.42012   0.42171   0.42559
     Eigenvalues ---    0.42745   0.42915   0.52607   0.52725   0.53172
     Eigenvalues ---    0.53524   0.53642   0.53734   0.78816
 RFO step:  Lambda=-2.67624956D-02 EMin= 2.30000000D-03
 Linear search not attempted -- first point.
 Maximum step size (   0.300) exceeded in Quadratic search.
    -- Step size scaled by   0.675
 Iteration  1 RMS(Cart)=  0.12930876 RMS(Int)=  0.00520808
 Iteration  2 RMS(Cart)=  0.00938487 RMS(Int)=  0.00159336
 Iteration  3 RMS(Cart)=  0.00014042 RMS(Int)=  0.00159284
 Iteration  4 RMS(Cart)=  0.00000089 RMS(Int)=  0.00159284
 Variable       Old X    -DE/DX   Delta X   Delta X   Delta X     New X
                                 (Linear)    (Quad)   (Total)
    R1        2.07467   0.00022   0.00000   0.00041   0.00041   2.07507
    R2        2.70307   0.00061   0.00000  -0.00176  -0.00329   2.69978
    R3        2.91078   0.00701   0.00000   0.01634   0.01590   2.92669
    R4        2.88703   0.00138   0.00000   0.00283   0.00294   2.88996
    R5        2.89101   0.00935   0.00000   0.02155   0.02156   2.91257
    R6        2.88156   0.00513   0.00000   0.01568   0.01764   2.89920
    R7        2.08049   0.00001   0.00000   0.00001   0.00001   2.08050
    R8        2.68705  -0.00052   0.00000  -0.00078  -0.00078   2.68628
    R9        2.89544   0.00203   0.00000   0.00217   0.00157   2.89701
   R10        2.08419  -0.00010   0.00000  -0.00019  -0.00019   2.08400
   R11        2.37783   0.00362   0.00000   0.00152  -0.00093   2.37690
   R12        2.07789   0.00013   0.00000   0.00024   0.00024   2.07813
   R13        2.68217   0.00213   0.00000   0.00318   0.00318   2.68535
   R14        1.96204   0.00752   0.00000   0.01275   0.01330   1.97534
   R15        2.07856  -0.00002   0.00000  -0.00004  -0.00004   2.07852
   R16        2.68908   0.00039   0.00000   0.00059   0.00059   2.68967
   R17        2.07559  -0.00002   0.00000  -0.00004  -0.00007   2.07552
   R18        2.07514  -0.00002   0.00000  -0.00004  -0.00004   2.07510
   R19        2.70878   0.00050   0.00000   0.00079   0.00079   2.70957
   R20        2.78401   0.01103   0.00000   0.04841   0.04837   2.83238
   R21        1.82974   0.00004   0.00000   0.00005   0.00005   1.82980
   R22        1.83494   0.00007   0.00000   0.00009   0.00009   1.83502
   R23        1.83912   0.00001   0.00000   0.00001   0.00001   1.83913
   R24        1.84022  -0.00002   0.00000  -0.00002  -0.00002   1.84020
   R25        2.71321   0.00972   0.00000   0.04460   0.04507   2.75828
   R26        1.83167   0.00029   0.00000   0.00035   0.00035   1.83203
   R27        1.94090   0.01430   0.00000   0.02101   0.02193   1.96283
   R28        1.93915   0.01187   0.00000   0.01668   0.01675   1.95589
   R29        2.77656   0.01495   0.00000   0.06693   0.06793   2.84449
   R30        1.83059   0.00029   0.00000   0.00034   0.00034   1.83093
    A1        1.87061  -0.00283   0.00000  -0.00987  -0.00837   1.86224
    A2        1.85895   0.00145   0.00000   0.00387   0.00431   1.86326
    A3        1.90138   0.00067   0.00000  -0.00255  -0.00284   1.89854
    A4        1.91274   0.00237   0.00000   0.02232   0.02144   1.93419
    A5        1.96421   0.00240   0.00000  -0.00030  -0.00125   1.96297
    A6        1.95112  -0.00409   0.00000  -0.01342  -0.01318   1.93795
    A7        1.93243   0.00864   0.00000   0.05186   0.05466   1.98708
    A8        1.89161   0.00195   0.00000   0.01674   0.01362   1.90523
    A9        1.86546  -0.00746   0.00000  -0.03572  -0.03450   1.83096
   A10        1.90278  -0.00380   0.00000  -0.00409  -0.00447   1.89831
   A11        1.94544  -0.00073   0.00000  -0.02121  -0.02349   1.92195
   A12        1.92532   0.00157   0.00000  -0.00661  -0.00611   1.91921
   A13        1.96725  -0.00005   0.00000   0.00352   0.00128   1.96854
   A14        2.05435   0.00881   0.00000   0.03842   0.04179   2.09614
   A15        2.11032  -0.00545   0.00000  -0.00901  -0.01125   2.09907
   A16        2.02333   0.00378   0.00000   0.02711   0.02581   2.04914
   A17        1.86309  -0.00008   0.00000  -0.00467  -0.00484   1.85825
   A18        1.94505  -0.00310   0.00000  -0.01133  -0.01036   1.93469
   A19        1.82728  -0.00241   0.00000  -0.00471  -0.00278   1.82450
   A20        1.86538   0.00121   0.00000  -0.00332  -0.00452   1.86086
   A21        1.93670   0.00063   0.00000  -0.00319  -0.00352   1.93318
   A22        1.96767   0.01361   0.00000   0.02710   0.02600   1.99367
   A23        1.91265   0.00995   0.00000   0.05945   0.06264   1.97529
   A24        1.92375   0.00149   0.00000   0.00965   0.00697   1.93072
   A25        1.92399  -0.00714   0.00000  -0.02977  -0.02881   1.89518
   A26        1.90267  -0.00592   0.00000  -0.01953  -0.01985   1.88282
   A27        1.87546   0.00002   0.00000  -0.01174  -0.01413   1.86133
   A28        1.92457   0.00165   0.00000  -0.00790  -0.00760   1.91697
   A29        1.93081  -0.00020   0.00000   0.00006   0.00021   1.93102
   A30        1.90772  -0.00047   0.00000  -0.00151  -0.00154   1.90619
   A31        1.83876   0.00162   0.00000   0.00473   0.00468   1.84344
   A32        1.89808   0.00013   0.00000  -0.00059  -0.00064   1.89744
   A33        1.94097  -0.00052   0.00000  -0.00091  -0.00096   1.94001
   A34        1.94710  -0.00054   0.00000  -0.00168  -0.00167   1.94543
   A35        1.92093  -0.00003   0.00000  -0.01885  -0.02263   1.89830
   A36        1.89513   0.00004   0.00000   0.00015   0.00015   1.89528
   A37        1.85477   0.00035   0.00000   0.00126   0.00126   1.85602
   A38        1.84372  -0.00011   0.00000  -0.00039  -0.00039   1.84333
   A39        1.84564   0.00005   0.00000   0.00019   0.00019   1.84583
   A40        1.93952  -0.00019   0.00000  -0.00530  -0.00902   1.93050
   A41        1.80351   0.00301   0.00000   0.01553   0.01686   1.82037
   A42        1.85759  -0.00072   0.00000   0.00407   0.00570   1.86329
   A43        1.75293   0.00586   0.00000   0.01663   0.01764   1.77057
   A44        1.84444  -0.00055   0.00000  -0.00555  -0.00658   1.83786
   A45        1.94645  -0.00399   0.00000  -0.00423  -0.00207   1.94438
   A46        2.96470  -0.00254   0.00000  -0.05587  -0.05816   2.90654
   A47        3.15147   0.00254   0.00000   0.03716   0.04052   3.19198
   A48        2.91545   0.00867   0.00000   0.17596   0.17607   3.09152
   A49        3.27863  -0.00239   0.00000  -0.04512  -0.04900   3.22963
   A50        3.01239  -0.00945   0.00000  -0.15214  -0.14998   2.86242
   A51        3.12427   0.00282   0.00000   0.05032   0.05173   3.17600
    D1        1.56651   0.00475   0.00000   0.07017   0.06948   1.63599
    D2       -2.70608   0.00614   0.00000   0.08077   0.08095  -2.62512
    D3       -0.52346   0.00435   0.00000   0.07996   0.07913  -0.44433
    D4        1.48722   0.00308   0.00000   0.03619   0.03440   1.52162
    D5       -2.70201   0.00297   0.00000   0.05557   0.05563  -2.64638
    D6       -0.57345   0.00129   0.00000   0.03229   0.03192  -0.54153
    D7       -0.53081   0.00443   0.00000   0.03454   0.03099  -0.49981
    D8        1.56315   0.00432   0.00000   0.05393   0.05222   1.61537
    D9       -2.59148   0.00264   0.00000   0.03064   0.02851  -2.56297
   D10       -2.72097   0.00250   0.00000   0.02799   0.02628  -2.69468
   D11       -0.62701   0.00239   0.00000   0.04738   0.04751  -0.57950
   D12        1.50155   0.00071   0.00000   0.02410   0.02380   1.52534
   D13       -1.05781   0.00034   0.00000   0.00307   0.00289  -1.05492
   D14        3.13581   0.00060   0.00000   0.00473   0.00453   3.14034
   D15        1.04146   0.00058   0.00000   0.00483   0.00466   1.04612
   D16        1.01423  -0.00126   0.00000  -0.01111  -0.01014   1.00409
   D17       -1.07533  -0.00099   0.00000  -0.00945  -0.00851  -1.08384
   D18        3.11350  -0.00102   0.00000  -0.00934  -0.00838   3.10512
   D19       -3.10747   0.00057   0.00000   0.00788   0.00711  -3.10036
   D20        1.08615   0.00083   0.00000   0.00954   0.00874   1.09490
   D21       -1.00820   0.00080   0.00000   0.00965   0.00888  -0.99932
   D22       -0.68235   0.00168   0.00000  -0.01258  -0.01649  -0.69884
   D23        1.34501   0.00079   0.00000  -0.00613  -0.00840   1.33661
   D24       -2.82098  -0.00033   0.00000  -0.01974  -0.02174  -2.84272
   D25        1.40386   0.00339   0.00000   0.02376   0.02199   1.42584
   D26       -2.85197   0.00250   0.00000   0.03021   0.03008  -2.82189
   D27       -0.73477   0.00139   0.00000   0.01660   0.01673  -0.71804
   D28       -2.80430   0.00219   0.00000   0.00530   0.00310  -2.80120
   D29       -0.77694   0.00130   0.00000   0.01175   0.01119  -0.76575
   D30        1.34026   0.00019   0.00000  -0.00187  -0.00215   1.33810
   D31        1.28038   0.00923   0.00000   0.11648   0.11403   1.39441
   D32       -0.82641   0.00497   0.00000   0.08034   0.07882  -0.74759
   D33       -2.91216   0.00629   0.00000   0.10738   0.10612  -2.80604
   D34       -0.79910   0.00398   0.00000   0.06706   0.06500  -0.73409
   D35       -2.90589  -0.00028   0.00000   0.03092   0.02979  -2.87610
   D36        1.29155   0.00103   0.00000   0.05797   0.05709   1.34864
   D37       -2.92864   0.00507   0.00000   0.09198   0.09035  -2.83829
   D38        1.24775   0.00081   0.00000   0.05585   0.05514   1.30289
   D39       -0.83799   0.00212   0.00000   0.08289   0.08243  -0.75556
   D40        2.86012   0.00215   0.00000   0.01054   0.01233   2.87245
   D41        0.74641  -0.00321   0.00000  -0.01759  -0.01895   0.72746
   D42       -1.37006   0.00102   0.00000   0.00637   0.00594  -1.36412
   D43       -2.00016   0.00298   0.00000   0.03598   0.03653  -1.96363
   D44        2.23565   0.00265   0.00000   0.03018   0.03020   2.26585
   D45        0.17996   0.00254   0.00000   0.03760   0.03756   0.21752
   D46        1.69836  -0.00051   0.00000  -0.01481  -0.01604   1.68232
   D47       -0.34902  -0.00084   0.00000  -0.02062  -0.02237  -0.37138
   D48       -2.40471  -0.00095   0.00000  -0.01320  -0.01500  -2.41971
   D49        2.93966   0.01296   0.00000   0.11039   0.11125   3.05091
   D50        0.40251   0.00684   0.00000   0.04930   0.04880   0.45131
   D51       -0.96378   0.00182   0.00000   0.01425   0.01348  -0.95030
   D52        3.09245  -0.00175   0.00000  -0.01011  -0.00897   3.08348
   D53        1.10997   0.00011   0.00000  -0.00112  -0.00150   1.10847
   D54       -2.45355   0.00086   0.00000  -0.02696  -0.02985  -2.48340
   D55        1.86409   0.00179   0.00000  -0.01072  -0.01589   1.84820
   D56       -1.04371   0.00323   0.00000   0.01995   0.02148  -1.02223
   D57       -3.12712  -0.00474   0.00000  -0.02789  -0.02912   3.12694
   D58        1.08436   0.00146   0.00000   0.00703   0.00674   1.09110
   D59        2.99943  -0.00012   0.00000  -0.00087  -0.00094   2.99849
   D60       -1.19119   0.00034   0.00000   0.00157   0.00164  -1.18955
   D61        0.93128  -0.00024   0.00000  -0.00100  -0.00101   0.93026
   D62        0.86815   0.00741   0.00000   0.05764   0.05352   0.92168
   D63        2.85899   0.00494   0.00000   0.04761   0.04522   2.90421
   D64       -0.13182   0.00367   0.00000   0.02349   0.01894  -0.11288
   D65       -2.04879   0.00125   0.00000   0.00050  -0.00055  -2.04933
   D66       -2.13453   0.00082   0.00000  -0.01841  -0.02220  -2.15672
   D67        2.23169  -0.00160   0.00000  -0.04140  -0.04168   2.19001
         Item               Value     Threshold  Converged?
 Maximum Force            0.014945     0.000450     NO 
 RMS     Force            0.004331     0.000300     NO 
 Maximum Displacement     0.437967     0.001800     NO 
 RMS     Displacement     0.130698     0.001200     NO 
 Predicted change in Energy=-1.458125D-02
 GradGradGradGradGradGradGradGradGradGradGradGradGradGradGradGradGradGrad

                          Input orientation:                          
 ---------------------------------------------------------------------
 Center     Atomic      Atomic             Coordinates (Angstroms)
 Number     Number       Type             X           Y           Z
 ---------------------------------------------------------------------
      1          1           0        0.474518    1.763821    1.574851
      2          6           0        0.067786    1.259393    0.688339
      3          6           0        1.807706   -0.586239    0.253751
      4          6           0       -0.539497   -1.608871   -0.334270
      5          6           0        0.985814   -1.760908   -0.312061
      6          8           0       -0.681244    0.138526    1.161301
      7          6           0        1.279825    0.794656   -0.156392
      8          1           0       -1.047702   -2.298942    0.359781
      9          1           0        1.268920   -1.858374   -1.370216
     10          1           0        1.014953    0.751724   -1.223067
     11          6           0       -0.795612    2.252718   -0.090516
     12          1           0       -1.629261    2.609877    0.528977
     13          1           0       -1.205247    1.755737   -0.979912
     14          8           0       -1.119591   -1.220978   -1.380736
     15          1           0        1.818586   -0.649118    1.352854
     16          8           0        0.081517    3.329118   -0.448161
     17          1           0       -0.387576    3.921368   -1.053778
     18          8           0        1.264392   -2.960747    0.396527
     19          1           0        2.227333   -3.081144    0.362030
     20          8           0        3.120418   -0.779198   -0.256412
     21          1           0        3.581135    0.067314   -0.121037
     22          8           0        2.348422    1.714245    0.039227
     23          1           0        2.004329    2.582240   -0.237280
     24          8           0       -3.157075    0.317927    1.201700
     25          1           0       -2.601099   -1.284916   -1.162696
     26          1           0       -1.700432    0.328924    1.294217
     27          1           0       -3.545068   -0.113976    1.978092
     28          8           0       -3.572813   -1.149141   -0.833168
     29          1           0       -3.357777   -0.294199    0.386906
     30          1           0       -4.015160   -0.653725   -1.538599
 ---------------------------------------------------------------------
                    Distance matrix (angstroms):
                    1          2          3          4          5
     1  H    0.000000
     2  C    1.098081   0.000000
     3  C    3.007571   2.573431   0.000000
     4  C    4.005998   3.105070   2.626957   0.000000
     5  C    4.030580   3.311464   1.541265   1.533030   0.000000
     6  O    2.036761   1.428664   2.746599   2.304391   2.925359
     7  C    2.141262   1.548738   1.534193   3.019688   2.577127
     8  H    4.505507   3.743530   3.331359   1.102805   2.208176
     9  H    4.735483   3.924391   2.132109   2.099001   1.099700
    10  H    3.024030   2.192790   2.144667   2.962884   2.672845
    11  C    2.150743   1.529302   3.867229   3.877741   4.396789
    12  H    2.497108   2.174666   4.701452   4.441916   5.162338
    13  H    3.057530   2.156393   4.010569   3.490081   4.196852
    14  O    4.492850   3.441391   3.412259   1.257800   2.422049
    15  H    2.770934   2.673817   1.100954   3.054189   2.168301
    16  O    2.587892   2.361267   4.336177   4.978189   5.171522
    17  H    3.508262   3.213788   5.181449   5.578917   5.892759
    18  O    4.932940   4.396203   2.440054   2.369736   1.421027
    19  H    5.293108   4.859052   2.532264   3.210571   1.933595
    20  O    4.101373   3.790379   1.421517   3.753584   2.350188
    21  H    3.924951   3.797336   1.926822   4.453612   3.180341
    22  O    2.423245   2.414444   2.372893   4.418447   3.749239
    23  H    2.508774   2.521288   3.212325   4.903658   4.461602
    24  O    3.926617   3.398474   5.134703   3.594923   4.876121
    25  H    5.123318   4.125868   4.683165   2.245315   3.717001
    26  H    2.620705   2.087931   3.771887   2.784742   3.763436
    27  H    4.454862   4.074594   5.643454   4.076173   5.337235
    28  O    5.537580   4.622767   5.517992   3.108257   4.628920
    29  H    4.509229   3.773459   5.175446   3.192360   4.637519
    30  H    5.974555   5.028888   6.092852   3.800388   5.266877
                    6          7          8          9         10
     6  O    0.000000
     7  C    2.452063   0.000000
     8  H    2.591906   3.905658   0.000000
     9  H    3.768199   2.917543   2.924675   0.000000
    10  H    2.989700   1.099907   4.008306   2.626550   0.000000
    11  C    2.459661   2.537266   4.580822   4.775039   2.610325
    12  H    2.721424   3.496789   4.946044   5.654349   3.676174
    13  H    2.733998   2.788807   4.273175   4.397232   2.448766
    14  O    2.915878   3.364372   2.048554   2.472119   2.910789
    15  H    2.627970   2.156982   3.453075   3.029776   3.040321
    16  O    3.654046   2.818611   5.796807   5.400943   2.848638
    17  H    4.393485   3.655386   6.412969   6.020758   3.470214
    18  O    3.738432   3.795921   2.405227   2.082457   4.058047
    19  H    4.411908   4.023477   3.367150   2.326886   4.321259
    20  O    4.159899   2.423800   4.479123   2.415207   2.776892
    21  H    4.451666   2.413774   5.220774   3.258076   2.875444
    22  O    3.594554   1.423310   5.267076   3.989419   2.073155
    23  H    3.891024   1.930519   5.787686   4.641490   2.302483
    24  O    2.482651   4.664521   3.465009   5.562415   4.844944
    25  H    3.333615   4.516507   2.399839   3.917775   4.150587
    26  H    1.045305   3.347104   2.864421   4.549783   3.726767
    27  H    2.988711   5.353617   3.691862   6.117889   5.638319
    28  O    3.741278   5.271097   3.020159   4.922785   4.981255
    29  H    2.819711   4.794594   3.058787   5.190419   4.775640
    30  H    4.362581   5.660845   3.887981   5.422272   5.232292
                   11         12         13         14         15
    11  C    0.000000
    12  H    1.098320   0.000000
    13  H    1.098096   1.784962   0.000000
    14  O    3.719703   4.310710   3.004802   0.000000
    15  H    4.163892   4.815337   4.513169   4.053693   0.000000
    16  O    1.433841   2.097347   2.100963   4.797471   4.699726
    17  H    1.969457   2.401438   2.316031   5.204467   5.616793
    18  O    5.626815   6.278744   5.498994   3.445118   2.562288
    19  H    6.147607   6.876694   6.081023   4.207060   2.657736
    20  O    4.955333   5.887454   5.065642   4.408736   2.073987
    21  H    4.892119   5.833984   5.147611   5.034219   2.406699
    22  O    3.192450   4.106577   3.697152   4.760141   2.755326
    23  H    2.823082   3.713608   3.396467   5.052805   3.606202
    24  O    3.315078   2.835455   3.261343   3.631603   5.071018
    25  H    4.113904   4.356104   3.350729   1.498831   5.125022
    26  H    2.537158   2.406950   2.729957   3.145623   3.652875
    27  H    4.176109   3.631753   4.209557   4.288369   5.426425
    28  O    4.453877   4.445566   3.750362   2.514615   5.839170
    29  H    3.644093   3.382546   3.271669   2.998825   5.277666
    30  H    4.572728   4.540759   3.743427   2.954829   6.511000
                   16         17         18         19         20
    16  O    0.000000
    17  H    0.968287   0.000000
    18  O    6.455625   7.224672   0.000000
    19  H    6.808260   7.607722   0.971051   0.000000
    20  O    5.113702   5.919217   2.937740   2.545394   0.000000
    21  H    4.795175   5.610205   3.847638   3.461058   0.973226
    22  O    2.825637   3.681268   4.812311   4.807767   2.626906
    23  H    2.073525   2.860269   5.627959   5.699370   3.541932
    24  O    4.719935   5.073666   5.563037   6.422661   6.537330
    25  H    5.384821   5.658352   4.492395   5.372614   5.814882
    26  H    3.900306   4.488020   4.518625   5.284399   5.183916
    27  H    5.558211   5.953654   5.808301   6.688524   7.061461
    28  O    5.792854   5.992033   5.309673   6.229192   6.728213
    29  H    5.065028   5.354314   5.336199   6.241886   6.528101
    30  H    5.816773   5.858831   6.077889   6.962289   7.250946
                   21         22         23         24         25
    21  H    0.000000
    22  O    2.063406   0.000000
    23  H    2.970637   0.973792   0.000000
    24  O    6.871383   5.797546   5.817032   0.000000
    25  H    6.413547   5.910782   6.084509   2.910083   0.000000
    26  H    5.474151   4.459522   4.598714   1.459619   3.074427
    27  H    7.431148   6.467984   6.555399   0.969466   3.482346
    28  O    7.291492   6.634838   6.736675   2.542796   1.035014
    29  H    6.966864   6.059327   6.116837   1.038686   1.988806
    30  H    7.760996   6.970796   6.956949   3.031445   1.593510
                   26         27         28         29         30
    26  H    0.000000
    27  H    2.016563   0.000000
    28  O    3.196287   2.995917   0.000000
    29  H    1.989544   1.612275   1.505240   0.000000
    30  H    3.787929   3.588793   0.968886   2.066152   0.000000
 Stoichiometry    C6H16O8
 Framework group  C1[X(C6H16O8)]
 Deg. of freedom    84
 Full point group                 C1      NOp   1
 Largest Abelian subgroup         C1      NOp   1
 Largest concise Abelian subgroup C1      NOp   1
                         Standard orientation:                         
 ---------------------------------------------------------------------
 Center     Atomic      Atomic             Coordinates (Angstroms)
 Number     Number       Type             X           Y           Z
 ---------------------------------------------------------------------
      1          1           0        0.538286    1.825637    1.489343
      2          6           0        0.124885    1.284480    0.627930
      3          6           0        1.828663   -0.615650    0.297484
      4          6           0       -0.536491   -1.619880   -0.248843
      5          6           0        0.985319   -1.801166   -0.211258
      6          8           0       -0.648607    0.204730    1.154171
      7          6           0        1.330551    0.752605   -0.185745
      8          1           0       -1.061332   -2.262940    0.477238
      9          1           0        1.270548   -1.958675   -1.261579
     10          1           0        1.069061    0.660110   -1.250106
     11          6           0       -0.715090    2.253501   -0.205259
     12          1           0       -1.543746    2.658764    0.390894
[...]
 0.00003575,-0.00010749,-0.00008303,-0.00196967,-0.00021886,0.00043335,
 0.00023571,0.00029702,-0.00012947,0.00035693,0.00017869,0.00020000,-0.
 00001920,-0.00014962,-0.00010643,0.00040874,0.00072553,0.00023563,0.00
 009688,-0.00027104,0.00006771,0.00006626,0.00105427,0.00014448,0.00038
 174,-0.00072524,-0.00029740,0.05586970,0.39255991,-0.00094860,-0.00064
 720,0.00096250,0.00208260,0.00194247,-0.00506956,0.00033847,-0.0002036
 5,-0.00058182,-0.00156035,0.00040225,-0.00099895,0.00006106,0.00040805
 ,0.00019381,-0.01332225,-0.00191916,0.00216807,-0.00129853,-0.00128575
 ,-0.00113013,0.00007848,-0.00015234,0.00007823,-0.00000917,-0.00000919
 ,0.00007177,0.00023879,0.00028743,0.00048615,-0.00075171,0.00055413,-0
 .00056218,0.00026754,0.00034615,0.00032859,0.00051880,-0.00027034,-0.0
 0013376,0.00220658,-0.00078892,0.00063242,0.00014015,-0.00037696,0.000
 09321,-0.00006370,-0.00044121,0.00094378,-0.00015854,-0.00018661,-0.00
 011752,0.00014242,0.00016738,0.00027629,0.00005754,-0.00014745,-0.0001
 3666,0.00008535,0.00035063,0.00045769,0.00003175,-0.00010415,-0.000074
 74,0.00000378,0.00053643,0.00110140,0.00003218,-0.00010345,-0.00042168
 ,-0.20889389,0.20844105,0.33496703,-0.00010291,0.00000828,0.00008991,0
 .00075701,-0.00006524,-0.00086578,0.00017054,-0.00236957,-0.00225741,-
 0.00928506,0.00648126,-0.00867808,0.00032787,0.00240823,0.00315116,-0.
 00159578,0.00039784,0.00015539,-0.00023922,-0.00049395,0.00045794,0.00
 086050,-0.00172964,0.00023479,0.00004411,-0.00033098,-0.00000787,0.000
 15618,-0.00042381,0.00001522,0.00033731,0.00002682,0.00032713,-0.00008
 386,0.00018004,0.00001852,0.00001629,0.00003632,-0.00017771,0.00281400
 ,-0.00739495,0.00483914,-0.00001055,-0.00013728,-0.00001621,-0.0003319
 4,0.00022666,0.00013923,0.00001675,0.00000069,0.00002727,0.00167337,-0
 .00007048,0.00074412,-0.00007270,-0.00019367,-0.00030860,0.00138476,0.
 00161321,0.00092005,-0.00005643,-0.00043077,0.00021158,0.00005053,0.00
 111571,-0.00017025,0.00016948,-0.00055792,-0.00008624,-0.00332269,-0.0
 0429708,-0.00285329,0.38216249,0.00006907,0.00006207,0.00002423,-0.000
 23479,-0.00017932,0.00023690,0.00001465,0.00052895,0.00028165,0.002903
 48,-0.00156478,0.00178630,-0.00045990,0.00056913,0.00016676,0.00059109
 ,0.00014643,0.00018289,-0.00068252,-0.00018252,-0.00024718,0.00043793,
 0.00039940,-0.00009986,-0.00005149,-0.00002578,0.00003102,-0.00004701,
 0.00007258,0.00015045,-0.00023541,-0.00015105,-0.00010666,0.00003777,-
 0.00000759,0.00002736,0.00003361,-0.00005810,0.00006904,-0.00549730,-0
 .00391928,-0.00110461,-0.00002701,0.00003707,-0.00004018,0.00020467,0.
 00013491,-0.00005727,-0.00003449,-0.00005605,-0.00001522,-0.00036534,-
 0.00036118,-0.00022638,-0.00004475,0.00020079,0.00009037,0.00008284,-0
 .00042191,-0.00007834,-0.00008925,0.00015420,-0.00005331,0.00043129,-0
 .00006101,-0.00008992,-0.00006410,0.00001958,0.00002695,-0.00182066,0.
 00055428,0.00082478,-0.16056031,0.09048296,0.00003884,0.00002164,-0.00
 002690,-0.00031797,-0.00017128,0.00024255,-0.00004901,0.00018187,0.000
 31168,-0.00290896,-0.00158476,0.00103377,-0.00034063,0.00091790,0.0003
 7626,0.00034685,0.00037407,-0.00011485,-0.00005065,-0.00000842,0.00003
 426,-0.00030683,0.00008709,-0.00070302,0.00001354,-0.00004724,0.000005
 95,-0.00000210,0.00002838,0.00010224,0.00000133,-0.00006145,0.00003477
 ,0.00000430,-0.00001830,-0.00001062,-0.00001377,-0.00000314,0.00001275
 ,0.00305204,0.00122433,-0.00657508,-0.00002998,0.00000716,-0.00010574,
 0.00005578,0.00006175,-0.00011058,0.00000768,0.00001645,0.00001924,-0.
 00039833,-0.00010176,-0.00028535,-0.00006856,0.00011257,0.00009348,0.0
 0004638,-0.00007088,-0.00011264,0.00001337,0.00002063,0.00001259,0.000
 09041,0.00000187,-0.00017879,0.00000643,0.00002570,0.00005518,-0.00121
 886,0.00006841,-0.00065976,-0.04864881,0.02265357,0.07285548,0.0004242
 8,-0.00050137,0.00255661,-0.03164475,-0.00814596,-0.00727320,-0.001014
 13,0.00114904,0.00060588,0.00194093,0.00036872,0.00063260,-0.00029072,
 -0.00033160,-0.00017761,-0.29273235,-0.04638487,-0.14960367,-0.0002622
 5,0.00173662,0.00025290,-0.00007253,0.00000762,0.00009800,-0.00000655,
 -0.00000763,-0.00003983,0.00006869,0.00041007,0.00058754,0.00390558,-0
 .00176095,0.00026393,0.00009961,-0.00005209,0.00021933,0.00036131,-0.0
 0022050,-0.00059007,-0.00219629,0.00021689,-0.00043841,-0.00059600,0.0
 0090618,-0.00016245,-0.00045800,0.00243053,-0.00150473,0.00043193,0.00
 037389,-0.00014322,0.00018825,-0.00074401,-0.00029065,-0.00019725,0.00
 038732,0.00015815,0.00068017,-0.00080365,-0.00034687,-0.00034111,0.000
 28818,-0.00009357,0.00230833,-0.00030519,-0.00233049,-0.00010734,-0.00
 053616,0.00053876,-0.00099438,0.00456166,0.00844676,0.00194711,-0.0007
 7688,-0.00019924,0.32134397,-0.00216435,-0.00122575,0.00246907,-0.0196
 7083,-0.00601987,-0.00882329,0.00071180,-0.00014978,-0.00032156,0.0010
 4261,-0.00028045,0.00006801,0.00019922,-0.00030420,-0.00018670,-0.0318
 7623,-0.02355269,-0.00162787,0.00242538,0.00177716,0.00094333,-0.00002
 361,-0.00006806,0.00000550,-0.00004205,0.00001939,0.00000368,-0.000181
 38,0.00025421,-0.00042381,-0.00369346,-0.00096664,-0.00088350,0.000089
 79,-0.00049863,-0.00018193,0.00031854,-0.00047765,0.00112769,-0.000668
 30,0.00042782,0.00017093,0.00032566,0.00023329,0.00032266,0.00181371,0
 .00088305,-0.00096933,0.00019623,-0.00013784,0.00016135,-0.00020277,-0
 .00000601,-0.00004281,0.00003873,0.00004252,0.00003850,-0.00049901,-0.
 00042421,0.00000602,-0.00007529,0.00015358,-0.00005349,-0.00023717,-0.
 00111993,-0.00027354,-0.00047510,0.00074311,0.00022107,0.00520164,-0.0
 0999575,0.00042023,-0.00018400,-0.00032488,-0.00045411,0.05083939,0.03
 896209,0.00383691,0.00239815,-0.00262641,0.02749999,0.00400794,0.01445
 689,0.00004787,-0.00000594,0.00027705,0.00106803,-0.00035550,0.0005122
 3,0.00005275,-0.00033139,-0.00012458,-0.19116038,-0.01650601,-0.160532
 25,0.00358088,0.00242056,0.00229360,-0.00004278,0.00005659,-0.00005788
 ,0.00000746,-0.00000504,-0.00005214,-0.00046061,-0.00067733,-0.0014656
 9,0.00271370,0.00015357,0.00181135,-0.00023900,-0.00035508,-0.00027216
 ,-0.00049487,0.00084713,-0.00106970,-0.00105150,0.00059110,-0.00019692
 ,-0.00024921,0.00038092,-0.00003285,-0.00071572,0.00043196,-0.00104896
 ,0.00015028,0.00029191,-0.00005242,-0.00012900,-0.00006702,-0.00016120
 ,-0.00002062,0.00009554,0.00008253,-0.00026721,-0.00030201,-0.00045156
 ,-0.00004139,0.00013320,0.00012898,-0.00062821,-0.00093531,-0.00150502
 ,-0.00001835,0.00004950,0.00048154,0.00073404,-0.00004796,-0.00797432,
 0.00051513,-0.00058697,-0.00006359,0.15116306,0.00875680,0.15530305,0.
 00008918,0.00003450,-0.00010393,-0.00034112,-0.00030314,0.00072956,-0.
 00008087,-0.00003988,0.00005208,0.00005496,-0.00000602,0.00006174,-0.0
 0002163,-0.00000855,0.00000633,0.00105379,-0.00014368,-0.00234126,0.00
 045022,0.00031660,0.00030249,-0.00000447,0.00001426,-0.00000445,0.0000
 0666,-0.00000444,-0.00001227,-0.00019394,-0.00005579,-0.00013629,0.000
 15039,-0.00010651,0.00040930,-0.00008181,-0.00013067,-0.00014078,-0.00
 019648,-0.00000349,-0.00008169,-0.00006218,0.00001500,-0.00006862,-0.0
 0004264,0.00007432,-0.00001843,0.00009900,0.00010252,-0.00028146,0.000
 01647,0.00001463,0.00003212,0.00003044,-0.00004587,-0.00003390,-0.0000
 2087,0.00002688,0.00001845,0.00003293,-0.00002172,-0.00007198,-0.00001
 390,0.00000842,0.00001711,-0.00001998,-0.00013131,-0.00023063,-0.00003
 431,0.00003247,0.00008060,-0.27179594,0.05438939,0.24753560,0.00008201
 ,0.00021879,0.00017569,-0.00397654,0.00082499,0.00444161,0.26927155,-0
 .00004876,-0.00006713,0.00002396,0.00027712,0.00030852,-0.00014016,0.0
 0007983,0.00002057,-0.00002605,0.00020692,-0.00000037,0.00000522,0.000
 02528,-0.00009132,-0.00003647,-0.00060059,-0.00080306,-0.00027213,0.00
 022582,0.00011299,0.00006359,0.00000617,-0.00001839,0.00001725,-0.0000
 1070,0.00000717,0.00000893,0.00006001,-0.00009132,-0.00011448,-0.00012
 147,-0.00002262,0.00036122,-0.00016342,-0.00014944,-0.00023020,0.00002
 668,0.00046640,0.00000976,-0.00027779,0.00000632,0.00002522,0.00001660
 ,-0.00000294,0.00001766,0.00013498,-0.00022129,-0.00013344,-0.00005797
 ,0.00001464,0.00006054,-0.00006987,0.00001090,0.00000049,0.00002262,0.
 00000097,0.00000104,-0.00012956,-0.00005979,-0.00002122,0.00001509,0.0
 0002826,-0.00000690,-0.00011697,-0.00017998,0.00008332,-0.00003578,0.0
 0015516,0.00002291,0.01467703,-0.04650102,-0.04360874,0.00035795,0.000
 44785,0.00010796,0.00167021,0.00089381,0.00080019,-0.04864190,0.050941
 27,-0.00000830,0.00000793,-0.00002992,0.00000316,-0.00008386,0.0002158
 5,-0.00000188,0.00001287,0.00008446,0.00016430,-0.00009671,0.00013921,
 -0.00000122,-0.00004560,-0.00002539,-0.00078165,-0.00051181,-0.0022212
 7,0.00015677,0.00010554,0.00009303,-0.00000475,0.00002528,-0.00000971,
 0.00000092,0.00000200,-0.00001021,0.00000389,-0.00000412,-0.00011394,0
 .00005561,0.00007369,0.00016419,-0.00000790,-0.00005848,-0.00001684,0.
 00010533,0.00004360,-0.00012123,-0.00027350,0.00010746,-0.00006122,-0.
 00000982,0.00002112,0.00000090,-0.00000241,0.00002549,-0.00011650,0.00
 003949,0.00002187,0.00002351,-0.00002652,0.00000679,-0.00003949,-0.000
 00369,0.00000588,0.00002080,-0.00002798,-0.00001559,-0.00005243,0.0000
 0644,-0.00000099,0.00001228,-0.00002218,-0.00003034,-0.00009905,0.0000
 0196,-0.00000417,0.00002877,0.22505345,-0.07608702,-0.23665287,0.00037
 466,0.00008847,0.00013022,-0.00009206,0.00133477,0.00413488,-0.2423626
 2,0.07279959,0.24787168,-0.00001831,-0.00006460,-0.00006181,-0.0001894
 3,0.00025059,0.00029656,-0.00001897,0.00127732,0.00129651,0.00385568,-
 0.00436568,0.00550062,0.00008768,-0.00143706,-0.00202850,0.00033028,-0
 .00047102,-0.00024866,0.00066688,0.00046179,-0.00016420,-0.00040203,0.
 00098108,-0.00015389,0.00000599,0.00020906,0.00001113,-0.00010265,0.00
 020777,-0.00012253,0.00001709,0.00016043,-0.00012669,0.00002604,-0.000
 11885,-0.00004171,-0.00002958,0.00004213,0.00002714,-0.01733497,0.0077
 5918,-0.00107698,0.00003417,0.00004821,0.00002990,0.00000213,-0.000356
 72,-0.00000429,0.00001201,0.00005853,-0.00001460,-0.00114310,0.0001936
 6,-0.00045202,0.00007862,0.00005350,0.00017135,-0.00102556,-0.00084769
 ,-0.00058093,0.00012110,0.00021021,-0.00010093,-0.00036663,-0.00076668
 ,0.00023824,-0.00006175,0.00040150,0.00001834,0.00663219,-0.00372427,-
 0.00167171,-0.36821898,0.15145411,0.09362214,-0.00016144,0.00047808,0.
 00030768,-0.00119960,-0.00189077,-0.00137177,0.48441812,-0.00027549,-0
 .00009917,0.00005868,0.00100845,0.00030851,-0.00093503,0.00009960,-0.0
 0106309,-0.00059629,-0.00242707,0.00130032,-0.00204031,0.00029633,0.00
 027296,0.00050735,-0.00285746,0.00012056,-0.00061718,0.00075522,0.0000
 3016,0.00019121,-0.00013774,-0.00031342,-0.00014594,0.00005322,-0.0000
 5836,-0.00003905,0.00002329,-0.00024343,-0.00017831,0.00089806,0.00044
 187,0.00034371,-0.00008685,0.00008514,-0.00002850,-0.00002258,0.000157
 82,-0.00037872,0.00739812,0.00125411,0.00123576,0.00004895,-0.00013152
 ,0.00002624,-0.00077835,-0.00037193,0.00030022,0.00010139,0.00014886,-
 0.00000371,0.00036036,0.00045245,0.00029217,0.00005785,-0.00026846,-0.
 00014361,0.00001912,0.00087012,0.00022169,0.00018368,-0.00030300,0.000
 10386,-0.00064360,0.00040736,0.00028216,0.00021607,-0.00020929,-0.0001
 6975,-0.00575175,-0.01618950,-0.01448480,0.15436332,-0.07938868,-0.043
 79022,0.00412744,-0.00032095,0.00191381,-0.00133251,-0.00188888,0.0001
 1115,-0.20237825,0.12857161,-0.00013427,-0.00004067,0.00007745,0.00073
 139,0.00025898,-0.00060440,0.00014007,-0.00033819,-0.00040318,0.000345
 05,0.00112325,-0.00119397,0.00013715,-0.00015468,0.00001890,-0.0013992
 4,-0.00028807,0.00002665,-0.00000935,-0.00008917,-0.00011716,0.0001894
 4,-0.00019931,0.00029731,-0.00002679,-0.00002342,0.00001188,-0.0000113
 3,-0.00006835,-0.00009790,0.00024892,0.00018052,0.00003563,-0.00001431
 ,0.00006238,0.00002420,0.00003595,0.00004870,-0.00016564,0.00268914,-0
 .00159807,0.00440293,0.00004857,-0.00006205,0.00008007,-0.00029912,-0.
 00017134,0.00025683,0.00000578,0.00000620,-0.00004585,0.00026152,0.000
 10616,0.00026017,0.00004696,-0.00010380,-0.00010015,0.00001745,0.00024
 049,0.00019458,0.00001951,-0.00007424,-0.00000293,-0.00015443,0.000139
 57,0.00029690,0.00004494,-0.00010333,-0.00013486,-0.00277621,-0.012572
 74,-0.00200823,0.03855741,-0.01788321,-0.07104205,0.00181667,0.0002908
 1,0.00062562,-0.00059642,0.00035856,0.00018665,0.07756264,-0.04037104,
 0.50421214,-0.00001582,0.00009424,0.00010300,0.00002744,-0.00034727,-0
 .00013268,-0.00025332,0.00015521,0.00003086,-0.00073380,0.00030632,-0.
 00016957,-0.00015454,0.00020995,0.00000257,-0.00163887,0.00152964,-0.0
 0054570,-0.00111535,-0.00053374,-0.00033680,0.00003694,0.00005358,0.00
 015178,0.00001682,0.00000117,0.00000487,-0.00001775,-0.00003500,0.0004
 2045,0.00015908,-0.00018993,0.00024559,0.00002267,0.00006821,0.0000284
 0,-0.00007578,-0.00005239,-0.00017775,-0.00015012,-0.00079239,-0.00023
 070,-0.00003535,0.00000612,-0.00006760,-0.00009681,0.00019588,-0.00004
 233,-0.00000410,-0.00001211,-0.00000369,0.00017287,-0.00020490,-0.0000
 1103,-0.00006362,0.00007652,0.00000586,0.00036950,-0.00008645,0.000073
 01,-0.00009876,0.00003282,-0.00002667,0.00059683,0.00041677,-0.0001856
 9,0.00003749,-0.00022123,-0.00000501,-0.06932727,-0.10502040,-0.031446
 58,0.00443651,0.00577983,0.00337426,0.00149740,-0.00445917,-0.00044290
 ,0.00646699,0.03438592,0.01879149,-0.01231174,0.00091664,-0.00204634,0
 .07262557,0.00039675,0.00012625,-0.00016077,-0.00166124,-0.00050592,0.
 00144685,-0.00004110,0.00118603,0.00067724,0.00302721,-0.00053860,0.00
 151233,-0.00013151,-0.00081797,-0.00059641,0.00578511,-0.00033100,0.00
 130143,-0.00034763,0.00024356,0.00002783,-0.00007105,0.00015063,0.0000
 5315,-0.00006839,0.00008608,0.00001244,-0.00003876,0.00036142,0.000155
 23,-0.00100109,-0.00052790,-0.00023737,0.00009668,-0.00014636,-0.00001
 100,-0.00015552,-0.00031603,0.00044316,-0.00468078,0.00087684,-0.00045
 951,-0.00005114,0.00019153,0.00000906,0.00092780,0.00043551,-0.0004884
 1,-0.00009143,-0.00013521,0.00003558,-0.00036818,-0.00033358,-0.000306
 89,-0.00003093,0.00023922,0.00016362,-0.00017995,-0.00096516,-0.000304
 66,-0.00017576,0.00032573,-0.00009365,0.00054382,-0.00062884,-0.000438
 91,-0.00025600,0.00031773,0.00026812,-0.06529303,-0.32144382,-0.151238
 71,0.00655088,-0.00427817,-0.00095070,-0.00862538,0.00140117,-0.002986
 45,-0.00498114,-0.00347233,0.00240025,0.00279327,-0.00151246,0.0044590
 3,0.06980823,0.32488386,0.00024917,0.00005273,-0.00012759,-0.00139267,
 -0.00029797,0.00106211,-0.00023118,0.00049149,0.00051629,0.00159487,-0
 .00043386,0.00114757,-0.00010595,-0.00042743,-0.00025043,0.00221561,0.
 00083025,0.00007012,0.00013745,0.00027302,0.00028060,-0.00008865,0.000
 19184,-0.00009422,-0.00000358,0.00004311,-0.00003307,0.00008964,0.0000
 9532,0.00009494,-0.00047207,-0.00032563,-0.00028661,0.00001703,-0.0001
 1375,-0.00002919,-0.00029251,-0.00023876,0.00059076,-0.00279930,0.0007
 0712,-0.00077145,-0.00007602,0.00014934,-0.00006791,0.00063357,0.00035
 121,-0.00043050,-0.00001714,-0.00003964,0.00007631,-0.00019956,-0.0001
 4877,-0.00024824,-0.00003606,0.00012660,0.00011498,-0.00007001,-0.0004
 1216,-0.00028141,-0.00005000,0.00013023,-0.00000920,0.00020008,-0.0003
 2575,-0.00043105,-0.00010390,0.00020782,0.00023272,-0.00401737,-0.1177
 4033,-0.08748668,0.00461467,-0.00231170,0.00069089,-0.00375755,-0.0021
 1491,-0.00227367,-0.00725592,-0.03024676,-0.01337629,-0.00010653,0.011
 07112,-0.00499440,0.01347515,0.14520996,0.10971353,0.00001684,0.000025
 22,0.00002619,0.00004093,-0.00006999,-0.00004107,-0.00007531,-0.000127
 12,-0.00018595,-0.00061186,0.00028698,-0.00037578,-0.00002910,0.000110
 98,-0.00003799,0.00005515,0.00008547,0.00012107,-0.00028634,-0.0001472
 2,-0.00003868,0.00009102,-0.00006274,0.00018914,0.00000600,-0.00001115
 ,0.00001422,0.00004421,-0.00001684,0.00000982,-0.00007803,-0.00007323,
 -0.00002255,0.00000787,0.00003070,0.00002714,0.00002289,-0.00003185,0.
 00000844,0.00009995,-0.00041206,0.00160028,-0.00000539,-0.00000494,0.0
 0000381,0.00004798,0.00012419,0.00001880,-0.00001443,-0.00004301,-0.00
 001101,0.00023209,-0.00008840,0.00010133,-0.00003125,0.00000507,-0.000
 03923,0.00021184,0.00006604,0.00010801,-0.00005873,-0.00001117,-0.0000
 0683,0.00017291,0.00015606,-0.00001481,-0.00001319,-0.00010341,-0.0000
 1937,-0.00021121,0.00082782,0.00071046,-0.01408670,0.00873206,-0.04629
 534,-0.00014589,-0.00005305,-0.00015763,0.00028170,-0.00002268,0.00024
 079,-0.09370325,0.04576453,-0.11543075,-0.00037309,-0.00167973,-0.0021
 5126,0.10839242,0.00002214,0.00000354,0.00001585,-0.00001067,0.0000251
 5,0.00002374,0.00001045,0.00016482,0.00004246,0.00004599,0.00011118,-0
 .00000414,-0.00005195,0.00002846,0.00002802,0.00018720,-0.00007236,0.0
 0010636,-0.00017797,-0.00004412,-0.00006634,0.00001256,-0.00004902,0.0
 0003556,-0.00001803,0.00000270,0.00001342,0.00000983,0.00005154,0.0000
 0870,-0.00016422,-0.00006563,-0.00007708,0.00002422,0.00000126,0.00001
 891,0.00002625,-0.00001537,0.00002429,0.00020729,-0.00026681,-0.000696
 54,-0.00000168,0.00000387,0.00000322,0.00011497,0.00004214,0.00001259,
 -0.00003944,-0.00004557,-0.00002228,-0.00000162,-0.00009845,-0.0000272
 5,-0.00001102,0.00004681,0.00001992,0.00003915,-0.00013659,0.00000265,
 -0.00004513,0.00005503,-0.00002355,0.00012538,-0.00006236,0.00001291,-
 0.00005510,0.00002942,-0.00000148,0.00063008,-0.00333186,0.00128767,0.
 00547243,-0.00282988,0.02135093,-0.00027752,0.00008209,-0.00016686,-0.
 00011617,0.00015505,-0.00025507,0.04938116,-0.03205972,0.06686702,-0.0
 0208207,0.00512776,-0.00475373,-0.05325652,0.03314691,0.00001982,0.000
 00724,-0.00000483,-0.00007191,-0.00003195,0.00005485,0.00000393,-0.000
 02491,-0.00005125,-0.00026024,0.00015268,-0.00015188,-0.00000112,0.000
 08507,0.00015695,0.00021919,0.00002015,0.00005259,-0.00005988,-0.00002
 724,0.00003431,0.00000277,-0.00004055,-0.00000722,0.00001243,-0.000002
 36,-0.00000251,-0.00000193,-0.00000096,0.00002212,-0.00006863,-0.00004
 059,0.00000857,0.00000375,-0.00000258,-0.00000358,-0.00000471,-0.00001
 246,0.00002491,0.00107126,-0.00016381,-0.00040261,-0.00000512,0.000003
 61,-0.00000775,0.00006041,0.00004007,-0.00004710,-0.00000725,-0.000004
 05,0.00001422,0.00004546,-0.00002043,-0.00001295,-0.00000684,0.0000094
 4,0.00000398,0.00005843,0.00001417,0.00001320,-0.00001228,0.00000021,0
 .00001051,0.00005193,0.00002277,-0.00007447,-0.00000614,0.00000064,0.0
 0002908,0.00064035,0.00008860,0.00124794,0.00867695,-0.00373993,0.0039
 7769,-0.00029657,0.00001644,-0.00014640,-0.00012203,0.00006914,-0.0001
 6010,-0.17075449,0.08726333,-0.43009718,-0.00083626,0.00009816,-0.0033
 9892,0.16164873,-0.08377990,0.42891779\\0.00000411,-0.00001087,0.00000
 080,-0.00000426,-0.00000322,-0.00000257,0.00001003,-0.00001175,-0.0000
 1286,0.00001793,-0.00001629,0.00002053,0.00001392,0.00002681,-0.000002
 21,-0.00000346,0.00000147,0.00001891,-0.00000657,-0.00001119,-0.000001
 03,-0.00000548,0.00000238,-0.00000322,-0.00000369,-0.00000329,0.000000
 98,0.00000439,0.00000113,-0.00000124,0.00001138,0.00000949,0.00000383,
 -0.00000086,-0.00000461,0.00000127,-0.00000171,0.00000076,0.00000075,-
 0.00001953,0.00001466,-0.00001817,-0.00000494,-0.00000099,0.00000545,-
 0.00000024,-0.00000824,0.00000509,0.00000210,0.00000178,0.00000509,-0.
 00000048,-0.00000074,-0.00000450,0.00000009,-0.00000238,0.00000421,0.0
 0000269,-0.00000085,0.00000620,-0.00000411,-0.00000619,0.00000773,0.00
 001011,0.00000747,-0.00001181,-0.00000475,-0.00000109,0.00000897,0.000
 01903,-0.00000649,0.00002238,-0.00002748,-0.00000201,-0.00001101,-0.00
 000749,0.00000180,-0.00002432,-0.00001262,0.00000328,-0.00001092,0.000
 02022,0.00000408,0.00000623,-0.00000851,0.00000840,-0.00000646,0.00000
 019,0.00000667,-0.00000813\\\@


 GROWING OLD ISN'T SO BAD -- WHEN YOU CONSIDER THE ALTERNATIVE.

                     -- MAURICE CHEVALIER
 Job cpu time:       0 days  0 hours 31 minutes 51.7 seconds.
 File lengths (MBytes):  RWF=    220 Int=      0 D2E=      0 Chk=      6 Scr=      1
 Normal termination of Gaussian 09 at Sun Jan 15 13:42:46 2017.
