 Entering Gaussian System, Link 0=g09
 Initial command:
 /global/software/gaussian/g09.e01/l1.exe "/scratch/10462945.yak.local/Gau-11228.inp" -scrdir="/scratch/10462945.yak.local/"
 Entering Link 1 = /global/software/gaussian/g09.e01/l1.exe PID=     11229.
  
 Copyright (c) 1988,1990,1992,1993,1995,1998,2003,2009,2015,
            Gaussian, Inc.  All Rights Reserved.
  
 This is part of the Gaussian(R) 09 program.  It is based on
 the Gaussian(R) 03 system (copyright 2003, Gaussian, Inc.),
 the Gaussian(R) 98 system (copyright 1998, Gaussian, Inc.),
 the Gaussian(R) 94 system (copyright 1995, Gaussian, Inc.),
 the Gaussian 92(TM) system (copyright 1992, Gaussian, Inc.),
 the Gaussian 90(TM) system (copyright 1990, Gaussian, Inc.),
 the Gaussian 88(TM) system (copyright 1988, Gaussian, Inc.),
 the Gaussian 86(TM) system (copyright 1986, Carnegie Mellon
 University), and the Gaussian 82(TM) system (copyright 1983,
 Carnegie Mellon University). Gaussian is a federally registered
 trademark of Gaussian, Inc.
  
 This software contains proprietary and confidential information,
 including trade secrets, belonging to Gaussian, Inc.
  
 This software is provided under written license and may be
 used, copied, transmitted, or stored only in accord with that
 written license.
  
 The following legend is applicable only to US Government
 contracts under FAR:
  
                    RESTRICTED RIGHTS LEGEND
  
 Use, reproduction and disclosure by the US Government is
 subject to restrictions as set forth in subparagraphs (a)
 and (c) of the Commercial Computer Software - Restricted
 Rights clause in FAR 52.227-19.
  
 Gaussian, Inc.
 340 Quinnipiac St., Bldg. 40, Wallingford CT 06492
  
  
 ---------------------------------------------------------------
 Warning -- This program may not be used in any manner that
 competes with the business of Gaussian, Inc. or will provide
 assistance to any competitor of Gaussian, Inc.  The licensee
 of this program is prohibited from giving any competitor of
 Gaussian, Inc. access to this program.  By using this program,
 the user acknowledges that Gaussian, Inc. is engaged in the
 business of creating and licensing software in the field of
 computational chemistry and represents and warrants to the
 licensee that it is not a competitor of Gaussian, Inc. and that
 it will not use this program in any manner prohibited above.
 ---------------------------------------------------------------
  

 Cite this work as:
 Gaussian 09, Revision E.01,
 M. J. Frisch, G. W. Trucks, H. B. Schlegel, G. E. Scuseria, 
 M. A. Robb, J. R. Cheeseman, G. Scalmani, V. Barone, B. Mennucci, 
 G. A. Petersson, H. Nakatsuji, M. Caricato, X. Li, H. P. Hratchian, 
 A. F. Izmaylov, J. Bloino, G. Zheng, J. L. Sonnenberg, M. Hada, 
 M. Ehara, K. Toyota, R. Fukuda, J. Hasegawa, M. Ishida, T. Nakajima, 
 Y. Honda, O. Kitao, H. Nakai, T. Vreven, J. A. Montgomery, Jr., 
 J. E. Peralta, F. Ogliaro, M. Bearpark, J. J. Heyd, E. Brothers, 
 K. N. Kudin, V. N. Staroverov, T. Keith, R. Kobayashi, J. Normand, 
 K. Raghavachari, A. Rendell, J. C. Burant, S. S. Iyengar, J. Tomasi, 
 M. Cossi, N. Rega, J. M. Millam, M. Klene, J. E. Knox, J. B. Cross, 
 V. Bakken, C. Adamo, J. Jaramillo, R. Gomperts, R. E. Stratmann, 
 O. Yazyev, A. J. Austin, R. Cammi, C. Pomelli, J. W. Ochterski, 
 R. L. Martin, K. Morokuma, V. G. Zakrzewski, G. A. Voth, 
 P. Salvador, J. J. Dannenberg, S. Dapprich, A. D. Daniels, 
 O. Farkas, J. B. Foresman, J. V. Ortiz, J. Cioslowski, 
 and D. J. Fox, Gaussian, Inc., Wallingford CT, 2013.
 
 ******************************************
 Gaussian 09:  ES64L-G09RevE.01 30-Nov-2015
                15-Jan-2017 
 ******************************************
 %NPROCS=4
 Will use up to    4 processors via shared memory.
 -----------------------------------------
 # opt=(MaxCycle=1000) freq B3LYP/6-31G(d)
 -----------------------------------------
 1/6=1000,14=-1,18=20,19=15,26=3,38=1/1,3;
 2/9=110,12=2,17=6,18=5,40=1/2;
 3/5=1,6=6,7=1,11=2,16=1,25=1,30=1,71=1,74=-5/1,2,3;
 4//1;
 5/5=2,38=5/2;
 6/7=2,8=2,9=2,10=2,28=1/1;
 7//1,2,3,16;
 1/6=1000,14=-1,18=20,19=15,26=3/3(2);
 2/9=110/2;
 99//99;
 2/9=110/2;
 3/5=1,6=6,7=1,11=2,16=1,25=1,30=1,71=1,74=-5/1,2,3;
 4/5=5,16=3,69=1/1;
 5/5=2,38=5/2;
 7//1,2,3,16;
 1/6=1000,14=-1,18=20,19=15,26=3/3(-5);
 2/9=110/2;
 6/7=2,8=2,9=2,10=2,19=2,28=1/1;
 99/9=1/99;
 ----------------------------------------------
 ./boats/1/glo_2w_beta_ts_boat1_B3LYP_631Gd.out
 ----------------------------------------------
 Symbolic Z-matrix:
 Charge =  0 Multiplicity = 1
 H                     0.38737   1.57754   1.54606 
 C                     0.0589    1.1283    0.5993 
 C                     1.85647  -0.56009   0.25695 
 C                    -0.54317  -1.33721  -0.12355 
 C                     0.94826  -1.68633  -0.24321 
 O                    -0.63463  -0.08264   0.93737 
 C                     1.32566   0.79441  -0.20132 
 H                    -1.07611  -2.06937   0.49188 
 H                     1.16399  -1.83536  -1.31092 
 H                     1.09093   0.74049  -1.27604 
 C                    -0.83191   2.13167  -0.14377 
 H                    -1.7035    2.40237   0.46682 
 H                    -1.18467   1.67196  -1.07659 
 O                    -1.11932  -1.03144  -1.28751 
 H                     1.86286  -0.58738   1.35738 
 O                    -0.00817   3.27738  -0.40682 
 H                    -0.49234   3.87712  -0.99273 
 O                     1.16627  -2.88577   0.49074 
 H                     2.1182   -3.06917   0.42991 
 O                     3.1583   -0.80997  -0.25326 
 H                     3.64184   0.029    -0.15615 
 O                     2.3493    1.75456   0.02728 
 H                     1.97513   2.60864  -0.25384 
 O                    -3.04495   0.22385   1.2267 
 H                    -2.13677  -1.066    -1.18387 
 H                    -2.03278   0.11628   1.2112 
 H                    -3.36205  -0.25568   2.00648 
 O                    -3.52425  -1.0026   -0.83062 
 H                    -3.46944  -0.4579    0.02699 
 H                    -3.98634  -0.45411  -1.48128 
 
 Add virtual bond connecting atoms O28        and H25        Dist= 2.71D+00.
 Add virtual bond connecting atoms O24        and H29        Dist= 2.73D+00.
 Add virtual bond connecting atoms H26        and O6         Dist= 2.72D+00.

 GradGradGradGradGradGradGradGradGradGradGradGradGradGradGradGradGradGrad
 Berny optimization.
 Initialization pass.
                           ----------------------------
                           !    Initial Parameters    !
                           ! (Angstroms and Degrees)  !
 --------------------------                            --------------------------
 ! Name  Definition              Value          Derivative Info.                !
 --------------------------------------------------------------------------------
 ! R1    R(1,2)                  1.0982         estimate D2E/DX2                !
 ! R2    R(2,6)                  1.4358         estimate D2E/DX2                !
 ! R3    R(2,7)                  1.5353         estimate D2E/DX2                !
 ! R4    R(2,11)                 1.5338         estimate D2E/DX2                !
 ! R5    R(3,5)                  1.5308         estimate D2E/DX2                !
 ! R6    R(3,7)                  1.5253         estimate D2E/DX2                !
 ! R7    R(3,15)                 1.1008         estimate D2E/DX2                !
 ! R8    R(3,20)                 1.4204         estimate D2E/DX2                !
 ! R9    R(4,5)                  1.5364         estimate D2E/DX2                !
 ! R10   R(4,6)                  1.6456         estimate D2E/DX2                !
 ! R11   R(4,8)                  1.0949         estimate D2E/DX2                !
 ! R12   R(4,14)                 1.3343         estimate D2E/DX2                !
 ! R13   R(5,9)                  1.0994         estimate D2E/DX2                !
 ! R14   R(5,18)                 1.423          estimate D2E/DX2                !
 ! R15   R(6,26)                 1.4385         estimate D2E/DX2                !
 ! R16   R(7,10)                 1.1014         estimate D2E/DX2                !
 ! R17   R(7,22)                 1.422          estimate D2E/DX2                !
 ! R18   R(11,12)                1.0981         estimate D2E/DX2                !
 ! R19   R(11,13)                1.0981         estimate D2E/DX2                !
 ! R20   R(11,16)                1.4354         estimate D2E/DX2                !
 ! R21   R(14,25)                1.0233         estimate D2E/DX2                !
 ! R22   R(16,17)                0.9682         estimate D2E/DX2                !
 ! R23   R(18,19)                0.9713         estimate D2E/DX2                !
 ! R24   R(20,21)                0.9732         estimate D2E/DX2                !
 ! R25   R(22,23)                0.9739         estimate D2E/DX2                !
 ! R26   R(24,26)                1.018          estimate D2E/DX2                !
 ! R27   R(24,27)                0.9688         estimate D2E/DX2                !
 ! R28   R(24,29)                1.4437         estimate D2E/DX2                !
 ! R29   R(25,28)                1.4331         estimate D2E/DX2                !
 ! R30   R(28,29)                1.0174         estimate D2E/DX2                !
 ! R31   R(28,30)                0.9684         estimate D2E/DX2                !
 ! A1    A(1,2,6)              106.6472         estimate D2E/DX2                !
 ! A2    A(1,2,7)              106.9622         estimate D2E/DX2                !
 ! A3    A(1,2,11)             108.8911         estimate D2E/DX2                !
 ! A4    A(6,2,7)              109.7488         estimate D2E/DX2                !
 ! A5    A(6,2,11)             112.6595         estimate D2E/DX2                !
 ! A6    A(7,2,11)             111.644          estimate D2E/DX2                !
 ! A7    A(5,3,7)              110.4081         estimate D2E/DX2                !
 ! A8    A(5,3,15)             108.1692         estimate D2E/DX2                !
 ! A9    A(5,3,20)             107.2757         estimate D2E/DX2                !
 ! A10   A(7,3,15)             108.9287         estimate D2E/DX2                !
 ! A11   A(7,3,20)             111.5471         estimate D2E/DX2                !
 ! A12   A(15,3,20)            110.4509         estimate D2E/DX2                !
 ! A13   A(5,4,6)              106.1054         estimate D2E/DX2                !
 ! A14   A(5,4,8)              111.3657         estimate D2E/DX2                !
 ! A15   A(5,4,14)             113.7848         estimate D2E/DX2                !
 ! A16   A(6,4,8)               96.9136         estimate D2E/DX2                !
 ! A17   A(6,4,14)             111.3283         estimate D2E/DX2                !
 ! A18   A(8,4,14)             115.6836         estimate D2E/DX2                !
 ! A19   A(3,5,4)              112.5376         estimate D2E/DX2                !
 ! A20   A(3,5,9)              107.4943         estimate D2E/DX2                !
 ! A21   A(3,5,18)             111.1444         estimate D2E/DX2                !
 ! A22   A(4,5,9)              107.2722         estimate D2E/DX2                !
 ! A23   A(4,5,18)             107.4627         estimate D2E/DX2                !
 ! A24   A(9,5,18)             110.8904         estimate D2E/DX2                !
 ! A25   A(2,6,4)              117.6671         estimate D2E/DX2                !
 ! A26   A(2,6,26)             113.4314         estimate D2E/DX2                !
 ! A27   A(4,6,26)             106.3897         estimate D2E/DX2                !
 ! A28   A(2,7,3)              108.8801         estimate D2E/DX2                !
 ! A29   A(2,7,10)             110.0996         estimate D2E/DX2                !
 ! A30   A(2,7,22)             111.3019         estimate D2E/DX2                !
 ! A31   A(3,7,10)             108.8974         estimate D2E/DX2                !
 ! A32   A(3,7,22)             107.5058         estimate D2E/DX2                !
 ! A33   A(10,7,22)            110.0813         estimate D2E/DX2                !
 ! A34   A(2,11,12)            110.6637         estimate D2E/DX2                !
 ! A35   A(2,11,13)            108.9201         estimate D2E/DX2                !
 ! A36   A(2,11,16)            106.1192         estimate D2E/DX2                !
 ! A37   A(12,11,13)           108.6971         estimate D2E/DX2                !
 ! A38   A(12,11,16)           111.1395         estimate D2E/DX2                !
 ! A39   A(13,11,16)           111.2731         estimate D2E/DX2                !
 ! A40   A(4,14,25)            109.4663         estimate D2E/DX2                !
 ! A41   A(11,16,17)           108.5629         estimate D2E/DX2                !
 ! A42   A(5,18,19)            106.0809         estimate D2E/DX2                !
 ! A43   A(3,20,21)            105.5382         estimate D2E/DX2                !
 ! A44   A(7,22,23)            105.6151         estimate D2E/DX2                !
 ! A45   A(26,24,27)           106.5825         estimate D2E/DX2                !
 ! A46   A(26,24,29)           103.2851         estimate D2E/DX2                !
 ! A47   A(27,24,29)           109.8091         estimate D2E/DX2                !
 ! A48   A(25,28,29)           100.3286         estimate D2E/DX2                !
 ! A49   A(25,28,30)           108.7489         estimate D2E/DX2                !
 ! A50   A(29,28,30)           106.7882         estimate D2E/DX2                !
 ! A51   L(14,25,28,11,-1)     172.7562         estimate D2E/DX2                !
 ! A52   L(6,26,24,12,-1)      178.8546         estimate D2E/DX2                !
 ! A53   L(24,29,28,3,-1)      165.8904         estimate D2E/DX2                !
 ! A54   L(14,25,28,11,-2)     186.5694         estimate D2E/DX2                !
 ! A55   L(6,26,24,12,-2)      169.7504         estimate D2E/DX2                !
 ! A56   L(24,29,28,3,-2)      177.7417         estimate D2E/DX2                !
 ! D1    D(1,2,6,4)           -147.8006         estimate D2E/DX2                !
 ! D2    D(1,2,6,26)            87.1384         estimate D2E/DX2                !
 ! D3    D(7,2,6,4)            -32.2771         estimate D2E/DX2                !
 ! D4    D(7,2,6,26)          -157.3381         estimate D2E/DX2                !
 ! D5    D(11,2,6,4)            92.7909         estimate D2E/DX2                !
 ! D6    D(11,2,6,26)          -32.2701         estimate D2E/DX2                !
 ! D7    D(1,2,7,3)             84.0228         estimate D2E/DX2                !
 ! D8    D(1,2,7,10)          -156.6605         estimate D2E/DX2                !
 ! D9    D(1,2,7,22)           -34.3084         estimate D2E/DX2                !
 ! D10   D(6,2,7,3)            -31.3006         estimate D2E/DX2                !
 ! D11   D(6,2,7,10)            88.0161         estimate D2E/DX2                !
 ! D12   D(6,2,7,22)          -149.6318         estimate D2E/DX2                !
 ! D13   D(11,2,7,3)          -156.9512         estimate D2E/DX2                !
 ! D14   D(11,2,7,10)          -37.6346         estimate D2E/DX2                !
 ! D15   D(11,2,7,22)           84.7175         estimate D2E/DX2                !
 ! D16   D(1,2,11,12)          -58.9157         estimate D2E/DX2                !
 ! D17   D(1,2,11,13)         -178.3513         estimate D2E/DX2                !
 ! D18   D(1,2,11,16)           61.7617         estimate D2E/DX2                !
 ! D19   D(6,2,11,12)           59.1821         estimate D2E/DX2                !
 ! D20   D(6,2,11,13)          -60.2536         estimate D2E/DX2                !
 ! D21   D(6,2,11,16)          179.8595         estimate D2E/DX2                !
 ! D22   D(7,2,11,12)         -176.7898         estimate D2E/DX2                !
 ! D23   D(7,2,11,13)           63.7745         estimate D2E/DX2                !
 ! D24   D(7,2,11,16)          -56.1124         estimate D2E/DX2                !
 ! D25   D(7,3,5,4)            -41.3469         estimate D2E/DX2                !
 ! D26   D(7,3,5,9)             76.5479         estimate D2E/DX2                !
 ! D27   D(7,3,5,18)          -161.9341         estimate D2E/DX2                !
 ! D28   D(15,3,5,4)            77.7563         estimate D2E/DX2                !
 ! D29   D(15,3,5,9)          -164.3489         estimate D2E/DX2                !
 ! D30   D(15,3,5,18)          -42.8309         estimate D2E/DX2                !
 ! D31   D(20,3,5,4)          -163.0883         estimate D2E/DX2                !
 ! D32   D(20,3,5,9)           -45.1934         estimate D2E/DX2                !
 ! D33   D(20,3,5,18)           76.3246         estimate D2E/DX2                !
 ! D34   D(5,3,7,2)             72.1405         estimate D2E/DX2                !
 ! D35   D(5,3,7,10)           -47.9228         estimate D2E/DX2                !
 ! D36   D(5,3,7,22)          -167.1656         estimate D2E/DX2                !
 ! D37   D(15,3,7,2)           -46.5005         estimate D2E/DX2                !
 ! D38   D(15,3,7,10)         -166.5638         estimate D2E/DX2                !
 ! D39   D(15,3,7,22)           74.1934         estimate D2E/DX2                !
 ! D40   D(20,3,7,2)          -168.6781         estimate D2E/DX2                !
 ! D41   D(20,3,7,10)           71.2586         estimate D2E/DX2                !
 ! D42   D(20,3,7,22)          -47.9842         estimate D2E/DX2                !
 ! D43   D(5,3,20,21)          163.4914         estimate D2E/DX2                !
 ! D44   D(7,3,20,21)           42.4659         estimate D2E/DX2                !
 ! D45   D(15,3,20,21)         -78.8309         estimate D2E/DX2                !
 ! D46   D(6,4,5,3)            -17.7998         estimate D2E/DX2                !
 ! D47   D(6,4,5,9)           -135.8256         estimate D2E/DX2                !
 ! D48   D(6,4,5,18)           104.8813         estimate D2E/DX2                !
 ! D49   D(8,4,5,3)           -122.1289         estimate D2E/DX2                !
 ! D50   D(8,4,5,9)            119.8452         estimate D2E/DX2                !
 ! D51   D(8,4,5,18)             0.5521         estimate D2E/DX2                !
 ! D52   D(14,4,5,3)           104.9494         estimate D2E/DX2                !
 ! D53   D(14,4,5,9)           -13.0765         estimate D2E/DX2                !
 ! D54   D(14,4,5,18)         -132.3695         estimate D2E/DX2                !
 ! D55   D(5,4,6,2)             60.0833         estimate D2E/DX2                !
 ! D56   D(5,4,6,26)          -171.4392         estimate D2E/DX2                !
 ! D57   D(8,4,6,2)            174.728          estimate D2E/DX2                !
 ! D58   D(8,4,6,26)           -56.7944         estimate D2E/DX2                !
 ! D59   D(14,4,6,2)           -64.2064         estimate D2E/DX2                !
 ! D60   D(14,4,6,26)           64.2711         estimate D2E/DX2                !
 ! D61   D(5,4,14,25)          164.402          estimate D2E/DX2                !
 ! D62   D(6,4,14,25)          -75.7614         estimate D2E/DX2                !
 ! D63   D(8,4,14,25)           33.578          estimate D2E/DX2                !
 ! D64   D(3,5,18,19)          -54.3777         estimate D2E/DX2                !
 ! D65   D(4,5,18,19)         -177.915          estimate D2E/DX2                !
 ! D66   D(9,5,18,19)           65.1343         estimate D2E/DX2                !
 ! D67   D(2,6,24,27)         -136.6531         estimate D2E/DX2                !
 ! D68   D(2,6,24,29)          108.7299         estimate D2E/DX2                !
 ! D69   D(4,6,24,27)           94.9923         estimate D2E/DX2                !
 ! D70   D(4,6,24,29)          -19.6248         estimate D2E/DX2                !
 ! D71   D(2,7,22,23)          -59.5322         estimate D2E/DX2                !
 ! D72   D(3,7,22,23)         -178.687          estimate D2E/DX2                !
 ! D73   D(10,7,22,23)          62.8304         estimate D2E/DX2                !
 ! D74   D(2,11,16,17)         171.4021         estimate D2E/DX2                !
 ! D75   D(12,11,16,17)        -68.2287         estimate D2E/DX2                !
 ! D76   D(13,11,16,17)         53.0612         estimate D2E/DX2                !
 ! D77   D(4,14,28,29)          46.0624         estimate D2E/DX2                !
 ! D78   D(4,14,28,30)         156.6643         estimate D2E/DX2                !
 ! D79   D(26,24,28,25)         -9.8645         estimate D2E/DX2                !
 ! D80   D(26,24,28,30)       -121.1591         estimate D2E/DX2                !
 ! D81   D(27,24,28,25)       -120.9817         estimate D2E/DX2                !
 ! D82   D(27,24,28,30)        127.7237         estimate D2E/DX2                !
 --------------------------------------------------------------------------------
 Trust Radius=3.00D-01 FncErr=1.00D-07 GrdErr=1.00D-06
 Number of steps in this run=    180 maximum allowed number of steps=    180.
 GradGradGradGradGradGradGradGradGradGradGradGradGradGradGradGradGradGrad

                          Input orientation:                          
 ---------------------------------------------------------------------
 Center     Atomic      Atomic             Coordinates (Angstroms)
 Number     Number       Type             X           Y           Z
 ---------------------------------------------------------------------
      1          1           0        0.387370    1.577540    1.546060
      2          6           0        0.058900    1.128300    0.599300
      3          6           0        1.856470   -0.560090    0.256950
      4          6           0       -0.543170   -1.337210   -0.123550
      5          6           0        0.948260   -1.686330   -0.243210
      6          8           0       -0.634630   -0.082640    0.937370
      7          6           0        1.325660    0.794410   -0.201320
      8          1           0       -1.076110   -2.069370    0.491880
      9          1           0        1.163990   -1.835360   -1.310920
     10          1           0        1.090930    0.740490   -1.276040
     11          6           0       -0.831910    2.131670   -0.143770
     12          1           0       -1.703500    2.402370    0.466820
     13          1           0       -1.184670    1.671960   -1.076590
     14          8           0       -1.119320   -1.031440   -1.287510
     15          1           0        1.862860   -0.587380    1.357380
     16          8           0       -0.008170    3.277380   -0.406820
     17          1           0       -0.492340    3.877120   -0.992730
     18          8           0        1.166270   -2.885770    0.490740
     19          1           0        2.118200   -3.069170    0.429910
     20          8           0        3.158300   -0.809970   -0.253260
     21          1           0        3.641840    0.029000   -0.156150
     22          8           0        2.349300    1.754560    0.027280
     23          1           0        1.975130    2.608640   -0.253840
     24          8           0       -3.044950    0.223850    1.226700
     25          1           0       -2.136770   -1.066000   -1.183870
     26          1           0       -2.032780    0.116280    1.211200
     27          1           0       -3.362050   -0.255680    2.006480
     28          8           0       -3.524250   -1.002600   -0.830620
     29          1           0       -3.469440   -0.457900    0.026990
     30          1           0       -3.986340   -0.454110   -1.481280
 ---------------------------------------------------------------------
                    Distance matrix (angstroms):
                    1          2          3          4          5
     1  H    0.000000
     2  C    1.098209   0.000000
     3  C    2.896467   2.489804   0.000000
     4  C    3.485580   2.638890   2.550876   0.000000
     5  C    3.764164   3.069679   1.530824   1.536414   0.000000
     6  O    2.042348   1.435845   2.626121   1.645558   2.543842
     7  C    2.132374   1.535303   1.525267   2.835909   2.509633
     8  H    4.068540   3.394831   3.306530   1.094914   2.187499
     9  H    4.518115   3.695057   2.136366   2.138316   1.099433
    10  H    3.026532   2.175404   2.151190   2.883635   2.641316
    11  C    2.156207   1.533769   3.825380   3.480935   4.213789
    12  H    2.493359   2.178729   4.636119   3.959717   4.924778
    13  H    3.059169   2.156534   4.001113   3.221011   4.064729
    14  O    4.135941   3.100440   3.385684   1.334259   2.407142
    15  H    2.626699   2.602406   1.100787   2.923077   2.146176
    16  O    2.619093   2.373883   4.317829   4.654128   5.057662
    17  H    3.536582   3.224040   5.173726   5.286520   5.795609
    18  O    4.652045   4.165431   2.437175   2.386959   1.422978
    19  H    5.082664   4.678479   2.528616   3.223181   1.932381
    20  O    4.076249   3.753669   1.420393   3.741081   2.377474
    21  H    3.985859   3.823169   1.924896   4.402488   3.194575
    22  O    2.487408   2.442405   2.377653   4.236529   3.725024
    23  H    2.612238   2.567332   3.211828   4.682792   4.416032
    24  O    3.703416   3.293258   5.057558   3.243299   4.664242
    25  H    4.562029   3.579890   4.275263   1.933234   3.284366
    26  H    2.846847   2.402859   4.061322   2.472474   3.775091
    27  H    4.198908   3.949488   5.512393   3.694972   5.068199
    28  O    5.254189   4.407309   5.507338   3.082004   4.562443
    29  H    4.617962   3.910595   5.331852   3.059233   4.593269
    30  H    5.694008   4.816306   6.096811   3.805091   5.234640
                    6          7          8          9         10
     6  O    0.000000
     7  C    2.430755   0.000000
     8  H    2.083378   3.801350   0.000000
     9  H    3.370737   2.858853   2.884943   0.000000
    10  H    2.924771   1.101376   3.964457   2.577122   0.000000
    11  C    2.472034   2.539032   4.255869   4.591643   2.629588
    12  H    2.745756   3.493960   4.515607   5.416753   3.688936
    13  H    2.727123   2.799634   4.058255   4.227577   2.466936
    14  O    2.466827   3.239053   2.060436   2.420814   2.832856
    15  H    2.582369   2.151156   3.403370   3.027490   3.048609
    16  O    3.672742   2.826035   5.525929   5.322731   2.898168
    17  H    4.407406   3.665318   6.156752   5.956266   3.524976
    18  O    3.361585   3.748076   2.386373   2.085508   4.034470
    19  H    4.093281   3.994224   3.347694   2.337369   4.298728
    20  O    4.041402   2.436248   4.480128   2.479383   2.779213
    21  H    4.415478   2.439792   5.204051   3.308938   2.875328
    22  O    3.620415   1.421965   5.154777   4.010395   2.076169
    23  H    3.933550   1.927693   5.634709   4.639451   2.305794
    24  O    2.446894   4.633251   3.110490   5.328699   4.861700
    25  H    2.779043   4.051537   2.222586   3.391618   3.699993
    26  H    1.438532   3.705967   2.491928   4.515454   4.041481
    27  H    2.934580   5.286936   3.287705   5.829714   5.621061
    28  O    3.510273   5.210268   2.979999   4.785789   4.953448
    29  H    3.000960   4.961188   2.922497   5.015583   4.891932
    30  H    4.149918   5.604859   3.869349   5.335051   5.219949
                   11         12         13         14         15
    11  C    0.000000
    12  H    1.098075   0.000000
    13  H    1.098147   1.784600   0.000000
    14  O    3.375798   3.899999   2.712403   0.000000
    15  H    4.111991   4.738209   4.507357   4.010739   0.000000
    16  O    1.435407   2.098341   2.100028   4.536100   4.642147
    17  H    1.970441   2.402516   2.312809   4.957213   5.567921
    18  O    5.437833   6.016692   5.362494   3.438697   2.553213
    19  H    6.006746   6.674167   5.971332   4.193258   2.661706
    20  O    4.958529   5.871520   5.069442   4.406445   2.078911
    21  H    4.943259   5.881636   5.180900   5.007310   2.415671
    22  O    3.208047   4.127716   3.703282   4.639159   2.736873
    23  H    2.849402   3.754227   3.396855   4.888177   3.580947
    24  O    3.227307   2.668868   3.295878   3.406619   4.976120
    25  H    3.606877   3.865500   2.900763   1.023299   4.762780
    26  H    2.709212   2.426671   2.893685   2.897451   3.961378
    27  H    4.089575   3.490927   4.238172   4.059804   5.275513
    28  O    4.188568   4.073365   3.561939   2.448115   5.829297
    29  H    3.700216   3.390153   3.312758   2.753166   5.497284
    30  H    4.292507   4.143179   3.540240   2.930983   6.502991
                   16         17         18         19         20
    16  O    0.000000
    17  H    0.968194   0.000000
    18  O    6.337929   7.119575   0.000000
    19  H    6.745388   7.555777   0.971343   0.000000
    20  O    5.172673   5.986886   2.971644   2.579247   0.000000
    21  H    4.892584   5.709583   3.878505   3.501943   0.973197
    22  O    2.839910   3.690610   4.811135   4.846018   2.703701
    23  H    2.098594   2.871134   5.603320   5.720621   3.617566
    24  O    4.605916   4.978762   5.286374   6.175514   6.460602
    25  H    4.898948   5.212976   4.126252   4.972097   5.382319
    26  H    4.087736   4.623222   4.445817   5.290382   5.472650
    27  H    5.436455   5.857519   5.451653   6.358808   6.923050
    28  O    5.555237   5.747210   5.224299   6.139779   6.710211
    29  H    5.110861   5.356804   5.253515   6.180841   6.642999
    30  H    5.559165   5.586257   6.029198   6.910615   7.258137
                   21         22         23         24         25
    21  H    0.000000
    22  O    2.163761   0.000000
    23  H    3.072785   0.973902   0.000000
    24  O    6.831061   5.734075   5.751559   0.000000
    25  H    5.970558   5.435740   5.592464   2.880860   0.000000
    26  H    5.837686   4.825790   4.941816   1.017988   2.673006
    27  H    7.335699   6.370072   6.465204   0.968792   3.512302
    28  O    7.271310   6.544961   6.604310   2.442637   1.433145
    29  H    7.130282   6.225168   6.255068   1.443703   1.900520
    30  H    7.757480   6.877086   6.813675   2.946014   1.970729
                   26         27         28         29         30
    26  H    0.000000
    27  H    1.593042   0.000000
    28  O    2.765032   2.938254   0.000000
    29  H    1.948340   1.992688   1.017446   0.000000
    30  H    3.375084   3.548744   0.968363   1.594390   0.000000
 Stoichiometry    C6H16O8
 Framework group  C1[X(C6H16O8)]
 Deg. of freedom    84
 Full point group                 C1      NOp   1
 Largest Abelian subgroup         C1      NOp   1
 Largest concise Abelian subgroup C1      NOp   1
                         Standard orientation:                         
 ---------------------------------------------------------------------
 Center     Atomic      Atomic             Coordinates (Angstroms)
 Number     Number       Type             X           Y           Z
 ---------------------------------------------------------------------
      1          1           0        0.417419    1.562965    1.547905
      2          6           0        0.089369    1.114194    0.600776
      3          6           0        1.887292   -0.573774    0.258199
      4          6           0       -0.512101   -1.351003   -0.123639
      5          6           0        0.979421   -1.699862   -0.242918
      6          8           0       -0.604131   -0.097019    0.937925
      7          6           0        1.356479    0.780904   -0.199540
      8          1           0       -1.045180   -2.083566    0.491191
      9          1           0        1.195578   -1.848286   -1.310626
     10          1           0        1.122167    0.727535   -1.274379
     11          6           0       -0.801288    2.117850   -0.142091
     12          1           0       -1.673147    2.388105    0.468313
     13          1           0       -1.153632    1.658599   -1.075294
     14          8           0       -1.087846   -1.044678   -1.287653
     15          1           0        1.893265   -0.601660    1.358616
     16          8           0        0.022402    3.263810   -0.404205
     17          1           0       -0.461623    3.863804   -0.989975
     18          8           0        1.197308   -2.899671    0.490465
     19          1           0        2.149285   -3.082913    0.429900
     20          8           0        3.189349   -0.823207   -0.251649
     21          1           0        3.672742    0.015773   -0.153900
     22          8           0        2.379906    1.741064    0.029971
     23          1           0        2.005731    2.595247   -0.250830
     24          8           0       -3.014601    0.208998    1.226500
     25          1           0       -2.105331   -1.079427   -1.184421
     26          1           0       -2.002411    0.101569    1.211329
     27          1           0       -3.331936   -0.270996    2.005899
     28          8           0       -3.492954   -1.016400   -0.831667
     29          1           0       -3.438543   -0.472158    0.026259
     30          1           0       -3.954868   -0.467619   -1.482206
 ---------------------------------------------------------------------
 Rotational constants (GHZ):      0.7240567      0.5493904      0.3613408
 Standard basis: 6-31G(d) (6D, 7F)
 There are   242 symmetry adapted cartesian basis functions of A   symmetry.
 There are   242 symmetry adapted basis functions of A   symmetry.
   242 basis functions,   456 primitive gaussians,   242 cartesian basis functions
    58 alpha electrons       58 beta electrons
       nuclear repulsion energy      1114.3190600455 Hartrees.
 NAtoms=   30 NActive=   30 NUniq=   30 SFac= 1.00D+00 NAtFMM=   60 NAOKFM=F Big=F
 Integral buffers will be    131072 words long.
 Raffenetti 2 integral format.
 Two-electron integral symmetry is turned on.
 One-electron integrals computed using PRISM.
 NBasis=   242 RedAO= T EigKep=  1.39D-03  NBF=   242
 NBsUse=   242 1.00D-06 EigRej= -1.00D+00 NBFU=   242
 ExpMin= 1.61D-01 ExpMax= 5.48D+03 ExpMxC= 8.25D+02 IAcc=1 IRadAn=         1 AccDes= 0.00D+00
 Harris functional with IExCor=  402 and IRadAn=       1 diagonalized for initial guess.
 HarFok:  IExCor=  402 AccDes= 0.00D+00 IRadAn=         1 IDoV= 1 UseB2=F ITyADJ=14
 ICtDFT=  3500011 ScaDFX=  1.000000  1.000000  1.000000  1.000000
 FoFCou: FMM=F IPFlag=           0 FMFlag=      100000 FMFlg1=           0
         NFxFlg=           0 DoJE=T BraDBF=F KetDBF=T FulRan=T
         wScrn=  0.000000 ICntrl=     500 IOpCl=  0 I1Cent=   200000004 NGrid=           0
         NMat0=    1 NMatS0=      1 NMatT0=    0 NMatD0=    1 NMtDS0=    0 NMtDT0=    0
 Petite list used in FoFCou.
 Requested convergence on RMS density matrix=1.00D-08 within 128 cycles.
 Requested convergence on MAX density matrix=1.00D-06.
 Requested convergence on             energy=1.00D-06.
 No special actions if energy rises.
 Integral accuracy reduced to 1.0D-05 until final iterations.
 Initial convergence to 1.0D-05 achieved.  Increase integral accuracy.
 SCF Done:  E(RB3LYP) =  -839.982358132     A.U. after   14 cycles
            NFock= 14  Conv=0.39D-08     -V/T= 2.0084

 **********************************************************************

            Population analysis using the SCF density.

 **********************************************************************

 Orbital symmetries:
       Occupied  (A) (A) (A) (A) (A) (A) (A) (A) (A) (A) (A) (A)
                 (A) (A) (A) (A) (A) (A) (A) (A) (A) (A) (A) (A)
                 (A) (A) (A) (A) (A) (A) (A) (A) (A) (A) (A) (A)
                 (A) (A) (A) (A) (A) (A) (A) (A) (A) (A) (A) (A)
                 (A) (A) (A) (A) (A) (A) (A) (A) (A) (A)
       Virtual   (A) (A) (A) (A) (A) (A) (A) (A) (A) (A) (A) (A)
                 (A) (A) (A) (A) (A) (A) (A) (A) (A) (A) (A) (A)
                 (A) (A) (A) (A) (A) (A) (A) (A) (A) (A) (A) (A)
                 (A) (A) (A) (A) (A) (A) (A) (A) (A) (A) (A) (A)
                 (A) (A) (A) (A) (A) (A) (A) (A) (A) (A) (A) (A)
                 (A) (A) (A) (A) (A) (A) (A) (A) (A) (A) (A) (A)
                 (A) (A) (A) (A) (A) (A) (A) (A) (A) (A) (A) (A)
                 (A) (A) (A) (A) (A) (A) (A) (A) (A) (A) (A) (A)
                 (A) (A) (A) (A) (A) (A) (A) (A) (A) (A) (A) (A)
                 (A) (A) (A) (A) (A) (A) (A) (A) (A) (A) (A) (A)
                 (A) (A) (A) (A) (A) (A) (A) (A) (A) (A) (A) (A)
                 (A) (A) (A) (A) (A) (A) (A) (A) (A) (A) (A) (A)
                 (A) (A) (A) (A) (A) (A) (A) (A) (A) (A) (A) (A)
                 (A) (A) (A) (A) (A) (A) (A) (A) (A) (A) (A) (A)
                 (A) (A) (A) (A) (A) (A) (A) (A) (A) (A) (A) (A)
                 (A) (A) (A) (A)
 The electronic state is 1-A.
 Alpha  occ. eigenvalues --  -19.17041 -19.15866 -19.14777 -19.14515 -19.14314
 Alpha  occ. eigenvalues --  -19.14252 -19.14114 -19.13832 -10.29326 -10.24134
 Alpha  occ. eigenvalues --  -10.24058 -10.23501 -10.23335 -10.22839  -1.05948
 Alpha  occ. eigenvalues --   -1.04086  -1.03136  -1.02160  -1.01575  -1.00779
 Alpha  occ. eigenvalues --   -0.99894  -0.98021  -0.77485  -0.75938  -0.69388
 Alpha  occ. eigenvalues --   -0.63593  -0.61386  -0.56563  -0.55974  -0.54567
 Alpha  occ. eigenvalues --   -0.54417  -0.53845  -0.51944  -0.50572  -0.48373
 Alpha  occ. eigenvalues --   -0.46636  -0.45012  -0.44307  -0.43301  -0.42346
 Alpha  occ. eigenvalues --   -0.41956  -0.41586  -0.40738  -0.38173  -0.37918
 Alpha  occ. eigenvalues --   -0.35965  -0.35023  -0.34723  -0.32915  -0.32153
 Alpha  occ. eigenvalues --   -0.30989  -0.30423  -0.29254  -0.28848  -0.27143
 Alpha  occ. eigenvalues --   -0.26400  -0.26181  -0.25728
 Alpha virt. eigenvalues --    0.03692   0.05885   0.06891   0.08818   0.09603
 Alpha virt. eigenvalues --    0.11085   0.11571   0.12888   0.13979   0.14568
 Alpha virt. eigenvalues --    0.15272   0.16750   0.17227   0.18364   0.19317
 Alpha virt. eigenvalues --    0.20434   0.21239   0.21734   0.23874   0.25704
 Alpha virt. eigenvalues --    0.27700   0.28603   0.29307   0.30760   0.31939
 Alpha virt. eigenvalues --    0.32364   0.33386   0.36175   0.52115   0.52428
 Alpha virt. eigenvalues --    0.54733   0.55034   0.56865   0.58730   0.59895
 Alpha virt. eigenvalues --    0.60502   0.62946   0.64382   0.65690   0.67884
 Alpha virt. eigenvalues --    0.69890   0.70886   0.71734   0.73106   0.74542
 Alpha virt. eigenvalues --    0.76259   0.76620   0.78435   0.80390   0.81452
 Alpha virt. eigenvalues --    0.82015   0.83314   0.83662   0.84321   0.84954
 Alpha virt. eigenvalues --    0.86048   0.87190   0.87837   0.89663   0.90350
 Alpha virt. eigenvalues --    0.91823   0.92626   0.93477   0.95909   0.96676
 Alpha virt. eigenvalues --    0.97515   0.98026   0.98464   1.00405   1.03121
 Alpha virt. eigenvalues --    1.03794   1.06306   1.07019   1.07292   1.08867
 Alpha virt. eigenvalues --    1.09993   1.12693   1.13565   1.14738   1.16305
 Alpha virt. eigenvalues --    1.17864   1.21230   1.22023   1.26247   1.26758
 Alpha virt. eigenvalues --    1.30835   1.33177   1.35445   1.35937   1.39634
 Alpha virt. eigenvalues --    1.41517   1.43723   1.46678   1.48163   1.53999
 Alpha virt. eigenvalues --    1.55133   1.57540   1.58380   1.59785   1.61904
 Alpha virt. eigenvalues --    1.64119   1.65698   1.66708   1.68358   1.68640
 Alpha virt. eigenvalues --    1.70962   1.71663   1.72391   1.73428   1.74188
 Alpha virt. eigenvalues --    1.76288   1.77276   1.78140   1.79684   1.80112
 Alpha virt. eigenvalues --    1.81741   1.83613   1.85090   1.85877   1.86164
 Alpha virt. eigenvalues --    1.88501   1.89315   1.91668   1.93877   1.95584
 Alpha virt. eigenvalues --    1.97907   1.99876   2.03246   2.04537   2.05848
 Alpha virt. eigenvalues --    2.06619   2.08225   2.09654   2.12777   2.15730
 Alpha virt. eigenvalues --    2.18029   2.21899   2.24059   2.28614   2.30402
 Alpha virt. eigenvalues --    2.31705   2.34836   2.36175   2.40407   2.41815
 Alpha virt. eigenvalues --    2.42835   2.45768   2.48311   2.51497   2.51721
 Alpha virt. eigenvalues --    2.53545   2.55095   2.56738   2.57325   2.60875
 Alpha virt. eigenvalues --    2.62451   2.66480   2.70956   2.71496   2.74706
 Alpha virt. eigenvalues --    2.76190   2.80395   2.84370   2.90315   2.91659
 Alpha virt. eigenvalues --    2.94863   2.96617   3.02428   3.05995   3.11161
 Alpha virt. eigenvalues --    3.74687   3.77503   3.79449   3.87208   3.89634
 Alpha virt. eigenvalues --    3.97411   4.00901   4.14578   4.25581   4.37499
 Alpha virt. eigenvalues --    4.46482   4.51082   4.67212   4.83105
          Condensed to atoms (all electrons):
               1          2          3          4          5          6
     1  H    0.601463   0.363135  -0.008029   0.002356   0.000514  -0.032499
     2  C    0.363135   4.939806  -0.029236  -0.013351  -0.014689   0.151283
     3  C   -0.008029  -0.029236   4.948234  -0.029849   0.327444  -0.006455
     4  C    0.002356  -0.013351  -0.029849   4.793622   0.304717   0.122890
     5  C    0.000514  -0.014689   0.327444   0.304717   4.915740  -0.024646
     6  O   -0.032499   0.151283  -0.006455   0.122890  -0.024646   8.536679
     7  C   -0.042982   0.296459   0.284404  -0.005761  -0.016858  -0.026061
     8  H   -0.000196   0.003974   0.002705   0.359568  -0.048937  -0.036426
     9  H    0.000017   0.000948  -0.042305  -0.058725   0.351157   0.002521
    10  H    0.006944  -0.056544  -0.053070  -0.001008  -0.005098   0.002275
    11  C   -0.056733   0.346821   0.004007  -0.000956  -0.000283  -0.030055
    12  H   -0.006359  -0.034651  -0.000080  -0.000218  -0.000024   0.001345
    13  H    0.005872  -0.029566  -0.000269   0.000866  -0.000009   0.000010
    14  O   -0.000163   0.006052   0.000462   0.274887  -0.042048  -0.054214
    15  H    0.003952  -0.001310   0.346961  -0.003132  -0.047152   0.003818
    16  O    0.004289  -0.045961   0.000214   0.000020  -0.000003   0.001106
    17  H   -0.000274   0.005226   0.000006  -0.000002   0.000000  -0.000081
    18  O    0.000007   0.000042  -0.034309  -0.032700   0.225056   0.000679
    19  H   -0.000002  -0.000020  -0.006607   0.006960  -0.027559  -0.000157
    20  O   -0.000079   0.002942   0.232499   0.002965  -0.044141   0.000126
    21  H    0.000016   0.000781  -0.030727  -0.000267   0.006347  -0.000022
    22  O    0.005037  -0.040590  -0.032474   0.000079   0.001969   0.001516
    23  H    0.000510  -0.005380   0.005300   0.000012  -0.000165  -0.000005
    24  O    0.000061   0.004804   0.000007   0.006906   0.000052  -0.078785
    25  H    0.000015  -0.000406  -0.000153  -0.019942   0.003188   0.003962
    26  H   -0.001007  -0.006936   0.000144  -0.005157   0.000797   0.082719
    27  H    0.000020  -0.000024  -0.000001  -0.000149   0.000006   0.003275
    28  O   -0.000000  -0.000023   0.000000   0.005234  -0.000042  -0.000848
    29  H    0.000001  -0.000229  -0.000002   0.000098   0.000086   0.002426
    30  H    0.000000  -0.000006   0.000000  -0.000158   0.000002   0.000019
               7          8          9         10         11         12
     1  H   -0.042982  -0.000196   0.000017   0.006944  -0.056733  -0.006359
     2  C    0.296459   0.003974   0.000948  -0.056544   0.346821  -0.034651
     3  C    0.284404   0.002705  -0.042305  -0.053070   0.004007  -0.000080
     4  C   -0.005761   0.359568  -0.058725  -0.001008  -0.000956  -0.000218
     5  C   -0.016858  -0.048937   0.351157  -0.005098  -0.000283  -0.000024
     6  O   -0.026061  -0.036426   0.002521   0.002275  -0.030055   0.001345
     7  C    5.024796   0.000083  -0.004351   0.355405  -0.039029   0.005850
     8  H    0.000083   0.588198   0.003882   0.000152  -0.000109   0.000004
     9  H   -0.004351   0.003882   0.610897   0.006882   0.000040  -0.000000
    10  H    0.355405   0.000152   0.006882   0.640912  -0.006513   0.000181
    11  C   -0.039029  -0.000109   0.000040  -0.006513   4.984589   0.358283
    12  H    0.005850   0.000004  -0.000000   0.000181   0.358283   0.597425
    13  H   -0.012049   0.000109   0.000004   0.004651   0.350581  -0.048078
    14  O   -0.000246  -0.037735   0.006192   0.003800  -0.003043   0.000110
    15  H   -0.055313  -0.000004   0.007651   0.007567   0.000291   0.000005
    16  O    0.008303   0.000001  -0.000000   0.000809   0.201231  -0.033235
    17  H   -0.000003  -0.000000   0.000000  -0.000092  -0.018757  -0.002160
    18  O    0.004161   0.006838  -0.036564   0.000010  -0.000000  -0.000000
    19  H    0.000509  -0.000350  -0.003483  -0.000018   0.000000  -0.000000
    20  O   -0.029311  -0.000067   0.000934   0.000548  -0.000043   0.000000
    21  H   -0.015723   0.000006  -0.000129   0.000430  -0.000019   0.000000
    22  O    0.212369   0.000002  -0.000136  -0.040843   0.000092  -0.000214
    23  H   -0.023474  -0.000000   0.000007  -0.002969  -0.003045   0.000233
    24  O   -0.000107   0.001862   0.000002   0.000007  -0.000955   0.006559
    25  H   -0.000023  -0.004230   0.000183   0.000037   0.000176  -0.000046
    26  H    0.001361  -0.001532  -0.000052  -0.000122  -0.001766   0.001901
    27  H    0.000004   0.000265  -0.000000  -0.000000  -0.000061  -0.000030
    28  O    0.000002   0.002381  -0.000000   0.000001  -0.000200   0.000010
    29  H    0.000005  -0.000771  -0.000003  -0.000003   0.000310   0.000141
    30  H   -0.000000  -0.000090  -0.000000  -0.000001   0.000036  -0.000025
              13         14         15         16         17         18
     1  H    0.005872  -0.000163   0.003952   0.004289  -0.000274   0.000007
     2  C   -0.029566   0.006052  -0.001310  -0.045961   0.005226   0.000042
     3  C   -0.000269   0.000462   0.346961   0.000214   0.000006  -0.034309
     4  C    0.000866   0.274887  -0.003132   0.000020  -0.000002  -0.032700
     5  C   -0.000009  -0.042048  -0.047152  -0.000003   0.000000   0.225056
     6  O    0.000010  -0.054214   0.003818   0.001106  -0.000081   0.000679
     7  C   -0.012049  -0.000246  -0.055313   0.008303  -0.000003   0.004161
     8  H    0.000109  -0.037735  -0.000004   0.000001  -0.000000   0.006838
     9  H    0.000004   0.006192   0.007651  -0.000000   0.000000  -0.036564
    10  H    0.004651   0.003800   0.007567   0.000809  -0.000092   0.000010
    11  C    0.350581  -0.003043   0.000291   0.201231  -0.018757  -0.000000
    12  H   -0.048078   0.000110   0.000005  -0.033235  -0.002160  -0.000000
    13  H    0.607806   0.009277   0.000008  -0.031152  -0.005294   0.000000
    14  O    0.009277   8.350879   0.000069   0.000020  -0.000001   0.000717
    15  H    0.000008   0.000069   0.647128  -0.000011   0.000001   0.002354
    16  O   -0.031152   0.000020  -0.000011   8.274991   0.235530   0.000000
    17  H   -0.005294  -0.000001   0.000001   0.235530   0.379263  -0.000000
    18  O    0.000000   0.000717   0.002354   0.000000  -0.000000   8.275303
    19  H    0.000000  -0.000134  -0.000508   0.000000  -0.000000   0.238040
    20  O   -0.000002  -0.000016  -0.045614  -0.000000   0.000000  -0.000841
    21  H   -0.000000   0.000002  -0.000334   0.000004  -0.000000  -0.000120
    22  O    0.000103   0.000012  -0.000500  -0.009675   0.000439  -0.000011
    23  H    0.000386  -0.000001  -0.000252   0.033944  -0.001145   0.000001
    24  O   -0.000073  -0.001605   0.000004   0.000016   0.000001   0.000000
    25  H    0.000376   0.174495   0.000005  -0.000002  -0.000000  -0.000077
    26  H   -0.000142   0.003206  -0.000071  -0.000042  -0.000001  -0.000024
    27  H    0.000015  -0.000002  -0.000001  -0.000001  -0.000000  -0.000000
    28  O    0.000683  -0.083140  -0.000000   0.000000   0.000000   0.000000
    29  H    0.000042   0.007654   0.000000   0.000001  -0.000000  -0.000000
    30  H    0.000156   0.004003   0.000000  -0.000000  -0.000000  -0.000000
              19         20         21         22         23         24
     1  H   -0.000002  -0.000079   0.000016   0.005037   0.000510   0.000061
     2  C   -0.000020   0.002942   0.000781  -0.040590  -0.005380   0.004804
     3  C   -0.006607   0.232499  -0.030727  -0.032474   0.005300   0.000007
     4  C    0.006960   0.002965  -0.000267   0.000079   0.000012   0.006906
     5  C   -0.027559  -0.044141   0.006347   0.001969  -0.000165   0.000052
     6  O   -0.000157   0.000126  -0.000022   0.001516  -0.000005  -0.078785
     7  C    0.000509  -0.029311  -0.015723   0.212369  -0.023474  -0.000107
     8  H   -0.000350  -0.000067   0.000006   0.000002  -0.000000   0.001862
     9  H   -0.003483   0.000934  -0.000129  -0.000136   0.000007   0.000002
    10  H   -0.000018   0.000548   0.000430  -0.040843  -0.002969   0.000007
    11  C    0.000000  -0.000043  -0.000019   0.000092  -0.003045  -0.000955
    12  H   -0.000000   0.000000   0.000000  -0.000214   0.000233   0.006559
    13  H    0.000000  -0.000002  -0.000000   0.000103   0.000386  -0.000073
    14  O   -0.000134  -0.000016   0.000002   0.000012  -0.000001  -0.001605
    15  H   -0.000508  -0.045614  -0.000334  -0.000500  -0.000252   0.000004
    16  O    0.000000  -0.000000   0.000004  -0.009675   0.033944   0.000016
    17  H   -0.000000   0.000000  -0.000000   0.000439  -0.001145   0.000001
    18  O    0.238040  -0.000841  -0.000120  -0.000011   0.000001   0.000000
    19  H    0.376428   0.009060  -0.000316  -0.000001   0.000000  -0.000000
    20  O    0.009060   8.307704   0.236667  -0.007919   0.000176   0.000000
    21  H   -0.000316   0.236667   0.360343   0.027605  -0.000743  -0.000000
    22  O   -0.000001  -0.007919   0.027605   8.325154   0.231744   0.000000
    23  H    0.000000   0.000176  -0.000743   0.231744   0.343170  -0.000000
    24  O   -0.000000   0.000000  -0.000000   0.000000  -0.000000   8.480674
    25  H    0.000006   0.000001  -0.000000  -0.000000   0.000000   0.002542
    26  H    0.000002   0.000000   0.000000  -0.000012   0.000000   0.163880
    27  H    0.000000  -0.000000   0.000000  -0.000000   0.000000   0.233608
    28  O   -0.000000  -0.000000   0.000000   0.000000  -0.000000  -0.082179
    29  H    0.000000   0.000000  -0.000000  -0.000000   0.000000   0.099735
    30  H    0.000000  -0.000000  -0.000000  -0.000000   0.000000   0.003362
              25         26         27         28         29         30
     1  H    0.000015  -0.001007   0.000020  -0.000000   0.000001   0.000000
     2  C   -0.000406  -0.006936  -0.000024  -0.000023  -0.000229  -0.000006
     3  C   -0.000153   0.000144  -0.000001   0.000000  -0.000002   0.000000
     4  C   -0.019942  -0.005157  -0.000149   0.005234   0.000098  -0.000158
     5  C    0.003188   0.000797   0.000006  -0.000042   0.000086   0.000002
     6  O    0.003962   0.082719   0.003275  -0.000848   0.002426   0.000019
     7  C   -0.000023   0.001361   0.000004   0.000002   0.000005  -0.000000
     8  H   -0.004230  -0.001532   0.000265   0.002381  -0.000771  -0.000090
     9  H    0.000183  -0.000052  -0.000000  -0.000000  -0.000003  -0.000000
    10  H    0.000037  -0.000122  -0.000000   0.000001  -0.000003  -0.000001
    11  C    0.000176  -0.001766  -0.000061  -0.000200   0.000310   0.000036
    12  H   -0.000046   0.001901  -0.000030   0.000010   0.000141  -0.000025
    13  H    0.000376  -0.000142   0.000015   0.000683   0.000042   0.000156
    14  O    0.174495   0.003206  -0.000002  -0.083140   0.007654   0.004003
    15  H    0.000005  -0.000071  -0.000001  -0.000000   0.000000   0.000000
    16  O   -0.000002  -0.000042  -0.000001   0.000000   0.000001  -0.000000
    17  H   -0.000000  -0.000001  -0.000000   0.000000  -0.000000  -0.000000
    18  O   -0.000077  -0.000024  -0.000000   0.000000  -0.000000  -0.000000
    19  H    0.000006   0.000002   0.000000  -0.000000   0.000000   0.000000
    20  O    0.000001   0.000000  -0.000000  -0.000000   0.000000  -0.000000
    21  H   -0.000000   0.000000   0.000000   0.000000  -0.000000  -0.000000
    22  O   -0.000000  -0.000012  -0.000000   0.000000  -0.000000  -0.000000
    23  H    0.000000   0.000000   0.000000  -0.000000   0.000000   0.000000
    24  O    0.002542   0.163880   0.233608  -0.082179   0.099735   0.003362
    25  H    0.284925  -0.000602  -0.000081   0.117789  -0.010670  -0.006354
    26  H   -0.000602   0.304674  -0.004203   0.006937  -0.008482  -0.000168
    27  H   -0.000081  -0.004203   0.370683   0.003753  -0.006628  -0.000126
    28  O    0.117789   0.006937   0.003753   8.453250   0.174363   0.233916
    29  H   -0.010670  -0.008482  -0.006628   0.174363   0.304032  -0.006540
    30  H   -0.006354  -0.000168  -0.000126   0.233916  -0.006540   0.375729
 Mulliken charges:
               1
     1  H    0.154116
     2  C    0.156653
     3  C    0.121178
     4  C    0.290195
     5  C    0.134581
     6  O   -0.626400
     7  C    0.077582
     8  H    0.160419
     9  H    0.154437
    10  H    0.135669
    11  C   -0.084889
    12  H    0.153072
    13  H    0.145689
    14  O   -0.619487
    15  H    0.134388
    16  O   -0.640394
    17  H    0.407346
    18  O   -0.648560
    19  H    0.408152
    20  O   -0.665588
    21  H    0.416200
    22  O   -0.673743
    23  H    0.421697
    24  O   -0.840378
    25  H    0.454891
    26  H    0.464698
    27  H    0.399679
    28  O   -0.831886
    29  H    0.444436
    30  H    0.396246
 Sum of Mulliken charges =  -0.00000
 Mulliken charges with hydrogens summed into heavy atoms:
               1
     2  C    0.310769
     3  C    0.255567
     4  C    0.450615
     5  C    0.289017
     6  O   -0.626400
     7  C    0.213250
    11  C    0.213872
    14  O   -0.164596
    16  O   -0.233048
    18  O   -0.240409
    20  O   -0.249388
    22  O   -0.252046
    24  O    0.023999
    28  O    0.008796
 Electronic spatial extent (au):  <R**2>=           3143.4708
 Charge=              0.0000 electrons
 Dipole moment (field-independent basis, Debye):
    X=             -2.4587    Y=              3.1706    Z=             -0.3715  Tot=              4.0294
 Quadrupole moment (field-independent basis, Debye-Ang):
   XX=            -79.2449   YY=            -80.7474   ZZ=            -79.9207
   XY=             -4.8611   XZ=              0.3984   YZ=             -7.5074
 Traceless Quadrupole moment (field-independent basis, Debye-Ang):
   XX=              0.7261   YY=             -0.7764   ZZ=              0.0503
   XY=             -4.8611   XZ=              0.3984   YZ=             -7.5074
 Octapole moment (field-independent basis, Debye-Ang**2):
  XXX=            -35.2767  YYY=             45.8302  ZZZ=              5.5357  XYY=             -0.1808
  XXY=              3.9028  XXZ=              0.4685  XZZ=            -24.6765  YZZ=              7.1839
  YYZ=            -20.0678  XYZ=             10.6002
 Hexadecapole moment (field-independent basis, Debye-Ang**3):
 XXXX=          -1751.5547 YYYY=          -1274.9225 ZZZZ=           -303.3811 XXXY=            -13.9538
 XXXZ=             32.8186 YYYX=            -72.2422 YYYZ=            -80.4798 ZZZX=            -14.7152
 ZZZY=            -16.2213 XXYY=           -544.3159 XXZZ=           -289.4688 YYZZ=           -274.1866
 XXYZ=            -55.5703 YYXZ=              0.9704 ZZXY=              9.4878
 N-N= 1.114319060045D+03 E-N=-4.201749002938D+03  KE= 8.329950388060D+02
 Calling FoFJK, ICntrl=      2127 FMM=F ISym2X=0 I1Cent= 0 IOpClX= 0 NMat=1 NMatS=1 NMatT=0.
 ***** Axes restored to original set *****
 -------------------------------------------------------------------
 Center     Atomic                   Forces (Hartrees/Bohr)
 Number     Number              X              Y              Z
 -------------------------------------------------------------------
      1        1          -0.000475459   -0.001093023    0.000155836
      2        6           0.001335012   -0.005081455   -0.003656303
      3        6           0.000852241   -0.000201020   -0.000825405
      4        6           0.004405768    0.019119541    0.020517990
      5        6          -0.000705446    0.001084039    0.000458402
      6        8           0.010307511   -0.016948415   -0.016106731
      7        6           0.001643174    0.000774129   -0.000840066
      8        1           0.000216066    0.000354773    0.000051706
      9        1          -0.000729868    0.000050238   -0.000048332
     10        1           0.000179735    0.000070711   -0.000068596
     11        6          -0.000022682   -0.001264477    0.000154237
     12        1           0.000080131   -0.000154925    0.000150409
     13        1          -0.000106492    0.000074670   -0.000016770
     14        8           0.015338171    0.000976208   -0.005255703
     15        1           0.000006294    0.000005705   -0.000043491
     16        8           0.000209009   -0.000480415    0.000420123
     17        1          -0.000087244   -0.000020183    0.000112389
     18        8          -0.000465244    0.000275232   -0.001010952
     19        1          -0.000006964    0.000100027    0.000012336
     20        8           0.000203166   -0.000193574   -0.000088793
     21        1           0.000046424   -0.000027265   -0.000063749
     22        8           0.001239426    0.000559946   -0.000310299
     23        1           0.000038949    0.000060173    0.000137544
     24        8          -0.012127190    0.009197804    0.016559756
     25        1           0.001789275   -0.000369616   -0.001055344
     26        1          -0.001663153    0.000093602    0.001336931
     27        1          -0.000476658    0.000882135    0.001331637
     28        8          -0.017642048   -0.006825303   -0.010437309
     29        1          -0.002122163   -0.000887549   -0.001279289
     30        1          -0.001259741   -0.000131712   -0.000292163
 -------------------------------------------------------------------
 Cartesian Forces:  Max     0.020517990 RMS     0.005549616

 GradGradGradGradGradGradGradGradGradGradGradGradGradGradGradGradGradGrad
 Berny optimization.
 FormGI is forming the generalized inverse of G from B-inverse, IUseBI=4.
 Internal  Forces:  Max     0.020602050 RMS     0.003773181
 Search for a local minimum.
 Step number   1 out of a maximum of  180
 All quantities printed in internal units (Hartrees-Bohrs-Radians)
 Mixed Optimization -- RFO/linear search
 Second derivative matrix not updated -- first step.
 ITU=  0
     Eigenvalues ---    0.00231   0.00319   0.00356   0.00432   0.00546
     Eigenvalues ---    0.00653   0.00847   0.01223   0.01388   0.01401
     Eigenvalues ---    0.01422   0.01436   0.01718   0.02732   0.03326
     Eigenvalues ---    0.03574   0.04198   0.04577   0.04634   0.04745
     Eigenvalues ---    0.04869   0.04972   0.05139   0.05479   0.05503
     Eigenvalues ---    0.05687   0.05871   0.05936   0.06186   0.06332
     Eigenvalues ---    0.06754   0.06956   0.07090   0.07492   0.07912
     Eigenvalues ---    0.08992   0.09481   0.09842   0.10801   0.10964
     Eigenvalues ---    0.11731   0.13039   0.13156   0.13444   0.13598
     Eigenvalues ---    0.14372   0.16000   0.16000   0.16000   0.16000
     Eigenvalues ---    0.16313   0.16462   0.17208   0.18554   0.18948
     Eigenvalues ---    0.19623   0.21971   0.26543   0.27661   0.28372
     Eigenvalues ---    0.29071   0.29139   0.33530   0.33595   0.33745
     Eigenvalues ---    0.33881   0.33888   0.33892   0.34251   0.38225
     Eigenvalues ---    0.40222   0.41845   0.42015   0.42166   0.42401
     Eigenvalues ---    0.43391   0.44279   0.52588   0.52729   0.53104
     Eigenvalues ---    0.53624   0.53713   0.53748   0.56404
 RFO step:  Lambda=-1.25769389D-02 EMin= 2.30930042D-03
 Linear search not attempted -- first point.
 Iteration  1 RMS(Cart)=  0.04511025 RMS(Int)=  0.00101344
 Iteration  2 RMS(Cart)=  0.00153224 RMS(Int)=  0.00031895
 Iteration  3 RMS(Cart)=  0.00000291 RMS(Int)=  0.00031894
 Iteration  4 RMS(Cart)=  0.00000000 RMS(Int)=  0.00031894
 Variable       Old X    -DE/DX   Delta X   Delta X   Delta X     New X
                                 (Linear)    (Quad)   (Total)
    R1        2.07531  -0.00046   0.00000  -0.00130  -0.00130   2.07402
    R2        2.71335  -0.00053   0.00000  -0.00162  -0.00183   2.71153
    R3        2.90130   0.00114   0.00000   0.00799   0.00785   2.90915
    R4        2.89840  -0.00171   0.00000  -0.00545  -0.00543   2.89297
    R5        2.89284  -0.00322   0.00000  -0.00686  -0.00661   2.88622
    R6        2.88234  -0.00189   0.00000  -0.00553  -0.00550   2.87684
    R7        2.08019  -0.00004   0.00000  -0.00012  -0.00012   2.08006
    R8        2.68415   0.00032   0.00000   0.00074   0.00074   2.68489
    R9        2.90340  -0.00034   0.00000  -0.00260  -0.00242   2.90098
   R10        3.10965  -0.02060   0.00000  -0.10885  -0.10966   2.99999
   R11        2.06909  -0.00031   0.00000  -0.00088  -0.00088   2.06821
   R12        2.52138   0.00399   0.00000   0.00565   0.00532   2.52671
   R13        2.07763  -0.00011   0.00000  -0.00030  -0.00030   2.07732
   R14        2.68904  -0.00090   0.00000  -0.00207  -0.00207   2.68697
   R15        2.71843   0.01893   0.00000   0.13062   0.13024   2.84867
   R16        2.08130   0.00003   0.00000   0.00008   0.00008   2.08138
   R17        2.68712   0.00131   0.00000   0.00301   0.00301   2.69014
   R18        2.07506  -0.00002   0.00000  -0.00010  -0.00011   2.07495
   R19        2.07520   0.00002   0.00000   0.00006   0.00006   2.07525
   R20        2.71253  -0.00042   0.00000  -0.00102  -0.00102   2.71151
   R21        1.93375   0.01564   0.00000   0.03433   0.03459   1.96835
   R22        1.82962  -0.00003   0.00000  -0.00006  -0.00006   1.82956
   R23        1.83557  -0.00003   0.00000  -0.00005  -0.00005   1.83552
   R24        1.83908  -0.00001   0.00000  -0.00002  -0.00002   1.83906
   R25        1.84041  -0.00000   0.00000  -0.00001  -0.00001   1.84040
   R26        1.92372   0.01654   0.00000   0.03616   0.03588   1.95960
   R27        1.83075   0.00079   0.00000   0.00144   0.00144   1.83219
   R28        2.72820   0.01579   0.00000   0.12184   0.12245   2.85065
   R29        2.70825   0.01723   0.00000   0.11937   0.11970   2.82795
   R30        1.92270   0.01384   0.00000   0.03345   0.03413   1.95682
   R31        1.82994   0.00072   0.00000   0.00131   0.00131   1.83125
    A1        1.86135  -0.00050   0.00000  -0.01318  -0.01327   1.84808
    A2        1.86684  -0.00090   0.00000  -0.00384  -0.00354   1.86330
    A3        1.90051   0.00106   0.00000   0.00031   0.00016   1.90067
    A4        1.91548   0.00387   0.00000   0.02792   0.02773   1.94321
    A5        1.96628  -0.00284   0.00000  -0.01046  -0.01033   1.95594
    A6        1.94856  -0.00063   0.00000  -0.00140  -0.00152   1.94703
    A7        1.92699  -0.00365   0.00000  -0.01615  -0.01622   1.91076
    A8        1.88791  -0.00022   0.00000  -0.00149  -0.00155   1.88636
    A9        1.87231   0.00246   0.00000   0.00632   0.00643   1.87874
   A10        1.90116   0.00168   0.00000   0.00255   0.00262   1.90378
   A11        1.94686   0.00032   0.00000   0.00561   0.00552   1.95238
   A12        1.92773  -0.00066   0.00000   0.00282   0.00278   1.93051
   A13        1.85189   0.00464   0.00000   0.02725   0.02762   1.87950
   A14        1.94370  -0.00005   0.00000  -0.00074  -0.00094   1.94276
   A15        1.98592  -0.00429   0.00000  -0.01505  -0.01448   1.97144
   A16        1.69146  -0.00190   0.00000  -0.00510  -0.00521   1.68626
   A17        1.94304   0.00096   0.00000  -0.00495  -0.00561   1.93743
   A18        2.01906   0.00157   0.00000   0.00303   0.00290   2.02196
   A19        1.96415   0.00030   0.00000   0.00532   0.00538   1.96954
   A20        1.87613  -0.00057   0.00000  -0.00173  -0.00179   1.87434
   A21        1.93984   0.00115   0.00000   0.00581   0.00584   1.94568
   A22        1.87225   0.00028   0.00000  -0.00796  -0.00786   1.86439
   A23        1.87558  -0.00111   0.00000  -0.00010  -0.00030   1.87528
   A24        1.93540  -0.00007   0.00000  -0.00187  -0.00186   1.93354
   A25        2.05368  -0.00380   0.00000  -0.02077  -0.02080   2.03288
   A26        1.97975   0.00011   0.00000   0.02147   0.02222   2.00197
   A27        1.85685   0.00398   0.00000   0.01246   0.01154   1.86839
   A28        1.90032  -0.00176   0.00000  -0.00704  -0.00691   1.89340
   A29        1.92160  -0.00093   0.00000  -0.00389  -0.00399   1.91761
   A30        1.94259   0.00250   0.00000   0.01003   0.01003   1.95262
   A31        1.90062   0.00123   0.00000   0.00031   0.00012   1.90074
   A32        1.87633  -0.00058   0.00000   0.00091   0.00100   1.87733
   A33        1.92128  -0.00047   0.00000  -0.00045  -0.00042   1.92087
   A34        1.93145  -0.00014   0.00000  -0.00213  -0.00212   1.92932
   A35        1.90101   0.00047   0.00000   0.00313   0.00313   1.90414
   A36        1.85213  -0.00092   0.00000  -0.00427  -0.00427   1.84786
   A37        1.89712  -0.00007   0.00000   0.00052   0.00052   1.89764
   A38        1.93975   0.00033   0.00000   0.00028   0.00027   1.94002
   A39        1.94208   0.00032   0.00000   0.00243   0.00244   1.94452
   A40        1.91055   0.00186   0.00000  -0.00024  -0.00059   1.90995
   A41        1.89478  -0.00014   0.00000  -0.00082  -0.00082   1.89396
   A42        1.85146  -0.00013   0.00000  -0.00074  -0.00074   1.85072
   A43        1.84199   0.00014   0.00000   0.00082   0.00082   1.84281
   A44        1.84333   0.00017   0.00000   0.00100   0.00100   1.84433
   A45        1.86022   0.00157   0.00000   0.00997   0.01043   1.87065
   A46        1.80266  -0.00487   0.00000  -0.02099  -0.02054   1.78213
   A47        1.91653   0.00236   0.00000   0.01345   0.01326   1.92979
   A48        1.75106  -0.00402   0.00000  -0.01375  -0.01216   1.73891
   A49        1.89803   0.00203   0.00000   0.01382   0.01314   1.91116
   A50        1.86381   0.00135   0.00000   0.00570   0.00529   1.86909
   A51        3.01516   0.00428   0.00000   0.08439   0.08409   3.09926
   A52        3.12160  -0.00026   0.00000   0.03860   0.03913   3.16073
   A53        2.89533  -0.00321   0.00000  -0.05392  -0.05242   2.84291
   A54        3.25625  -0.00028   0.00000   0.01436   0.01388   3.27013
   A55        2.96270   0.00270   0.00000   0.03358   0.03247   2.99517
   A56        3.10218   0.00132   0.00000   0.05483   0.05475   3.15693
    D1       -2.57961   0.00047   0.00000   0.00226   0.00212  -2.57749
    D2        1.52085  -0.00196   0.00000  -0.01735  -0.01663   1.50422
    D3       -0.56334   0.00108   0.00000   0.00467   0.00452  -0.55882
    D4       -2.74607  -0.00135   0.00000  -0.01494  -0.01423  -2.76030
    D5        1.61951   0.00114   0.00000   0.01647   0.01612   1.63563
    D6       -0.56322  -0.00130   0.00000  -0.00315  -0.00263  -0.56585
    D7        1.46647  -0.00043   0.00000  -0.00147  -0.00128   1.46520
    D8       -2.73424  -0.00056   0.00000  -0.00772  -0.00766  -2.74191
    D9       -0.59879  -0.00011   0.00000  -0.00417  -0.00414  -0.60293
   D10       -0.54630  -0.00132   0.00000   0.00196   0.00222  -0.54408
   D11        1.53617  -0.00145   0.00000  -0.00429  -0.00417   1.53201
   D12       -2.61157  -0.00099   0.00000  -0.00074  -0.00064  -2.61221
   D13       -2.73932  -0.00006   0.00000  -0.00427  -0.00415  -2.74346
   D14       -0.65685  -0.00019   0.00000  -0.01053  -0.01053  -0.66738
   D15        1.47860   0.00026   0.00000  -0.00697  -0.00700   1.47160
   D16       -1.02827   0.00035   0.00000   0.00372   0.00375  -1.02452
   D17       -3.11282   0.00022   0.00000   0.00241   0.00244  -3.11037
   D18        1.07795   0.00011   0.00000   0.00026   0.00031   1.07825
   D19        1.03292  -0.00131   0.00000  -0.01886  -0.01875   1.01418
   D20       -1.05162  -0.00144   0.00000  -0.02017  -0.02005  -1.07168
   D21        3.13914  -0.00155   0.00000  -0.02231  -0.02219   3.11695
   D22       -3.08556   0.00117   0.00000   0.00907   0.00891  -3.07665
   D23        1.11307   0.00104   0.00000   0.00776   0.00760   1.12068
   D24       -0.97935   0.00094   0.00000   0.00562   0.00547  -0.97388
   D25       -0.72164  -0.00088   0.00000   0.00392   0.00365  -0.71799
   D26        1.33601  -0.00073   0.00000  -0.00388  -0.00404   1.33197
   D27       -2.82628  -0.00048   0.00000  -0.00378  -0.00395  -2.83023
   D28        1.35710  -0.00110   0.00000  -0.00330  -0.00342   1.35368
   D29       -2.86843  -0.00095   0.00000  -0.01110  -0.01111  -2.87954
   D30       -0.74754  -0.00070   0.00000  -0.01100  -0.01102  -0.75856
   D31       -2.84643  -0.00065   0.00000   0.00270   0.00258  -2.84385
   D32       -0.78877  -0.00050   0.00000  -0.00510  -0.00511  -0.79389
   D33        1.33211  -0.00025   0.00000  -0.00500  -0.00502   1.32709
   D34        1.25909  -0.00285   0.00000  -0.03249  -0.03260   1.22649
   D35       -0.83641  -0.00141   0.00000  -0.02379  -0.02378  -0.86019
   D36       -2.91759  -0.00119   0.00000  -0.02394  -0.02392  -2.94151
   D37       -0.81159  -0.00145   0.00000  -0.02264  -0.02276  -0.83434
   D38       -2.90709  -0.00000   0.00000  -0.01394  -0.01394  -2.92103
   D39        1.29492   0.00021   0.00000  -0.01409  -0.01408   1.28084
   D40       -2.94399  -0.00197   0.00000  -0.03159  -0.03172  -2.97571
   D41        1.24370  -0.00052   0.00000  -0.02289  -0.02290   1.22079
   D42       -0.83748  -0.00031   0.00000  -0.02303  -0.02304  -0.86053
   D43        2.85346  -0.00119   0.00000  -0.00610  -0.00614   2.84732
   D44        0.74117   0.00151   0.00000   0.00631   0.00637   0.74754
   D45       -1.37586  -0.00038   0.00000  -0.00266  -0.00268  -1.37854
   D46       -0.31066  -0.00151   0.00000  -0.00951  -0.00939  -0.32005
   D47       -2.37060  -0.00116   0.00000  -0.00538  -0.00527  -2.37587
   D48        1.83052  -0.00064   0.00000   0.00114   0.00125   1.83177
   D49       -2.13155  -0.00153   0.00000  -0.01638  -0.01633  -2.14788
   D50        2.09169  -0.00118   0.00000  -0.01225  -0.01220   2.07949
   D51        0.00964  -0.00066   0.00000  -0.00574  -0.00569   0.00395
   D52        1.83171   0.00030   0.00000  -0.00584  -0.00614   1.82557
   D53       -0.22823   0.00065   0.00000  -0.00170  -0.00201  -0.23024
   D54       -2.31028   0.00117   0.00000   0.00481   0.00450  -2.30578
   D55        1.04865  -0.00119   0.00000  -0.01126  -0.01104   1.03762
   D56       -2.99218  -0.00045   0.00000   0.01316   0.01336  -2.97882
   D57        3.04958  -0.00073   0.00000  -0.00671  -0.00660   3.04298
   D58       -0.99125   0.00001   0.00000   0.01770   0.01779  -0.97346
   D59       -1.12061   0.00041   0.00000  -0.00783  -0.00812  -1.12873
   D60        1.12174   0.00116   0.00000   0.01659   0.01628   1.13802
   D61        2.86936  -0.00421   0.00000  -0.01323  -0.01281   2.85654
   D62       -1.32229  -0.00049   0.00000   0.00797   0.00872  -1.31357
   D63        0.58605  -0.00134   0.00000   0.00014   0.00026   0.58631
   D64       -0.94907   0.00016   0.00000   0.00475   0.00477  -0.94430
   D65       -3.10520  -0.00020   0.00000  -0.00549  -0.00549  -3.11069
   D66        1.13681   0.00016   0.00000   0.00516   0.00513   1.14194
   D67       -2.38505  -0.00044   0.00000   0.01991   0.02039  -2.36466
   D68        1.89769  -0.00160   0.00000   0.01485   0.01519   1.91288
   D69        1.65793   0.00083   0.00000   0.01076   0.01057   1.66850
   D70       -0.34252  -0.00033   0.00000   0.00570   0.00537  -0.33715
   D71       -1.03903  -0.00035   0.00000   0.00130   0.00140  -1.03763
   D72       -3.11868   0.00071   0.00000   0.00352   0.00339  -3.11528
   D73        1.09660  -0.00016   0.00000   0.00287   0.00289   1.09949
   D74        2.99153   0.00031   0.00000   0.00498   0.00497   2.99650
   D75       -1.19082  -0.00025   0.00000  -0.00007  -0.00007  -1.19088
   D76        0.92609   0.00012   0.00000   0.00247   0.00247   0.92856
   D77        0.80394  -0.00132   0.00000  -0.01701  -0.01709   0.78685
   D78        2.73431  -0.00038   0.00000   0.00148   0.00178   2.73608
   D79       -0.17217  -0.00025   0.00000   0.00481   0.00465  -0.16752
   D80       -2.11463  -0.00015   0.00000   0.01215   0.01158  -2.10305
   D81       -2.11153  -0.00005   0.00000   0.00116   0.00160  -2.10993
   D82        2.22920   0.00005   0.00000   0.00850   0.00853   2.23773
         Item               Value     Threshold  Converged?
 Maximum Force            0.020602     0.000450     NO 
 RMS     Force            0.003773     0.000300     NO 
 Maximum Displacement     0.214585     0.001800     NO 
 RMS     Displacement     0.045397     0.001200     NO 
 Predicted change in Energy=-6.848724D-03
 GradGradGradGradGradGradGradGradGradGradGradGradGradGradGradGradGradGrad

                          Input orientation:                          
 ---------------------------------------------------------------------
 Center     Atomic      Atomic             Coordinates (Angstroms)
 Number     Number       Type             X           Y           Z
 ---------------------------------------------------------------------
      1          1           0        0.390479    1.559513    1.535617
      2          6           0        0.076082    1.115712    0.582333
      3          6           0        1.888575   -0.552519    0.257680
      4          6           0       -0.527832   -1.287014   -0.104942
      5          6           0        0.956205   -1.658546   -0.232328
      6          8           0       -0.636881   -0.082036    0.922863
      7          6           0        1.360570    0.798418   -0.204649
      8          1           0       -1.070569   -2.019146    0.501064
      9          1           0        1.156305   -1.806603   -1.303047
     10          1           0        1.136059    0.744242   -1.281580
     11          6           0       -0.807604    2.118557   -0.164013
     12          1           0       -1.685280    2.383153    0.440402
     13          1           0       -1.150318    1.665611   -1.103896
     14          8           0       -1.088423   -0.969804   -1.276645
     15          1           0        1.899174   -0.577232    1.358073
     16          8           0        0.019236    3.265921   -0.406367
     17          1           0       -0.459079    3.871645   -0.990875
     18          8           0        1.156728   -2.866643    0.490195
     19          1           0        2.104568   -3.067022    0.420201
     20          8           0        3.183942   -0.819990   -0.261082
     21          1           0        3.678658    0.013270   -0.171498
     22          8           0        2.380423    1.762616    0.033563
     23          1           0        2.006185    2.616475   -0.248123
     24          8           0       -3.134322    0.193164    1.280015
     25          1           0       -2.125473   -0.999116   -1.183858
     26          1           0       -2.102083    0.118461    1.215077
     27          1           0       -3.407100   -0.291213    2.074373
     28          8           0       -3.586149   -1.047962   -0.862123
     29          1           0       -3.582993   -0.533025    0.036266
     30          1           0       -4.076002   -0.506339   -1.499117
 ---------------------------------------------------------------------
                    Distance matrix (angstroms):
                    1          2          3          4          5
     1  H    0.000000
     2  C    1.097522   0.000000
     3  C    2.887575   2.484658   0.000000
     4  C    3.411370   2.571022   2.551470   0.000000
     5  C    3.715048   3.022383   1.527324   1.535131   0.000000
     6  O    2.031162   1.434878   2.653629   1.587528   2.521462
     7  C    2.132808   1.539456   1.522356   2.815143   2.490171
     8  H    4.001470   3.338974   3.311610   1.094451   2.185339
     9  H    4.469367   3.641629   2.131858   2.131137   1.099273
    10  H    3.026079   2.176169   2.148765   2.877328   2.628055
    11  C    2.153295   1.530893   3.818619   3.417554   4.169196
    12  H    2.487299   2.174614   4.628606   3.886800   4.874971
    13  H    3.058160   2.156343   4.001107   3.178584   4.030768
    14  O    4.061208   3.026755   3.375026   1.337076   2.396970
    15  H    2.621709   2.606049   1.100721   2.921397   2.141917
    16  O    2.611696   2.367311   4.303007   4.595581   5.015833
    17  H    3.528578   3.218159   5.161743   5.234632   5.758596
    18  O    4.612038   4.127400   2.438203   2.384776   1.421881
    19  H    5.058367   4.651484   2.528990   3.220827   1.930889
    20  O    4.085779   3.757270   1.420785   3.744296   2.380507
    21  H    4.014627   3.842160   1.925801   4.403377   3.195375
    22  O    2.501458   2.455529   2.377391   4.216322   3.715299
    23  H    2.628575   2.582101   3.211260   4.656068   4.402104
    24  O    3.788992   3.412411   5.179836   3.301942   4.737976
    25  H    4.502460   3.526864   4.288364   1.949206   3.291959
    26  H    2.896936   2.477756   4.158386   2.489192   3.821761
    27  H    4.258762   4.042051   5.604715   3.745827   5.121416
    28  O    5.325567   4.492202   5.609994   3.159711   4.626276
    29  H    4.734475   4.050353   5.476081   3.149992   4.684364
    30  H    5.781593   4.919684   6.218091   3.891361   5.315585
                    6          7          8          9         10
     6  O    0.000000
     7  C    2.456886   0.000000
     8  H    2.029384   3.787761   0.000000
     9  H    3.338311   2.834490   2.873841   0.000000
    10  H    2.947137   1.101418   3.960220   2.551016   0.000000
    11  C    2.460295   2.538779   4.199056   4.534448   2.629738
    12  H    2.721960   3.493520   4.445424   5.354276   3.689336
    13  H    2.725002   2.804501   4.019913   4.173301   2.471439
    14  O    2.414509   3.205207   2.064386   2.395774   2.808255
    15  H    2.620343   2.150490   3.410711   3.024032   3.049001
    16  O    3.661442   2.815749   5.472024   5.275174   2.893468
    17  H    4.396088   3.657047   6.107473   5.911803   3.522729
    18  O    3.340400   3.735911   2.383111   2.083123   4.022202
    19  H    4.083913   3.985673   3.344558   2.336117   4.284834
    20  O    4.067552   2.438670   4.485499   2.484030   2.771653
    21  H    4.453154   2.447670   5.209435   3.309774   2.869044
    22  O    3.646603   1.423560   5.140975   4.003038   2.077289
    23  H    3.954613   1.929777   5.613972   4.625881   2.308768
    24  O    2.537815   4.772275   3.124125   5.392657   5.010150
    25  H    2.737739   4.042583   2.234334   3.381761   3.699518
    26  H    1.507450   3.803673   2.478548   4.545757   4.136479
    27  H    3.007299   5.395546   3.304608   5.876056   5.742376
    28  O    3.580136   5.320848   3.021527   4.822947   5.068253
    29  H    3.109506   5.125388   2.955820   5.086916   5.063357
    30  H    4.227715   5.738846   3.914325   5.395013   5.364406
                   11         12         13         14         15
    11  C    0.000000
    12  H    1.098018   0.000000
    13  H    1.098177   1.784911   0.000000
    14  O    3.294659   3.814028   2.641796   0.000000
    15  H    4.112259   4.738598   4.515643   4.002697   0.000000
    16  O    1.434868   2.098016   2.101284   4.463817   4.627877
    17  H    1.969387   2.401610   2.314556   4.890538   5.556205
    18  O    5.398037   5.969912   5.329626   3.429347   2.558484
    19  H    5.975975   6.638355   5.942639   4.180047   2.668491
    20  O    4.957511   5.870394   5.066986   4.393963   2.081159
    21  H    4.955687   5.895981   5.188314   4.991277   2.419679
    22  O    3.213915   4.132859   3.710708   4.606046   2.731449
    23  H    2.858742   3.762369   3.405877   4.847252   3.576462
    24  O    3.347532   2.756941   3.433279   3.474867   5.092708
    25  H    3.535073   3.777795   2.838678   1.041605   4.778826
    26  H    2.752807   2.429542   2.945703   2.901810   4.063802
    27  H    4.192224   3.575857   4.361608   4.131110   5.362036
    28  O    4.270189   4.133089   3.654478   2.533095   5.936297
    29  H    3.843668   3.502675   3.471582   2.852611   5.639440
    30  H    4.399433   4.222138   3.665133   3.031489   6.623541
                   16         17         18         19         20
    16  O    0.000000
    17  H    0.968160   0.000000
    18  O    6.301274   7.085825   0.000000
[...]
 00037557,-0.00018233,-0.00010955,-0.00020694,-0.00151391,0.00034922,-0
 .00186187,-0.00015983,0.00030985,-0.00010302,0.00624578,-0.00008558,0.
 00314626,-0.00007404,-0.00009613,-0.00002175,-0.00007080,-0.00000416,-
 0.00004722,-0.00002464,-0.00001771,0.00007395,-0.00005758,-0.00001944,
 0.00011179,-0.00041857,0.00008842,-0.00004291,0.00018983,-0.00014654,-
 0.00075246,-0.00019984,-0.00005661,0.00038161,0.00308149,-0.00048626,0
 .00104794,0.00003518,0.00001148,0.00007531,0.00060539,0.00065063,0.000
 09062,0.00000684,-0.00016882,-0.00006715,0.00026052,-0.00021973,0.0003
 4040,-0.00001987,-0.00000863,-0.00006310,0.00027337,0.00003130,0.00008
 495,-0.00004203,0.00000984,-0.00004506,0.00031868,0.00024276,0.0001306
 5,-0.00009740,-0.00005441,-0.00007513,-0.12843790,-0.21224619,0.411079
 94,0.00021982,0.00050013,0.00001015,-0.00158113,-0.00224871,-0.0000801
 0,-0.00093237,-0.00064461,-0.00023259,-0.01839273,-0.00099309,-0.01752
 929,0.00055031,0.00140692,0.00016883,0.00013280,0.00533075,0.00773516,
 -0.00066264,-0.00064023,-0.00065329,0.00190483,-0.00121780,0.00438535,
 -0.00035668,0.00011049,0.00016035,-0.00021175,-0.00026405,0.00037266,0
 .00075510,-0.00048086,-0.00074215,-0.00014631,0.00037753,0.00040748,0.
 00051039,-0.00075723,0.00028800,-0.39085876,-0.00745613,0.01727817,0.0
 0009881,0.00004796,0.00011128,-0.00033097,0.00106631,0.00007324,0.0001
 5101,-0.00004514,-0.00005300,0.00096353,-0.00123950,0.00081027,-0.0000
 0251,0.00002008,-0.00015635,0.00113807,0.00033003,-0.00007265,-0.00008
 423,-0.00002921,-0.00000781,0.00074413,0.00099258,0.00027096,0.0000410
 0,-0.00030524,0.00003525,-0.00396510,-0.00243949,-0.00419571,0.4008775
 8,0.00016056,-0.00011161,0.00011130,-0.00091157,0.00007523,-0.00003076
 ,0.00066069,-0.00036851,0.00011989,0.01194863,-0.00017876,0.00117920,0
 .00265012,0.00194586,0.00343528,0.00041741,-0.00105962,-0.00004309,-0.
 00013636,-0.00025012,0.00076945,0.00134546,0.00000769,-0.00125007,-0.0
 0008200,-0.00006362,0.00036858,0.00002167,0.00010627,-0.00039038,-0.00
 072461,-0.00104079,-0.00122651,0.00010570,-0.00010496,0.00001759,-0.00
 044986,-0.00041763,0.00065162,-0.02473297,-0.01914431,0.00946515,-0.00
 001759,0.00004934,0.00001382,0.00075788,0.00079244,0.00031572,-0.00000
 442,-0.00022415,-0.00000829,0.00019938,-0.00065691,0.00012991,0.000099
 70,-0.00009969,0.00011164,0.00031467,0.00002878,-0.00003140,0.00001456
 ,0.00000830,-0.00001649,0.00006154,-0.00020800,-0.00030299,-0.00023428
 ,0.00009310,0.00001703,-0.00041844,-0.00057471,0.00052521,0.00667330,0
 .02906653,0.00002466,0.00012204,0.00001913,-0.00057141,-0.00093254,-0.
 00007435,-0.00024378,0.00047650,0.00030574,-0.04889256,0.00196685,-0.0
 0314034,0.00028530,0.00077356,-0.00507368,0.00255000,-0.00044173,-0.00
 058185,-0.00020763,0.00021857,-0.00006898,0.00044919,0.00033564,0.0000
 5903,0.00002645,0.00027252,0.00040644,-0.00010791,-0.00016702,0.000076
 34,-0.00013656,-0.00013338,0.00024801,0.00004163,-0.00010588,-0.000105
 83,0.00011438,0.00011168,0.00001884,0.05808582,0.00979768,-0.05427958,
 0.00006590,0.00001587,-0.00001149,0.00014387,0.00022343,-0.00018259,-0
 .00000192,0.00003056,0.00008141,-0.00124249,0.00031872,0.00021695,-0.0
 0004211,0.00037396,-0.00014945,0.00000730,-0.00025918,-0.00006164,-0.0
 0009542,0.00004160,0.00003703,0.00030831,0.00002857,-0.00001651,-0.000
 06138,-0.00005027,0.00004254,-0.00041986,0.00062987,0.00075070,-0.0095
 0332,-0.01344662,0.07529575,0.00010043,0.00058585,0.00013374,-0.002671
 69,-0.01026550,-0.00023783,-0.00150548,0.00019231,0.00014268,0.0053813
 1,0.01118171,0.00971792,-0.00084656,-0.00066390,-0.00203115,-0.0007399
 9,-0.00323263,-0.00603195,-0.00090547,0.00140864,0.00055582,0.00006943
 ,-0.00089571,-0.00011938,0.00080076,-0.00037589,-0.00024197,0.00027906
 ,-0.00012547,-0.00033541,0.00212532,-0.00112302,0.00034586,-0.00011853
 ,0.00052302,0.00032614,0.00001570,0.00005301,-0.00018765,-0.00408296,-
 0.00100420,-0.00493614,-0.00006828,0.00001492,-0.00011300,-0.00082970,
 0.00140564,-0.00053507,0.00020066,0.00014837,-0.00010835,0.00055701,-0
 .00109465,0.00029303,-0.00004425,0.00016146,0.00002302,0.00113808,-0.0
 0020600,-0.00022532,-0.00028087,0.00005731,-0.00000916,0.00199548,0.00
 095598,-0.00054957,-0.00009183,-0.00044972,0.00022582,-0.41421834,0.04
 672155,0.04510384,0.00467076,0.00004262,-0.00036485,0.42183685,-0.0003
 0097,-0.00033330,-0.00018488,-0.00368108,0.00390373,0.00158657,0.00018
 261,0.00024192,-0.00009268,0.00368921,0.00028477,-0.00178162,0.0000290
 2,-0.00048876,-0.00042443,-0.00060756,-0.01084899,-0.00087016,0.000030
 58,-0.00110441,0.00000398,0.00012865,-0.00097590,-0.00003126,0.0000254
 9,-0.00003186,0.00001719,-0.00002146,0.00007520,0.00006393,-0.00301790
 ,0.00015584,0.00161384,0.00094251,-0.00192629,0.00006806,0.00032130,0.
 00001023,-0.00024967,-0.00020099,-0.00062969,0.00075872,0.00001396,-0.
 00000552,0.00001403,0.00155929,0.00041459,-0.00061091,-0.00004879,-0.0
 0015506,0.00020723,-0.00012219,-0.00007035,0.00007212,-0.00000122,-0.0
 0000328,0.00003367,-0.00010487,-0.00023538,0.00005929,-0.00004988,0.00
 004199,-0.00001220,-0.00045094,-0.00042589,0.00015332,-0.00027263,0.00
 017777,-0.00003764,0.07969012,-0.03467730,0.01133545,0.00016091,0.0003
 3956,-0.00076422,-0.04800243,0.04409470,-0.00049804,-0.00040969,-0.000
 09362,0.00205900,0.00356199,0.00012821,0.00044293,-0.00000405,0.000184
 94,0.00239345,-0.00369072,-0.00257016,0.00019257,-0.00033640,0.0006099
 9,-0.00507760,-0.00011329,-0.00398302,0.00029094,-0.00015347,-0.000210
 03,-0.00003987,0.00017104,0.00016081,-0.00018105,0.00011429,0.00002150
 ,-0.00003421,0.00003704,-0.00000537,0.00044235,0.00076175,-0.00030712,
 -0.00001021,0.00029131,0.00040547,0.00014797,-0.00002476,-0.00034729,-
 0.00013167,0.00103113,0.00089855,0.00000269,-0.00000778,-0.00001371,-0
 .00045168,-0.00094439,0.00015268,-0.00007161,0.00008065,0.00001777,-0.
 00020886,0.00041810,-0.00031305,0.00001551,-0.00005929,0.00003428,-0.0
 0048579,0.00006313,-0.00001395,0.00010214,-0.00002981,0.00003494,-0.00
 072711,-0.00037191,0.00004673,0.00013831,0.00011860,-0.00000074,-0.003
 36077,0.01932177,-0.04912213,-0.00056289,-0.00098329,-0.00128731,-0.03
 235566,-0.01447434,0.05810056,-0.00006636,-0.00003792,-0.00000640,0.00
 012962,-0.00010204,-0.00000255,-0.00009685,-0.00001339,0.00007042,-0.0
 0026989,-0.00019815,0.00031868,-0.00004057,0.00014614,0.00009885,-0.00
 213073,0.00127651,-0.00049764,-0.00011753,-0.00005043,0.00000771,0.000
 00705,0.00022954,0.00004984,0.00001064,0.00000004,-0.00001457,0.000020
 64,-0.00000084,-0.00001902,0.00013726,-0.00019390,0.00000367,-0.000226
 57,-0.00014186,0.00007116,-0.00000766,0.00001267,-0.00000265,-0.000002
 51,0.00006140,-0.00028249,-0.00000927,-0.00000015,-0.00002705,-0.00002
 432,0.00014656,-0.00002909,-0.00000183,-0.00002406,0.00000145,0.000048
 22,-0.00007878,-0.00005826,-0.00000333,0.00003919,0.00000277,0.0001558
 2,-0.00000202,-0.00006442,-0.00003082,-0.00000174,0.00001231,0.0001037
 2,0.00008017,-0.00003881,-0.00002443,-0.00003316,0.00002788,-0.0810597
 5,-0.04118427,0.07783198,-0.00006258,0.00001438,0.00012768,-0.00767999
 ,-0.02717816,0.04249366,0.08993481,-0.00009256,-0.00003893,-0.00004109
 ,0.00006379,0.00003014,0.00022095,0.00002121,0.00005965,0.00003488,0.0
 0011723,0.00082119,-0.00015993,0.00001150,-0.00005937,-0.00004750,0.00
 091313,-0.00056460,-0.00021846,-0.00000430,0.00006988,-0.00004479,0.00
 002329,-0.00022274,-0.00000200,-0.00000965,-0.00001151,0.00000593,0.00
 001998,-0.00000582,-0.00001961,0.00023265,-0.00020348,-0.00020997,-0.0
 0005365,0.00032847,0.00017950,-0.00000608,0.00003542,-0.00001427,0.000
 02663,-0.00025964,0.00010287,-0.00000446,0.00000390,-0.00000870,-0.000
 16487,-0.00019323,0.00003200,-0.00001300,0.00003797,0.00001348,-0.0000
 4723,-0.00006221,0.00002724,0.00000612,0.00000481,0.00001451,-0.000058
 92,-0.00005189,0.00000168,-0.00000209,0.00001161,0.00000082,-0.0000334
 1,-0.00008288,-0.00003044,0.00000736,0.00001655,0.00002231,-0.07295152
 ,-0.12971564,0.21173607,-0.00008023,0.00019064,-0.00001540,0.00522593,
 0.00196924,-0.00508737,0.06543727,0.12688722,-0.00003932,-0.00005918,-
 0.00001904,0.00027413,0.00040128,0.00006297,0.00006055,0.00005164,0.00
 005837,0.00019039,0.00019617,-0.00028828,0.00005794,-0.00012541,0.0000
 6931,-0.00092979,-0.00015905,0.00041507,0.00005043,0.00000171,-0.00001
 354,0.00005903,-0.00021970,0.00002265,-0.00003182,0.00001015,-0.000002
 40,0.00000152,0.00000835,-0.00001014,-0.00003612,-0.00006378,-0.000006
 05,0.00013615,0.00035783,-0.00019232,-0.00002656,0.00002255,0.00000689
 ,-0.00013615,-0.00013546,0.00012685,-0.00000615,-0.00000448,-0.0000155
 5,-0.00001645,-0.00013381,0.00003154,-0.00000894,0.00001254,0.00001442
 ,-0.00006881,0.00004363,-0.00006321,0.00000485,-0.00000669,0.00002469,
 -0.00010240,-0.00002510,-0.00001204,0.00001141,0.00000056,0.00000865,-
 0.00010442,-0.00008410,-0.00000980,0.00001565,0.00002379,0.00000772,0.
 12364057,0.19918658,-0.34504714,0.00015142,0.00016145,-0.00010613,-0.0
 0413660,0.00388474,-0.00407337,-0.12001954,-0.20523033,0.35176065,-0.0
 0017574,-0.00024603,-0.00007941,0.00108875,0.00139886,0.00012543,0.000
 65002,0.00039025,0.00011666,0.00232170,-0.00050684,0.01226197,0.000293
 12,-0.00043179,-0.00109633,-0.00058190,-0.00273071,-0.00350111,0.00046
 457,0.00042086,0.00036232,0.00031593,0.00027286,-0.00107628,0.00031838
 ,-0.00006631,-0.00032900,0.00010095,0.00010561,-0.00026448,0.00000291,
 0.00081254,0.00070199,0.00000305,-0.00009705,-0.00009352,0.00007881,0.
 00034563,-0.00045183,-0.02640393,0.00229728,-0.00261701,-0.00009838,-0
 .00004958,-0.00008993,-0.00021405,-0.00104112,-0.00008538,-0.00007319,
 0.00017001,0.00003880,-0.00107206,0.00091660,-0.00064279,0.00003231,0.
 00000966,-0.00000933,-0.00088933,-0.00014409,0.00005017,0.00012001,0.0
 0000262,0.00001239,-0.00066006,-0.00067799,-0.00017242,0.00008530,0.00
 020659,-0.00002191,0.00701734,-0.00111090,-0.00322982,0.00213298,-0.00
 562984,-0.00220886,-0.00140797,0.00093439,0.00272959,-0.00087874,-0.00
 071300,-0.00082599,0.16732427,-0.00004985,0.00011012,-0.00007230,0.000
 34959,-0.00018642,0.00027930,0.00009021,-0.00020662,-0.00001472,-0.000
 42345,-0.00181209,-0.00082926,-0.00008351,-0.00012871,-0.00005877,-0.0
 0119875,0.00134261,0.00049808,0.00017961,0.00002363,-0.00020627,-0.000
 22592,0.00025858,-0.00046323,-0.00004327,0.00001972,0.00003192,-0.0000
 0478,-0.00002446,0.00002493,0.00084972,0.00060683,0.00021178,-0.000127
 48,0.00028412,0.00029526,0.00046605,0.00005474,-0.00043871,0.00301176,
 0.00512265,0.00013611,0.00000767,0.00001815,0.00002156,-0.00075474,-0.
 00052263,0.00001108,0.00008657,0.00017756,-0.00006643,0.00002051,0.000
 34969,0.00002486,-0.00001450,-0.00007169,-0.00004810,-0.00019621,0.000
 21339,0.00003940,0.00009324,-0.00005463,0.00000965,-0.00027973,0.00009
 688,0.00005513,0.00022837,-0.00002016,-0.00001916,-0.00114445,0.003671
 68,-0.00892080,-0.00203649,-0.00824090,0.00092154,0.00175118,-0.001007
 75,-0.00055121,-0.00191231,-0.00220205,-0.00192714,-0.17859262,0.34793
 526,0.00011067,-0.00001943,0.00006086,0.00024164,0.00090087,-0.0000518
 0,0.00009967,-0.00016067,-0.00006568,0.00109763,-0.00091656,-0.0062454
 6,0.00006887,-0.00002855,0.00072372,-0.00260531,0.00131226,0.00278596,
 0.00009217,-0.00023258,-0.00041768,0.00024674,-0.00065024,0.00080215,-
 0.00033298,0.00007015,0.00014579,-0.00008720,-0.00001462,0.00017927,0.
 00056689,-0.00018648,-0.00097345,-0.00013932,0.00038282,0.00006639,-0.
 00017518,-0.00008568,0.00023393,0.00572273,-0.00104567,0.00891819,0.00
 005625,0.00001466,0.00009711,-0.00026382,-0.00010423,0.00047664,0.0000
 2261,-0.00008240,-0.00018294,0.00026898,-0.00005725,0.00030896,-0.0000
 2020,-0.00009941,-0.00004619,-0.00010653,0.00010656,0.00013324,0.00004
 161,-0.00001545,-0.00004273,-0.00023997,0.00005972,0.00025610,0.000081
 79,0.00000711,-0.00010024,-0.00737358,-0.00973768,-0.01960666,-0.00604
 545,0.00261907,-0.01379970,0.00553197,0.00007616,-0.00204730,-0.001749
 39,-0.00193712,-0.00002404,0.13107812,-0.01282281,0.57363456,0.0000631
 6,0.00008385,0.00003401,-0.00062450,-0.00095264,-0.00006699,-0.0002135
 9,-0.00001654,-0.00002419,-0.00194947,0.00108265,0.00123245,-0.0001243
 4,0.00037683,-0.00019405,0.00178307,-0.00005089,-0.00009208,-0.0002112
 3,0.00000623,0.00014969,0.00002880,0.00038833,-0.00016803,0.00010918,-
 0.00003427,-0.00002448,0.00001856,-0.00001255,-0.00002565,-0.00034167,
 -0.00038390,0.00006808,0.00009133,-0.00014145,-0.00008021,-0.00005391,
 -0.00004369,0.00015292,-0.00196958,-0.00124751,-0.00222035,-0.00000265
 ,0.00000258,-0.00001828,0.00032884,0.00053267,-0.00012406,0.00001925,-
 0.00006659,0.00003948,0.00008614,-0.00024950,0.00003363,-0.00000361,0.
 00006991,0.00000060,0.00033339,-0.00003816,-0.00006057,-0.00006681,0.0
 0001625,0.00000493,0.00036078,0.00015351,-0.00007707,-0.00010522,-0.00
 006149,0.00004016,-0.01066582,0.00024232,0.00425079,0.00302441,0.00314
 945,0.00669519,-0.00374799,-0.00383916,-0.00696747,0.00192111,0.002177
 34,0.00176682,-0.03135415,0.03036830,0.01946367,0.04283971,-0.00002855
 ,-0.00008466,0.00002141,-0.00018122,-0.00000953,-0.00021913,-0.0000628
 6,0.00022973,0.00003576,0.00074512,0.00211273,0.00161306,-0.00000338,-
 0.00016057,-0.00017403,0.00146555,-0.00150542,-0.00107632,-0.00009779,
 0.00005057,0.00021111,0.00008586,-0.00031976,0.00018936,0.00006076,-0.
 00003589,-0.00004995,0.00003014,0.00001605,-0.00005305,-0.00081363,-0.
 00020446,0.00045672,0.00009871,-0.00034907,-0.00027615,-0.00005835,0.0
 0007136,0.00007087,-0.00203382,-0.00069390,-0.00096797,-0.00001968,-0.
 00001733,-0.00003280,0.00056151,0.00027986,-0.00019171,-0.00006643,-0.
 00006888,0.00010794,-0.00008686,-0.00016557,-0.00006623,0.00000709,0.0
 0005050,0.00003466,0.00006793,-0.00018671,-0.00003638,-0.00006728,0.00
 004026,-0.00000162,0.00019245,-0.00010787,-0.00008015,-0.00015389,0.00
 002082,0.00002891,-0.00230789,-0.01027310,-0.00043871,0.00320307,0.000
 33939,-0.00014982,-0.00318695,0.00094658,0.00121908,0.00354484,0.00317
 255,0.00371324,0.02030948,-0.12288857,-0.17564431,-0.02191787,0.118082
 03,-0.00019276,-0.00001679,-0.00008146,-0.00009197,-0.00107143,0.00007
 595,-0.00010586,0.00021201,0.00012957,0.00161959,0.00182132,0.00669679
 ,-0.00003038,-0.00019181,-0.00042494,0.00327470,-0.00187987,-0.0037258
 3,-0.00010136,0.00031314,0.00038259,0.00001819,0.00020319,-0.00022199,
 0.00026670,-0.00008248,-0.00018424,0.00011443,0.00001978,-0.00019951,-
 0.00065134,0.00032967,0.00117185,0.00014753,-0.00051414,0.00015485,0.0
 0028254,0.00007279,-0.00045913,-0.00697041,0.00046948,-0.00314215,-0.0
 0006625,-0.00002042,-0.00010369,0.00018620,0.00003031,-0.00056008,-0.0
 0000010,0.00010685,0.00018030,-0.00023367,0.00000394,-0.00033490,0.000
 01744,0.00008373,0.00006413,0.00006211,-0.00014231,-0.00013298,-0.0000
 4826,0.00002069,0.00003518,0.00025880,-0.00007427,-0.00026750,-0.00006
 987,-0.00001395,0.00010274,0.00668031,0.00568350,0.00099010,0.01081441
 ,-0.00128510,-0.00114875,-0.00971939,-0.00067213,0.00340340,0.00161492
 ,0.00062394,-0.00290467,-0.00852995,-0.12447116,-0.33156789,-0.0009668
 0,0.13630647,0.35462445,0.00006306,-0.00004867,0.00005933,-0.00014733,
 0.00020791,-0.00008568,-0.00006590,0.00002974,-0.00001426,0.00027354,0
 .00018158,-0.00052324,-0.00000922,0.00018479,0.00008298,0.00008494,-0.
 00017482,0.00029230,-0.00010853,-0.00009954,-0.00001251,0.00012687,-0.
 00011859,0.00020277,-0.00002992,-0.00000044,0.00000022,-0.00001771,0.0
 0000607,0.00003183,-0.00024896,-0.00046192,-0.00040676,0.00003018,-0.0
 0003990,-0.00005920,-0.00020041,0.00000773,0.00023855,-0.00173244,-0.0
 0173569,0.00199419,0.00001161,-0.00000492,0.00001321,0.00032328,0.0003
 8358,0.00013458,-0.00001519,-0.00014034,-0.00003589,0.00006191,-0.0001
 5599,0.00006820,-0.00000648,0.00002627,-0.00000879,0.00014386,-0.00005
 732,0.00000343,-0.00004681,0.00001912,-0.00001317,0.00013714,0.0000342
 7,0.00003535,-0.00009781,-0.00001180,-0.00001291,-0.00032091,0.0001789
 5,0.00083324,-0.00032775,0.00470423,-0.00482564,0.00006903,0.00019220,
 -0.00028662,0.00026486,-0.00004849,0.00006823,-0.11854091,0.14958526,-
 0.14565310,0.00042681,0.00071394,0.00242049,0.11989920,0.00003746,-0.0
 0003791,0.00003176,-0.00003443,0.00024138,-0.00008529,-0.00003507,0.00
 004348,-0.00001739,-0.00007144,0.00002290,0.00011619,0.00000965,0.0000
 8243,0.00000795,0.00002655,-0.00021252,-0.00003546,-0.00004917,-0.0000
 4933,0.00006123,-0.00006631,0.00000569,-0.00006549,0.00001367,-0.00000
 326,-0.00000763,-0.00000639,0.00000967,0.00000526,-0.00020105,-0.00022
 877,-0.00007743,0.00001924,-0.00004634,-0.00014405,-0.00014767,0.00005
 835,0.00014232,-0.00080467,-0.00012216,0.00006724,0.00000202,-0.000005
 31,-0.00000182,0.00025887,0.00016788,0.00003271,-0.00006595,-0.0000785
 7,0.00000616,0.00001384,-0.00008766,-0.00000096,0.00000223,0.00002873,
 0.00000905,0.00009097,-0.00005521,-0.00001343,-0.00003155,0.00001785,-
 0.00000207,0.00008407,-0.00002507,-0.00000473,-0.00008567,0.00001047,0
 .00000092,-0.00047166,-0.00176862,-0.00129322,0.00065798,-0.00029883,-
 0.00019309,0.00019655,0.00026364,0.00005188,0.00016450,0.00003475,0.00
 009801,0.16344462,-0.22291892,0.19829178,-0.00959401,0.01165887,-0.015
 86495,-0.15335720,0.21329241,0.00000947,0.00001716,0.00000339,-0.00013
 810,-0.00014820,-0.00006394,-0.00007290,-0.00001061,-0.00001246,-0.000
 34170,0.00016649,-0.00039516,-0.00007032,0.00005560,0.00005271,0.00032
 069,0.00000777,0.00000908,-0.00004956,-0.00003476,0.00007683,-0.000143
 05,0.00004197,-0.00006309,0.00001916,-0.00000875,0.00000341,-0.0000016
 1,-0.00000769,-0.00000454,-0.00018709,-0.00006520,0.00016385,0.0000248
 7,-0.00008036,-0.00012275,-0.00003547,-0.00001486,0.00007734,0.0026153
 4,0.00028973,-0.00073574,0.,0.00000324,-0.00000950,0.00018072,0.000153
 65,-0.00009871,-0.00002248,-0.00000781,0.00006978,0.00007097,-0.000074
 76,0.00000432,0.00000203,0.00001232,0.00001399,0.00011319,-0.00000857,
 -0.00003669,-0.00001913,0.00000290,0.00001125,0.00009985,0.00004037,-0
 .00003678,-0.00004169,-0.00001063,0.00002748,0.00050302,-0.00231454,-0
 .00099228,-0.00323838,-0.00099689,0.00253026,-0.00016141,0.00025782,0.
 00018835,0.00007890,0.00005080,0.00017789,-0.12215209,0.14834950,-0.21
 365113,-0.02282213,0.03544975,-0.02255219,0.14545887,-0.18111543,0.235
 36502\\0.00002021,-0.00000619,-0.00000924,-0.00002559,0.00000765,0.000
 00285,0.00000040,-0.00002976,0.00001700,-0.00011621,0.00004240,-0.0000
 6514,0.00011991,-0.00002595,0.00000885,0.00004984,-0.00000158,0.000038
 15,0.00004957,0.00004136,-0.00003310,0.00001611,-0.00001519,0.00001429
 ,-0.00001690,-0.00000001,0.00000246,-0.00001227,-0.00000695,-0.0000020
 5,0.00002421,-0.00000560,0.00001947,0.00000636,0.00000788,-0.00000329,
 -0.00000127,0.00000486,-0.00000193,-0.00004354,-0.00006409,0.00006022,
 0.00000249,-0.00000751,0.00000143,-0.00002141,0.00003167,-0.00001557,0
 .00001510,0.00000496,-0.00001535,-0.00002810,0.00001798,-0.00000871,-0
 .00001224,-0.00000290,-0.00000239,-0.00000852,-0.00001229,0.00000661,-
 0.00001056,-0.00001277,-0.00000831,-0.00000669,-0.00004209,0.00000056,
 -0.00000381,-0.00002268,0.00000753,0.00003584,0.00004255,-0.00000108,0
 .00006222,0.00005447,-0.00001171,-0.00007557,-0.00000123,-0.00001986,0
 .00000035,-0.00001237,-0.00000056,-0.00006520,-0.00002257,0.00003591,0
 .00004140,0.00000810,-0.00002277,0.00000387,0.00002783,0.00000572\\\@


            THE IRISH PIG
 'TWAS AN EVENING IN NOVEMBER,
 AS I VERY WELL REMEMBER
 I WAS STROLLING DOWN THE STREET IN DRUNKEN PRIDE,
 BUT MY KNEES WERE ALL A'FLUTTER
 SO I LANDED IN THE GUTTER,
 AND A PIG CAME UP AND LAY DOWN BY MY SIDE.

 YES, I LAY THERE IN THE GUTTER
 THINKING THOUGHTS I COULD NOT UTTER
 WHEN A COLLEEN PASSING BY DID SOFTLY SAY,
 'YE CAN TELL A MAN THAT BOOZES
 BY THE COMPANY THAT HE CHOOSES.' -
 AT THAT, THE PIG GOT UP AND WALKED AWAY!
     -- THE ECONOMIST, AUGUST 23, 1986
 Job cpu time:       0 days  0 hours 36 minutes 23.0 seconds.
 File lengths (MBytes):  RWF=    221 Int=      0 D2E=      0 Chk=      6 Scr=      1
 Normal termination of Gaussian 09 at Sun Jan 15 12:46:51 2017.
