 Entering Gaussian System, Link 0=g09
 Initial command:
 /global/software/gaussian/g09.e01/l1.exe "/scratch/10462941.yak.local/Gau-14150.inp" -scrdir="/scratch/10462941.yak.local/"
 Entering Link 1 = /global/software/gaussian/g09.e01/l1.exe PID=     14151.
  
 Copyright (c) 1988,1990,1992,1993,1995,1998,2003,2009,2015,
            Gaussian, Inc.  All Rights Reserved.
  
 This is part of the Gaussian(R) 09 program.  It is based on
 the Gaussian(R) 03 system (copyright 2003, Gaussian, Inc.),
 the Gaussian(R) 98 system (copyright 1998, Gaussian, Inc.),
 the Gaussian(R) 94 system (copyright 1995, Gaussian, Inc.),
 the Gaussian 92(TM) system (copyright 1992, Gaussian, Inc.),
 the Gaussian 90(TM) system (copyright 1990, Gaussian, Inc.),
 the Gaussian 88(TM) system (copyright 1988, Gaussian, Inc.),
 the Gaussian 86(TM) system (copyright 1986, Carnegie Mellon
 University), and the Gaussian 82(TM) system (copyright 1983,
 Carnegie Mellon University). Gaussian is a federally registered
 trademark of Gaussian, Inc.
  
 This software contains proprietary and confidential information,
 including trade secrets, belonging to Gaussian, Inc.
  
 This software is provided under written license and may be
 used, copied, transmitted, or stored only in accord with that
 written license.
  
 The following legend is applicable only to US Government
 contracts under FAR:
  
                    RESTRICTED RIGHTS LEGEND
  
 Use, reproduction and disclosure by the US Government is
 subject to restrictions as set forth in subparagraphs (a)
 and (c) of the Commercial Computer Software - Restricted
 Rights clause in FAR 52.227-19.
  
 Gaussian, Inc.
 340 Quinnipiac St., Bldg. 40, Wallingford CT 06492
  
  
 ---------------------------------------------------------------
 Warning -- This program may not be used in any manner that
 competes with the business of Gaussian, Inc. or will provide
 assistance to any competitor of Gaussian, Inc.  The licensee
 of this program is prohibited from giving any competitor of
 Gaussian, Inc. access to this program.  By using this program,
 the user acknowledges that Gaussian, Inc. is engaged in the
 business of creating and licensing software in the field of
 computational chemistry and represents and warrants to the
 licensee that it is not a competitor of Gaussian, Inc. and that
 it will not use this program in any manner prohibited above.
 ---------------------------------------------------------------
  

 Cite this work as:
 Gaussian 09, Revision E.01,
 M. J. Frisch, G. W. Trucks, H. B. Schlegel, G. E. Scuseria, 
 M. A. Robb, J. R. Cheeseman, G. Scalmani, V. Barone, B. Mennucci, 
 G. A. Petersson, H. Nakatsuji, M. Caricato, X. Li, H. P. Hratchian, 
 A. F. Izmaylov, J. Bloino, G. Zheng, J. L. Sonnenberg, M. Hada, 
 M. Ehara, K. Toyota, R. Fukuda, J. Hasegawa, M. Ishida, T. Nakajima, 
 Y. Honda, O. Kitao, H. Nakai, T. Vreven, J. A. Montgomery, Jr., 
 J. E. Peralta, F. Ogliaro, M. Bearpark, J. J. Heyd, E. Brothers, 
 K. N. Kudin, V. N. Staroverov, T. Keith, R. Kobayashi, J. Normand, 
 K. Raghavachari, A. Rendell, J. C. Burant, S. S. Iyengar, J. Tomasi, 
 M. Cossi, N. Rega, J. M. Millam, M. Klene, J. E. Knox, J. B. Cross, 
 V. Bakken, C. Adamo, J. Jaramillo, R. Gomperts, R. E. Stratmann, 
 O. Yazyev, A. J. Austin, R. Cammi, C. Pomelli, J. W. Ochterski, 
 R. L. Martin, K. Morokuma, V. G. Zakrzewski, G. A. Voth, 
 P. Salvador, J. J. Dannenberg, S. Dapprich, A. D. Daniels, 
 O. Farkas, J. B. Foresman, J. V. Ortiz, J. Cioslowski, 
 and D. J. Fox, Gaussian, Inc., Wallingford CT, 2013.
 
 ******************************************
 Gaussian 09:  ES64L-G09RevE.01 30-Nov-2015
                15-Jan-2017 
 ******************************************
 %NPROCS=4
 Will use up to    4 processors via shared memory.
 -----------------------------------------
 # opt=(MaxCycle=1000) freq B3LYP/6-31G(d)
 -----------------------------------------
 1/6=1000,14=-1,18=20,19=15,26=3,38=1/1,3;
 2/9=110,12=2,17=6,18=5,40=1/2;
 3/5=1,6=6,7=1,11=2,16=1,25=1,30=1,71=1,74=-5/1,2,3;
 4//1;
 5/5=2,38=5/2;
 6/7=2,8=2,9=2,10=2,28=1/1;
 7//1,2,3,16;
 1/6=1000,14=-1,18=20,19=15,26=3/3(2);
 2/9=110/2;
 99//99;
 2/9=110/2;
 3/5=1,6=6,7=1,11=2,16=1,25=1,30=1,71=1,74=-5/1,2,3;
 4/5=5,16=3,69=1/1;
 5/5=2,38=5/2;
 7//1,2,3,16;
 1/6=1000,14=-1,18=20,19=15,26=3/3(-5);
 2/9=110/2;
 6/7=2,8=2,9=2,10=2,19=2,28=1/1;
 99/9=1/99;
 ----------------------------------------------
 ./boats/1/glo_1w_beta_ts_boat1_B3LYP_631Gd.out
 ----------------------------------------------
 Symbolic Z-matrix:
 Charge =  0 Multiplicity = 1
 H                    -0.03949   1.58585   1.43304 
 C                    -0.49249   1.11035   0.54998 
 C                     1.12399  -0.7548    0.05618 
 C                    -1.32516  -1.47863   0.08371 
 C                     0.08205  -1.783    -0.41286 
 O                    -1.26215   0.01164   1.01467 
 C                     0.67933   0.65594  -0.34428 
 H                    -1.61925  -2.07321   0.95191 
 H                     0.06318  -1.75124  -1.51332 
 H                     0.36897   0.62867  -1.40062 
 C                    -1.34657   2.1672   -0.17099 
 H                    -2.1399    2.53875   0.49528 
 H                    -1.81263   1.70982  -1.0558 
 O                    -2.23236  -1.32207  -0.87548 
 H                     1.20274  -0.81428   1.15284 
 O                    -0.46458   3.23365  -0.54537 
 H                    -0.92138   3.81887  -1.16702 
 O                     0.44697  -3.07157   0.05088 
 H                     1.40114  -3.12878  -0.14065 
 O                     2.32082  -1.17896  -0.56451 
 H                     3.08158  -0.72139  -0.1347 
 O                     1.75944   1.58308  -0.20755 
 H                     1.38721   2.45142  -0.44951 
 O                    -3.66648  -0.0646    0.62501 
 H                    -3.06475  -0.97492  -0.41132 
 H                    -2.74957   0.1918    0.96137 
 O                     4.14413   0.50539   0.62555 
 H                     3.44788   1.14065   0.35124 
 H                     4.08273   0.48157   1.59249 
 H                    -4.05991   0.71875   0.21512 
 
 Add virtual bond connecting atoms O24        and H25        Dist= 2.84D+00.
 Add virtual bond connecting atoms H26        and O6         Dist= 2.83D+00.
 Add virtual bond connecting atoms O27        and H21        Dist= 3.39D+00.
 Add virtual bond connecting atoms H28        and O22        Dist= 3.46D+00.

 GradGradGradGradGradGradGradGradGradGradGradGradGradGradGradGradGradGrad
 Berny optimization.
 Initialization pass.
                           ----------------------------
                           !    Initial Parameters    !
                           ! (Angstroms and Degrees)  !
 --------------------------                            --------------------------
 ! Name  Definition              Value          Derivative Info.                !
 --------------------------------------------------------------------------------
 ! R1    R(1,2)                  1.1005         estimate D2E/DX2                !
 ! R2    R(2,6)                  1.4197         estimate D2E/DX2                !
 ! R3    R(2,7)                  1.5425         estimate D2E/DX2                !
 ! R4    R(2,11)                 1.5382         estimate D2E/DX2                !
 ! R5    R(3,5)                  1.5372         estimate D2E/DX2                !
 ! R6    R(3,7)                  1.5324         estimate D2E/DX2                !
 ! R7    R(3,15)                 1.1011         estimate D2E/DX2                !
 ! R8    R(3,20)                 1.4134         estimate D2E/DX2                !
 ! R9    R(4,5)                  1.523          estimate D2E/DX2                !
 ! R10   R(4,8)                  1.0926         estimate D2E/DX2                !
 ! R11   R(4,14)                 1.3295         estimate D2E/DX2                !
 ! R12   R(5,9)                  1.1011         estimate D2E/DX2                !
 ! R13   R(5,18)                 1.4173         estimate D2E/DX2                !
 ! R14   R(6,26)                 1.4992         estimate D2E/DX2                !
 ! R15   R(7,10)                 1.1013         estimate D2E/DX2                !
 ! R16   R(7,22)                 1.43           estimate D2E/DX2                !
 ! R17   R(11,12)                1.1006         estimate D2E/DX2                !
 ! R18   R(11,13)                1.0997         estimate D2E/DX2                !
 ! R19   R(11,16)                1.4337         estimate D2E/DX2                !
 ! R20   R(14,25)                1.0143         estimate D2E/DX2                !
 ! R21   R(16,17)                0.9683         estimate D2E/DX2                !
 ! R22   R(18,19)                0.9749         estimate D2E/DX2                !
 ! R23   R(20,21)                0.9863         estimate D2E/DX2                !
 ! R24   R(21,27)                1.7922         estimate D2E/DX2                !
 ! R25   R(22,23)                0.9753         estimate D2E/DX2                !
 ! R26   R(22,28)                1.8327         estimate D2E/DX2                !
 ! R27   R(24,25)                1.5049         estimate D2E/DX2                !
 ! R28   R(24,26)                1.0098         estimate D2E/DX2                !
 ! R29   R(24,30)                0.9677         estimate D2E/DX2                !
 ! R30   R(27,28)                0.9816         estimate D2E/DX2                !
 ! R31   R(27,29)                0.9692         estimate D2E/DX2                !
 ! A1    A(1,2,6)              107.1517         estimate D2E/DX2                !
 ! A2    A(1,2,7)              106.2465         estimate D2E/DX2                !
 ! A3    A(1,2,11)             107.9257         estimate D2E/DX2                !
 ! A4    A(6,2,7)              111.9394         estimate D2E/DX2                !
 ! A5    A(6,2,11)             112.5893         estimate D2E/DX2                !
 ! A6    A(7,2,11)             110.6387         estimate D2E/DX2                !
 ! A7    A(5,3,7)              109.838          estimate D2E/DX2                !
 ! A8    A(5,3,15)             108.4365         estimate D2E/DX2                !
 ! A9    A(5,3,20)             103.8422         estimate D2E/DX2                !
 ! A10   A(7,3,15)             109.3148         estimate D2E/DX2                !
 ! A11   A(7,3,20)             114.0311         estimate D2E/DX2                !
 ! A12   A(15,3,20)            111.1382         estimate D2E/DX2                !
 ! A13   A(5,4,8)              113.5177         estimate D2E/DX2                !
 ! A14   A(5,4,14)             114.7583         estimate D2E/DX2                !
 ! A15   A(8,4,14)             116.9816         estimate D2E/DX2                !
 ! A16   A(3,5,4)              113.1501         estimate D2E/DX2                !
 ! A17   A(3,5,9)              107.2947         estimate D2E/DX2                !
 ! A18   A(3,5,18)             109.4988         estimate D2E/DX2                !
 ! A19   A(4,5,9)              107.7142         estimate D2E/DX2                !
 ! A20   A(4,5,18)             108.2357         estimate D2E/DX2                !
 ! A21   A(9,5,18)             110.9567         estimate D2E/DX2                !
 ! A22   A(2,6,26)             115.6726         estimate D2E/DX2                !
 ! A23   A(2,7,3)              109.8851         estimate D2E/DX2                !
 ! A24   A(2,7,10)             110.4428         estimate D2E/DX2                !
 ! A25   A(2,7,22)             109.1094         estimate D2E/DX2                !
 ! A26   A(3,7,10)             108.0369         estimate D2E/DX2                !
 ! A27   A(3,7,22)             110.6533         estimate D2E/DX2                !
 ! A28   A(10,7,22)            108.7002         estimate D2E/DX2                !
 ! A29   A(2,11,12)            110.3909         estimate D2E/DX2                !
 ! A30   A(2,11,13)            109.067          estimate D2E/DX2                !
 ! A31   A(2,11,16)            106.971          estimate D2E/DX2                !
 ! A32   A(12,11,13)           108.7839         estimate D2E/DX2                !
 ! A33   A(12,11,16)           110.5123         estimate D2E/DX2                !
 ! A34   A(13,11,16)           111.1007         estimate D2E/DX2                !
 ! A35   A(4,14,25)            105.6719         estimate D2E/DX2                !
 ! A36   A(11,16,17)           109.087          estimate D2E/DX2                !
 ! A37   A(5,18,19)            103.9504         estimate D2E/DX2                !
 ! A38   A(3,20,21)            108.8168         estimate D2E/DX2                !
 ! A39   A(20,21,27)           163.6751         estimate D2E/DX2                !
 ! A40   A(7,22,23)            105.3826         estimate D2E/DX2                !
 ! A41   A(7,22,28)            124.6455         estimate D2E/DX2                !
 ! A42   A(23,22,28)           129.9576         estimate D2E/DX2                !
 ! A43   A(25,24,26)            91.1408         estimate D2E/DX2                !
 ! A44   A(25,24,30)           111.1336         estimate D2E/DX2                !
 ! A45   A(26,24,30)           107.7418         estimate D2E/DX2                !
 ! A46   A(14,25,24)           148.2427         estimate D2E/DX2                !
 ! A47   A(6,26,24)            151.9118         estimate D2E/DX2                !
 ! A48   A(21,27,28)            84.4868         estimate D2E/DX2                !
 ! A49   A(21,27,29)           111.6438         estimate D2E/DX2                !
 ! A50   A(28,27,29)           104.464          estimate D2E/DX2                !
 ! A51   A(22,28,27)           153.4942         estimate D2E/DX2                !
 ! D1    D(1,2,6,26)           107.3788         estimate D2E/DX2                !
 ! D2    D(7,2,6,26)          -136.5194         estimate D2E/DX2                !
 ! D3    D(11,2,6,26)          -11.1288         estimate D2E/DX2                !
 ! D4    D(1,2,7,3)             88.3163         estimate D2E/DX2                !
 ! D5    D(1,2,7,10)          -152.5916         estimate D2E/DX2                !
 ! D6    D(1,2,7,22)           -33.168          estimate D2E/DX2                !
 ! D7    D(6,2,7,3)            -28.3331         estimate D2E/DX2                !
 ! D8    D(6,2,7,10)            90.759          estimate D2E/DX2                !
 ! D9    D(6,2,7,22)          -149.8174         estimate D2E/DX2                !
 ! D10   D(11,2,7,3)          -154.7905         estimate D2E/DX2                !
 ! D11   D(11,2,7,10)          -35.6984         estimate D2E/DX2                !
 ! D12   D(11,2,7,22)           83.7252         estimate D2E/DX2                !
 ! D13   D(1,2,11,12)          -60.2792         estimate D2E/DX2                !
 ! D14   D(1,2,11,13)         -179.7478         estimate D2E/DX2                !
 ! D15   D(1,2,11,16)           60.0052         estimate D2E/DX2                !
 ! D16   D(6,2,11,12)           57.7737         estimate D2E/DX2                !
 ! D17   D(6,2,11,13)          -61.6949         estimate D2E/DX2                !
 ! D18   D(6,2,11,16)          178.0581         estimate D2E/DX2                !
 ! D19   D(7,2,11,12)         -176.1314         estimate D2E/DX2                !
 ! D20   D(7,2,11,13)           64.4            estimate D2E/DX2                !
 ! D21   D(7,2,11,16)          -55.847          estimate D2E/DX2                !
 ! D22   D(7,3,5,4)            -54.6584         estimate D2E/DX2                !
 ! D23   D(7,3,5,9)             64.0084         estimate D2E/DX2                !
 ! D24   D(7,3,5,18)          -175.4848         estimate D2E/DX2                !
 ! D25   D(15,3,5,4)            64.7425         estimate D2E/DX2                !
 ! D26   D(15,3,5,9)          -176.5907         estimate D2E/DX2                !
 ! D27   D(15,3,5,18)          -56.0839         estimate D2E/DX2                !
 ! D28   D(20,3,5,4)          -176.9866         estimate D2E/DX2                !
 ! D29   D(20,3,5,9)           -58.3199         estimate D2E/DX2                !
 ! D30   D(20,3,5,18)           62.187          estimate D2E/DX2                !
 ! D31   D(5,3,7,2)             73.1492         estimate D2E/DX2                !
 ! D32   D(5,3,7,10)           -47.4077         estimate D2E/DX2                !
 ! D33   D(5,3,7,22)          -166.2949         estimate D2E/DX2                !
 ! D34   D(15,3,7,2)           -45.7128         estimate D2E/DX2                !
 ! D35   D(15,3,7,10)         -166.2697         estimate D2E/DX2                !
 ! D36   D(15,3,7,22)           74.8431         estimate D2E/DX2                !
 ! D37   D(20,3,7,2)          -170.789          estimate D2E/DX2                !
 ! D38   D(20,3,7,10)           68.6541         estimate D2E/DX2                !
 ! D39   D(20,3,7,22)          -50.2331         estimate D2E/DX2                !
 ! D40   D(5,3,20,21)         -165.2853         estimate D2E/DX2                !
 ! D41   D(7,3,20,21)           75.2066         estimate D2E/DX2                !
 ! D42   D(15,3,20,21)         -48.8953         estimate D2E/DX2                !
 ! D43   D(8,4,5,3)           -100.049          estimate D2E/DX2                !
 ! D44   D(8,4,5,9)            141.5274         estimate D2E/DX2                !
 ! D45   D(8,4,5,18)            21.4906         estimate D2E/DX2                !
 ! D46   D(14,4,5,3)           121.7415         estimate D2E/DX2                !
 ! D47   D(14,4,5,9)             3.318          estimate D2E/DX2                !
 ! D48   D(14,4,5,18)         -116.7189         estimate D2E/DX2                !
 ! D49   D(5,4,14,25)         -170.663          estimate D2E/DX2                !
 ! D50   D(8,4,14,25)           52.627          estimate D2E/DX2                !
 ! D51   D(3,5,18,19)          -45.1935         estimate D2E/DX2                !
 ! D52   D(4,5,18,19)         -168.958          estimate D2E/DX2                !
 ! D53   D(9,5,18,19)           73.0572         estimate D2E/DX2                !
 ! D54   D(2,6,26,24)          117.7474         estimate D2E/DX2                !
 ! D55   D(2,7,22,23)          -57.0702         estimate D2E/DX2                !
 ! D56   D(2,7,22,28)          121.6695         estimate D2E/DX2                !
 ! D57   D(3,7,22,23)         -178.0871         estimate D2E/DX2                !
 ! D58   D(3,7,22,28)            0.6526         estimate D2E/DX2                !
 ! D59   D(10,7,22,23)          63.4283         estimate D2E/DX2                !
 ! D60   D(10,7,22,28)        -117.832          estimate D2E/DX2                !
 ! D61   D(2,11,16,17)         167.5553         estimate D2E/DX2                !
 ! D62   D(12,11,16,17)        -72.2379         estimate D2E/DX2                !
 ! D63   D(13,11,16,17)         48.6177         estimate D2E/DX2                !
 ! D64   D(4,14,25,24)          41.0019         estimate D2E/DX2                !
 ! D65   D(3,20,21,27)         -41.5187         estimate D2E/DX2                !
 ! D66   D(20,21,27,28)         -8.8892         estimate D2E/DX2                !
 ! D67   D(20,21,27,29)         94.506          estimate D2E/DX2                !
 ! D68   D(7,22,28,27)           4.8033         estimate D2E/DX2                !
 ! D69   D(23,22,28,27)       -176.782          estimate D2E/DX2                !
 ! D70   D(26,24,25,14)         -6.5558         estimate D2E/DX2                !
 ! D71   D(30,24,25,14)        102.984          estimate D2E/DX2                !
 ! D72   D(25,24,26,6)         -10.7565         estimate D2E/DX2                !
 ! D73   D(30,24,26,6)        -123.3999         estimate D2E/DX2                !
 ! D74   D(21,27,28,22)         17.2167         estimate D2E/DX2                !
 ! D75   D(29,27,28,22)        -93.7473         estimate D2E/DX2                !
 --------------------------------------------------------------------------------
 Trust Radius=3.00D-01 FncErr=1.00D-07 GrdErr=1.00D-06
 Number of steps in this run=    180 maximum allowed number of steps=    180.
 GradGradGradGradGradGradGradGradGradGradGradGradGradGradGradGradGradGrad

                          Input orientation:                          
 ---------------------------------------------------------------------
 Center     Atomic      Atomic             Coordinates (Angstroms)
 Number     Number       Type             X           Y           Z
 ---------------------------------------------------------------------
      1          1           0       -0.039490    1.585850    1.433040
      2          6           0       -0.492490    1.110350    0.549980
      3          6           0        1.123990   -0.754800    0.056180
      4          6           0       -1.325160   -1.478630    0.083710
      5          6           0        0.082050   -1.783000   -0.412860
      6          8           0       -1.262150    0.011640    1.014670
      7          6           0        0.679330    0.655940   -0.344280
      8          1           0       -1.619250   -2.073210    0.951910
      9          1           0        0.063180   -1.751240   -1.513320
     10          1           0        0.368970    0.628670   -1.400620
     11          6           0       -1.346570    2.167200   -0.170990
     12          1           0       -2.139900    2.538750    0.495280
     13          1           0       -1.812630    1.709820   -1.055800
     14          8           0       -2.232360   -1.322070   -0.875480
     15          1           0        1.202740   -0.814280    1.152840
     16          8           0       -0.464580    3.233650   -0.545370
     17          1           0       -0.921380    3.818870   -1.167020
     18          8           0        0.446970   -3.071570    0.050880
     19          1           0        1.401140   -3.128780   -0.140650
     20          8           0        2.320820   -1.178960   -0.564510
     21          1           0        3.081580   -0.721390   -0.134700
     22          8           0        1.759440    1.583080   -0.207550
     23          1           0        1.387210    2.451420   -0.449510
     24          8           0       -3.666480   -0.064600    0.625010
     25          1           0       -3.064750   -0.974920   -0.411320
     26          1           0       -2.749570    0.191800    0.961370
     27          8           0        4.144130    0.505390    0.625550
     28          1           0        3.447880    1.140650    0.351240
     29          1           0        4.082730    0.481570    1.592490
     30          1           0       -4.059910    0.718750    0.215120
 ---------------------------------------------------------------------
                    Distance matrix (angstroms):
                    1          2          3          4          5
     1  H    0.000000
     2  C    1.100502   0.000000
     3  C    2.954331   2.517068   0.000000
     4  C    3.586736   2.759269   2.554021   0.000000
     5  C    3.843341   3.103004   1.537151   1.522978   0.000000
     6  O    2.036681   1.419675   2.683244   1.758284   2.658091
     7  C    2.130798   1.542515   1.532409   2.959315   2.511946
     8  H    4.014455   3.400910   3.172681   1.092605   2.200282
     9  H    4.452836   3.571369   2.140453   2.133614   1.101080
    10  H    3.018719   2.186085   2.146232   3.084481   2.621859
    11  C    2.149265   1.538240   3.833191   3.654779   4.207557
    12  H    2.489806   2.181119   4.657602   4.119773   4.943612
    13  H    3.058385   2.163484   3.991815   3.420866   4.025292
    14  O    4.312069   3.312967   3.529146   1.329499   2.404780
    15  H    2.717034   2.634662   1.101092   2.823947   2.155407
    16  O    2.609608   2.389346   4.335107   4.831348   5.048083
    17  H    3.538986   3.235447   5.157346   5.458101   5.740782
    18  O    4.882476   4.315106   2.413671   2.383061   1.417263
    19  H    5.174906   4.693935   2.398194   3.194690   1.904001
    20  O    4.147945   3.794436   1.413354   3.715261   2.323780
    21  H    4.185958   4.074069   1.967158   4.476659   3.193990
    22  O    2.434685   2.422502   2.437013   4.355876   3.766468
    23  H    2.515687   2.516092   3.256509   4.804848   4.431151
    24  O    4.065951   3.385314   4.873248   2.788237   4.252241
    25  H    4.371659   3.448039   4.220492   1.877486   3.248899
    26  H    3.083891   2.471313   4.088996   2.364227   3.715698
    27  O    4.395692   4.676530   3.321672   5.843206   4.776559
    28  H    3.678348   3.945495   3.013346   5.451065   4.523316
    29  H    4.270545   4.734430   3.555700   5.946770   5.015491
    30  H    4.289402   3.604437   5.391607   3.510642   4.879441
                    6          7          8          9         10
     6  O    0.000000
     7  C    2.455853   0.000000
     8  H    2.116142   3.796293   0.000000
     9  H    3.354844   2.746054   3.001932   0.000000
    10  H    2.979078   1.101327   4.097264   2.402120   0.000000
    11  C    2.461576   2.533418   4.395035   4.375319   2.611923
    12  H    2.725160   3.492548   4.663664   5.224179   3.679303
    13  H    2.733805   2.797640   4.287145   3.963196   2.459098
    14  O    2.508537   3.559865   2.068688   2.420853   3.293642
    15  H    2.603251   2.162608   3.096596   3.047113   3.049170
    16  O    3.667587   2.827288   5.633638   5.105349   2.865690
    17  H    4.401238   3.639134   6.300277   5.667046   3.449195
    18  O    3.654609   3.755592   2.465328   2.082616   3.975514
    19  H    4.276694   3.858313   3.380928   2.360503   4.095281
    20  O    4.092556   2.471811   4.315480   2.514892   2.788606
    21  H    4.552623   2.777007   5.010583   3.474467   3.283819
    22  O    3.618460   1.430007   5.111590   3.962325   2.065846
    23  H    3.887860   1.932852   5.610263   4.532891   2.294306
    24  O    2.436894   4.510517   2.886612   4.618179   4.568223
    25  H    2.501223   4.084401   2.270266   3.406027   3.916714
    26  H    1.499239   3.698311   2.531399   4.220315   3.936387
    27  O    5.442708   3.601121   6.322360   5.130429   4.286303
    28  H    4.888679   2.895438   6.030382   4.826573   3.579221
    29  H    5.396522   3.919772   6.280909   5.548719   4.772039
    30  H    2.994452   4.772554   3.780836   5.107664   4.715263
                   11         12         13         14         15
    11  C    0.000000
    12  H    1.100608   0.000000
    13  H    1.099680   1.788877   0.000000
    14  O    3.668233   4.097983   3.066112   0.000000
    15  H    4.140137   4.780004   4.510169   4.021423   0.000000
    16  O    1.433660   2.091061   2.097578   4.897816   4.695701
    17  H    1.975064   2.426260   2.292333   5.313467   5.599975
    18  O    5.541726   6.193955   5.402983   3.331321   2.623140
    19  H    5.966426   6.712992   5.880295   4.123894   2.658832
    20  O    4.980100   5.902757   5.066737   4.566030   2.081438
    21  H    5.287134   6.187830   5.541886   5.398845   2.279567
    22  O    3.160669   4.075798   3.673592   4.982017   2.812101
    23  H    2.762591   3.652500   3.340140   5.246138   3.642300
    24  O    3.316102   3.020713   3.067645   2.426809   4.954788
    25  H    3.589264   3.744749   3.031664   1.014313   4.547953
    26  H    2.674482   2.469233   2.692808   2.435842   4.082844
    27  O    5.791707   6.606100   6.305599   6.800906   3.266702
    28  H    4.930850   5.761833   5.475096   6.311494   3.083013
    29  H    5.952185   6.645072   6.578549   7.016007   3.188552
    30  H    3.099887   2.660325   2.765452   2.948609   5.561024
                   16         17         18         19         20
    16  O    0.000000
    17  H    0.968296   0.000000
    18  O    6.398612   7.129784   0.000000
    19  H    6.642682   7.397119   0.974883   0.000000
    20  O    5.218232   5.987753   2.733494   2.197104   0.000000
    21  H    5.327874   6.140304   3.535386   2.935888   0.986338
    22  O    2.790120   3.620240   4.843050   4.725937   2.841027
    23  H    2.012511   2.777468   5.624754   5.588758   3.750268
    24  O    4.743459   5.082154   5.127569   5.971282   6.205201
    25  H    4.948830   5.305237   4.116035   4.965536   5.391610
    26  H    4.091979   4.585625   4.657944   5.428544   5.469566
    27  O    5.482213   6.312832   5.176281   4.617169   2.752769
    28  H    4.526798   5.344942   5.180586   4.760161   2.736686
    29  H    5.729085   6.617672   5.312261   4.819681   3.242582
    30  H    4.453029   4.622924   5.891135   6.689778   6.702450
                   21         22         23         24         25
    21  H    0.000000
    22  O    2.657808   0.000000
    23  H    3.610640   0.975251   0.000000
    24  O    6.822378   5.731371   5.746715   0.000000
    25  H    6.157773   5.464220   5.617937   1.504906   0.000000
    26  H    6.003132   4.861400   4.920306   1.009754   1.828894
    27  O    1.792200   2.746310   3.541666   7.831380   7.431983
    28  H    1.958955   1.832708   2.570152   7.220921   6.889955
    29  H    2.330794   3.138653   3.913554   7.828447   7.564594
    30  H    7.293645   5.898352   5.754563   0.967695   2.061865
                   26         27         28         29         30
    26  H    0.000000
    27  O    6.908995   0.000000
    28  H    6.299283   0.981614   0.000000
    29  H    6.867503   0.969180   1.542116   0.000000
    30  H    1.597359   8.217070   7.520867   8.261718   0.000000
 Stoichiometry    C6H16O8
 Framework group  C1[X(C6H16O8)]
 Deg. of freedom    84
 Full point group                 C1      NOp   1
 Largest Abelian subgroup         C1      NOp   1
 Largest concise Abelian subgroup C1      NOp   1
                         Standard orientation:                         
 ---------------------------------------------------------------------
 Center     Atomic      Atomic             Coordinates (Angstroms)
 Number     Number       Type             X           Y           Z
 ---------------------------------------------------------------------
      1          1           0       -0.035861    1.560321    1.430017
      2          6           0       -0.487979    1.084796    0.546518
      3          6           0        1.130590   -0.778500    0.052563
      4          6           0       -1.317848   -1.504788    0.078612
      5          6           0        0.089894   -1.807513   -0.417455
      6          8           0       -1.256756   -0.014906    1.010321
      7          6           0        0.684707    0.631989   -0.347420
      8          1           0       -1.611745   -2.100081    0.946388
      9          1           0        0.071500   -1.775239   -1.517908
     10          1           0        0.374862    0.604920   -1.403917
     11          6           0       -1.342781    2.141142   -0.174336
     12          1           0       -2.136789    2.511577    0.491747
     13          1           0       -1.807975    1.683725   -1.059582
     14          8           0       -2.224761   -1.348669   -0.880921
     15          1           0        1.208894   -0.838432    1.149230
     16          8           0       -0.461683    3.208653   -0.547793
     17          1           0       -0.918780    3.793717   -1.169371
     18          8           0        0.455886   -3.095942    0.045831
     19          1           0        1.410201   -3.152107   -0.145286
     20          8           0        2.328129   -1.201165   -0.567779
     21          1           0        3.088234   -0.743044   -0.137397
     22          8           0        1.763828    1.560140   -0.209743
     23          1           0        1.390842    2.428225   -0.451456
     24          8           0       -3.660828   -0.093357    0.619514
     25          1           0       -3.057712   -1.002575   -0.416978
     26          1           0       -2.744330    0.163795    0.956421
     27          8           0        4.149208    0.484428    0.623937
     28          1           0        3.452450    1.119125    0.349613
     29          1           0        4.087385    0.460079    1.590837
     30          1           0       -4.054851    0.689798    0.209821
 ---------------------------------------------------------------------
 Rotational constants (GHZ):      0.7330772      0.5222449      0.3352262
 Standard basis: 6-31G(d) (6D, 7F)
 There are   242 symmetry adapted cartesian basis functions of A   symmetry.
 There are   242 symmetry adapted basis functions of A   symmetry.
   242 basis functions,   456 primitive gaussians,   242 cartesian basis functions
    58 alpha electrons       58 beta electrons
       nuclear repulsion energy      1103.2273513177 Hartrees.
 NAtoms=   30 NActive=   30 NUniq=   30 SFac= 1.00D+00 NAtFMM=   60 NAOKFM=F Big=F
 Integral buffers will be    131072 words long.
 Raffenetti 2 integral format.
 Two-electron integral symmetry is turned on.
 One-electron integrals computed using PRISM.
 NBasis=   242 RedAO= T EigKep=  1.56D-03  NBF=   242
 NBsUse=   242 1.00D-06 EigRej= -1.00D+00 NBFU=   242
 ExpMin= 1.61D-01 ExpMax= 5.48D+03 ExpMxC= 8.25D+02 IAcc=1 IRadAn=         1 AccDes= 0.00D+00
 Harris functional with IExCor=  402 and IRadAn=       1 diagonalized for initial guess.
 HarFok:  IExCor=  402 AccDes= 0.00D+00 IRadAn=         1 IDoV= 1 UseB2=F ITyADJ=14
 ICtDFT=  3500011 ScaDFX=  1.000000  1.000000  1.000000  1.000000
 FoFCou: FMM=F IPFlag=           0 FMFlag=      100000 FMFlg1=           0
         NFxFlg=           0 DoJE=T BraDBF=F KetDBF=T FulRan=T
         wScrn=  0.000000 ICntrl=     500 IOpCl=  0 I1Cent=   200000004 NGrid=           0
         NMat0=    1 NMatS0=      1 NMatT0=    0 NMatD0=    1 NMtDS0=    0 NMtDT0=    0
 Petite list used in FoFCou.
 Requested convergence on RMS density matrix=1.00D-08 within 128 cycles.
 Requested convergence on MAX density matrix=1.00D-06.
 Requested convergence on             energy=1.00D-06.
 No special actions if energy rises.
 Integral accuracy reduced to 1.0D-05 until final iterations.
 Initial convergence to 1.0D-05 achieved.  Increase integral accuracy.
 SCF Done:  E(RB3LYP) =  -839.969312676     A.U. after   14 cycles
            NFock= 14  Conv=0.36D-08     -V/T= 2.0085

 **********************************************************************

            Population analysis using the SCF density.

 **********************************************************************

 Orbital symmetries:
       Occupied  (A) (A) (A) (A) (A) (A) (A) (A) (A) (A) (A) (A)
                 (A) (A) (A) (A) (A) (A) (A) (A) (A) (A) (A) (A)
                 (A) (A) (A) (A) (A) (A) (A) (A) (A) (A) (A) (A)
                 (A) (A) (A) (A) (A) (A) (A) (A) (A) (A) (A) (A)
                 (A) (A) (A) (A) (A) (A) (A) (A) (A) (A)
       Virtual   (A) (A) (A) (A) (A) (A) (A) (A) (A) (A) (A) (A)
                 (A) (A) (A) (A) (A) (A) (A) (A) (A) (A) (A) (A)
                 (A) (A) (A) (A) (A) (A) (A) (A) (A) (A) (A) (A)
                 (A) (A) (A) (A) (A) (A) (A) (A) (A) (A) (A) (A)
                 (A) (A) (A) (A) (A) (A) (A) (A) (A) (A) (A) (A)
                 (A) (A) (A) (A) (A) (A) (A) (A) (A) (A) (A) (A)
                 (A) (A) (A) (A) (A) (A) (A) (A) (A) (A) (A) (A)
                 (A) (A) (A) (A) (A) (A) (A) (A) (A) (A) (A) (A)
                 (A) (A) (A) (A) (A) (A) (A) (A) (A) (A) (A) (A)
                 (A) (A) (A) (A) (A) (A) (A) (A) (A) (A) (A) (A)
                 (A) (A) (A) (A) (A) (A) (A) (A) (A) (A) (A) (A)
                 (A) (A) (A) (A) (A) (A) (A) (A) (A) (A) (A) (A)
                 (A) (A) (A) (A) (A) (A) (A) (A) (A) (A) (A) (A)
                 (A) (A) (A) (A) (A) (A) (A) (A) (A) (A) (A) (A)
                 (A) (A) (A) (A) (A) (A) (A) (A) (A) (A) (A) (A)
                 (A) (A) (A) (A)
 The electronic state is 1-A.
 Alpha  occ. eigenvalues --  -19.18525 -19.16181 -19.16054 -19.15110 -19.15026
 Alpha  occ. eigenvalues --  -19.14861 -19.14013 -19.13207 -10.30179 -10.25721
 Alpha  occ. eigenvalues --  -10.24724 -10.24366 -10.24061 -10.23724  -1.07152
 Alpha  occ. eigenvalues --   -1.05559  -1.03836  -1.02480  -1.01092  -1.00730
 Alpha  occ. eigenvalues --   -0.99429  -0.98817  -0.77968  -0.76342  -0.70453
 Alpha  occ. eigenvalues --   -0.64054  -0.61808  -0.57464  -0.56504  -0.55438
 Alpha  occ. eigenvalues --   -0.53951  -0.53567  -0.52728  -0.51142  -0.48892
 Alpha  occ. eigenvalues --   -0.47570  -0.45478  -0.44794  -0.43591  -0.43433
 Alpha  occ. eigenvalues --   -0.42630  -0.41186  -0.40428  -0.39391  -0.38393
 Alpha  occ. eigenvalues --   -0.37527  -0.35692  -0.34596  -0.33635  -0.33085
 Alpha  occ. eigenvalues --   -0.30828  -0.30436  -0.30219  -0.29535  -0.27354
 Alpha  occ. eigenvalues --   -0.27105  -0.26693  -0.25460
 Alpha virt. eigenvalues --    0.01211   0.03981   0.05435   0.06674   0.09728
 Alpha virt. eigenvalues --    0.11127   0.11766   0.12254   0.13242   0.14340
 Alpha virt. eigenvalues --    0.15441   0.15636   0.16878   0.17989   0.19019
 Alpha virt. eigenvalues --    0.19844   0.20714   0.21629   0.23059   0.24331
 Alpha virt. eigenvalues --    0.25704   0.27074   0.27423   0.28273   0.30160
 Alpha virt. eigenvalues --    0.31647   0.32227   0.33608   0.50781   0.52601
 Alpha virt. eigenvalues --    0.54171   0.54742   0.56817   0.58798   0.59118
 Alpha virt. eigenvalues --    0.59752   0.61656   0.62423   0.64664   0.67061
 Alpha virt. eigenvalues --    0.68470   0.70401   0.71225   0.72742   0.74247
 Alpha virt. eigenvalues --    0.75757   0.76549   0.78841   0.79907   0.81043
 Alpha virt. eigenvalues --    0.81697   0.83385   0.83691   0.83932   0.84918
 Alpha virt. eigenvalues --    0.86043   0.86190   0.86972   0.88488   0.90169
 Alpha virt. eigenvalues --    0.90560   0.92143   0.93253   0.94141   0.95383
 Alpha virt. eigenvalues --    0.96980   0.97827   0.99227   0.99986   1.03281
 Alpha virt. eigenvalues --    1.03650   1.05394   1.05999   1.06576   1.07632
 Alpha virt. eigenvalues --    1.10125   1.11936   1.14852   1.15271   1.16153
 Alpha virt. eigenvalues --    1.19077   1.19963   1.23153   1.23918   1.24959
 Alpha virt. eigenvalues --    1.29169   1.30606   1.32024   1.35279   1.37144
 Alpha virt. eigenvalues --    1.39910   1.44155   1.45649   1.47379   1.50039
 Alpha virt. eigenvalues --    1.50662   1.53207   1.55341   1.59525   1.62150
 Alpha virt. eigenvalues --    1.62708   1.64059   1.65139   1.66182   1.68109
 Alpha virt. eigenvalues --    1.69515   1.70991   1.71848   1.72533   1.73833
 Alpha virt. eigenvalues --    1.75026   1.75542   1.76394   1.79020   1.80231
 Alpha virt. eigenvalues --    1.81141   1.82107   1.84123   1.84460   1.86431
 Alpha virt. eigenvalues --    1.88924   1.89667   1.90892   1.92428   1.93913
 Alpha virt. eigenvalues --    1.97229   1.99359   2.02337   2.04142   2.04937
 Alpha virt. eigenvalues --    2.06847   2.08129   2.11063   2.11405   2.15374
 Alpha virt. eigenvalues --    2.15427   2.21577   2.24273   2.25480   2.27032
 Alpha virt. eigenvalues --    2.29288   2.30366   2.33221   2.34597   2.36278
 Alpha virt. eigenvalues --    2.44559   2.45421   2.46607   2.49205   2.49855
 Alpha virt. eigenvalues --    2.51607   2.53775   2.56061   2.57598   2.58421
 Alpha virt. eigenvalues --    2.59698   2.61787   2.63405   2.67985   2.70286
 Alpha virt. eigenvalues --    2.72954   2.73619   2.75662   2.83560   2.90373
 Alpha virt. eigenvalues --    2.92927   2.95806   2.97824   3.02586   3.09678
 Alpha virt. eigenvalues --    3.73697   3.75737   3.80299   3.84245   3.90172
 Alpha virt. eigenvalues --    3.92300   3.99049   4.15361   4.26172   4.34305
 Alpha virt. eigenvalues --    4.41635   4.48360   4.67231   4.76167
          Condensed to atoms (all electrons):
               1          2          3          4          5          6
     1  H    0.624742   0.362311  -0.006912   0.002145   0.000332  -0.035273
     2  C    0.362311   4.915384  -0.027238  -0.010057  -0.009129   0.180771
     3  C   -0.006912  -0.027238   4.965982  -0.029187   0.329055  -0.003118
     4  C    0.002145  -0.010057  -0.029187   4.787512   0.306771   0.131136
     5  C    0.000332  -0.009129   0.329055   0.306771   4.911140  -0.015934
     6  O   -0.035273   0.180771  -0.003118   0.131136  -0.015934   8.485257
     7  C   -0.050818   0.284618   0.272724  -0.009968  -0.029969  -0.030874
     8  H   -0.000208   0.003522  -0.000004   0.355176  -0.047266  -0.032893
     9  H    0.000021   0.001079  -0.044458  -0.059887   0.350421   0.001818
    10  H    0.007257  -0.056282  -0.055105   0.000108  -0.004949   0.002648
    11  C   -0.060761   0.335289   0.003797  -0.000069  -0.000310  -0.036808
    12  H   -0.007356  -0.037082  -0.000074  -0.000137  -0.000003   0.000975
    13  H    0.006397  -0.029054  -0.000340   0.001001  -0.000172   0.001761
    14  O   -0.000132   0.005253   0.000766   0.290931  -0.034395  -0.049203
    15  H    0.002980  -0.001462   0.344888  -0.004436  -0.038061   0.003836
    16  O    0.004180  -0.044745   0.000225  -0.000002  -0.000004   0.001103
    17  H   -0.000272   0.004729   0.000008   0.000001  -0.000000  -0.000080
    18  O    0.000003   0.000031  -0.030378  -0.033559   0.233507   0.000522
    19  H   -0.000002  -0.000055  -0.010397   0.006843  -0.037775  -0.000083
    20  O   -0.000070   0.002888   0.233921   0.003201  -0.049457   0.000136
    21  H   -0.000008  -0.000072  -0.017160  -0.000154   0.004811   0.000001
    22  O    0.005943  -0.037106  -0.026343   0.000098   0.001541   0.001563
    23  H    0.001162  -0.005571   0.004577   0.000007  -0.000124   0.000011
    24  O   -0.000071   0.000663   0.000059   0.009330  -0.000222  -0.068300
    25  H    0.000008  -0.000352  -0.000155  -0.030335   0.004995   0.004935
    26  H   -0.000460  -0.006040  -0.000004  -0.010020   0.001124   0.082628
    27  O   -0.000027  -0.000031   0.005655   0.000000   0.000086   0.000000
    28  H    0.000210   0.000401  -0.001515  -0.000002   0.000069  -0.000006
    29  H    0.000022  -0.000001   0.000500  -0.000000   0.000018  -0.000000
    30  H    0.000027  -0.000790  -0.000004  -0.000273  -0.000016   0.003735
               7          8          9         10         11         12
     1  H   -0.050818  -0.000208   0.000021   0.007257  -0.060761  -0.007356
     2  C    0.284618   0.003522   0.001079  -0.056282   0.335289  -0.037082
     3  C    0.272724  -0.000004  -0.044458  -0.055105   0.003797  -0.000074
     4  C   -0.009968   0.355176  -0.059887   0.000108  -0.000069  -0.000137
     5  C   -0.029969  -0.047266   0.350421  -0.004949  -0.000310  -0.000003
     6  O   -0.030874  -0.032893   0.001818   0.002648  -0.036808   0.000975
     7  C    5.071226   0.000226  -0.007101   0.356627  -0.036388   0.006288
     8  H    0.000226   0.572345   0.005391   0.000053  -0.000086   0.000006
     9  H   -0.007101   0.005391   0.618738   0.009857   0.000006  -0.000000
    10  H    0.356627   0.000053   0.009857   0.644775  -0.006560   0.000212
    11  C   -0.036388  -0.000086   0.000006  -0.006560   5.005491   0.358243
    12  H    0.006288   0.000006  -0.000000   0.000212   0.358243   0.632318
    13  H   -0.012256   0.000069   0.000060   0.005044   0.349120  -0.053708
    14  O    0.000567  -0.038875   0.005142   0.000635  -0.001255   0.000071
    15  H   -0.061975   0.001070   0.007659   0.007506   0.000270   0.000005
    16  O    0.007807   0.000000  -0.000000   0.001027   0.199564  -0.035998
    17  H   -0.000015  -0.000000   0.000000  -0.000099  -0.017569  -0.001680
    18  O    0.003694   0.005967  -0.037905   0.000014   0.000001  -0.000000
    19  H    0.001233  -0.000380  -0.001891  -0.000034   0.000001  -0.000000
    20  O   -0.041594  -0.000091  -0.001232   0.000943  -0.000039   0.000000
    21  H   -0.003538   0.000004  -0.000200  -0.000415  -0.000001  -0.000000
    22  O    0.199086   0.000001  -0.000083  -0.040202  -0.000119  -0.000265
    23  H   -0.022509  -0.000000   0.000004  -0.002437  -0.004402   0.000306
    24  O   -0.000212   0.001102   0.000014   0.000005   0.005109  -0.000311
    25  H   -0.000016  -0.004614   0.000006  -0.000009   0.000150  -0.000118
    26  H    0.001806  -0.000249  -0.000099  -0.000128  -0.003489   0.004778
    27  O   -0.000829  -0.000000  -0.000000  -0.000073  -0.000000  -0.000000
    28  H   -0.003768   0.000000   0.000001   0.000574  -0.000010   0.000001
    29  H   -0.000212   0.000000   0.000000   0.000007  -0.000000   0.000000
    30  H    0.000037  -0.000047  -0.000000  -0.000004   0.001066   0.002157
              13         14         15         16         17         18
     1  H    0.006397  -0.000132   0.002980   0.004180  -0.000272   0.000003
     2  C   -0.029054   0.005253  -0.001462  -0.044745   0.004729   0.000031
     3  C   -0.000340   0.000766   0.344888   0.000225   0.000008  -0.030378
     4  C    0.001001   0.290931  -0.004436  -0.000002   0.000001  -0.033559
     5  C   -0.000172  -0.034395  -0.038061  -0.000004  -0.000000   0.233507
     6  O    0.001761  -0.049203   0.003836   0.001103  -0.000080   0.000522
     7  C   -0.012256   0.000567  -0.061975   0.007807  -0.000015   0.003694
     8  H    0.000069  -0.038875   0.001070   0.000000  -0.000000   0.005967
     9  H    0.000060   0.005142   0.007659  -0.000000   0.000000  -0.037905
    10  H    0.005044   0.000635   0.007506   0.001027  -0.000099   0.000014
    11  C    0.349120  -0.001255   0.000270   0.199564  -0.017569   0.000001
    12  H   -0.053708   0.000071   0.000005  -0.035998  -0.001680  -0.000000
    13  H    0.619740   0.003766   0.000009  -0.030383  -0.005980   0.000001
    14  O    0.003766   8.275053   0.000064   0.000003  -0.000001   0.000500
    15  H    0.000009   0.000064   0.654231  -0.000010   0.000001   0.002180
    16  O   -0.030383   0.000003  -0.000010   8.271536   0.236445  -0.000000
    17  H   -0.005980  -0.000001   0.000001   0.236445   0.373832   0.000000
    18  O    0.000001   0.000500   0.002180  -0.000000   0.000000   8.282015
    19  H   -0.000000  -0.000118  -0.000450   0.000000  -0.000000   0.235916
    20  O   -0.000002  -0.000013  -0.042658  -0.000000  -0.000000  -0.008784
    21  H    0.000000   0.000000  -0.004240   0.000000  -0.000000  -0.000046
    22  O    0.000076   0.000001   0.000027  -0.012674   0.000546  -0.000010
    23  H    0.000535  -0.000000  -0.000206   0.039909  -0.001414   0.000001
    24  O    0.001429  -0.072603   0.000004   0.000015   0.000003   0.000000
    25  H    0.000007   0.190102   0.000005  -0.000003   0.000000  -0.000119
    26  H   -0.001060   0.011559  -0.000054  -0.000003  -0.000007  -0.000015
    27  O    0.000000  -0.000000   0.000958  -0.000000   0.000000  -0.000000
    28  H   -0.000000  -0.000000   0.000423   0.000010  -0.000001  -0.000000
    29  H    0.000000  -0.000000   0.000392   0.000000  -0.000000   0.000000
    30  H    0.001085   0.003757  -0.000000   0.000006  -0.000006   0.000000
              19         20         21         22         23         24
     1  H   -0.000002  -0.000070  -0.000008   0.005943   0.001162  -0.000071
     2  C   -0.000055   0.002888  -0.000072  -0.037106  -0.005571   0.000663
     3  C   -0.010397   0.233921  -0.017160  -0.026343   0.004577   0.000059
     4  C    0.006843   0.003201  -0.000154   0.000098   0.000007   0.009330
     5  C   -0.037775  -0.049457   0.004811   0.001541  -0.000124  -0.000222
     6  O   -0.000083   0.000136   0.000001   0.001563   0.000011  -0.068300
     7  C    0.001233  -0.041594  -0.003538   0.199086  -0.022509  -0.000212
     8  H   -0.000380  -0.000091   0.000004   0.000001  -0.000000   0.001102
     9  H   -0.001891  -0.001232  -0.000200  -0.000083   0.000004   0.000014
    10  H   -0.000034   0.000943  -0.000415  -0.040202  -0.002437   0.000005
    11  C    0.000001  -0.000039  -0.000001  -0.000119  -0.004402   0.005109
    12  H   -0.000000   0.000000  -0.000000  -0.000265   0.000306  -0.000311
    13  H   -0.000000  -0.000002   0.000000   0.000076   0.000535   0.001429
    14  O   -0.000118  -0.000013   0.000000   0.000001  -0.000000  -0.072603
    15  H   -0.000450  -0.042658  -0.004240   0.000027  -0.000206   0.000004
    16  O    0.000000  -0.000000   0.000000  -0.012674   0.039909   0.000015
    17  H   -0.000000  -0.000000  -0.000000   0.000546  -0.001414   0.000003
    18  O    0.235916  -0.008784  -0.000046  -0.000010   0.000001   0.000000
    19  H    0.364241   0.031069  -0.000438  -0.000007   0.000000  -0.000000
    20  O    0.031069   8.372717   0.203404   0.000438  -0.000083   0.000000
    21  H   -0.000438   0.203404   0.316135   0.002414  -0.000008   0.000000
    22  O   -0.000007   0.000438   0.002414   8.324400   0.228605   0.000000
    23  H    0.000000  -0.000083  -0.000008   0.228605   0.333293  -0.000000
    24  O   -0.000000   0.000000   0.000000   0.000000  -0.000000   8.451440
    25  H    0.000010   0.000001  -0.000000  -0.000000   0.000000   0.101809
    26  H    0.000001  -0.000000  -0.000000  -0.000013   0.000001   0.167774
    27  O    0.000011  -0.027298   0.080119  -0.019174   0.000565   0.000000
    28  H   -0.000007   0.005371  -0.011398   0.052768  -0.001650  -0.000000
    29  H   -0.000003   0.001312  -0.004336   0.001159  -0.000025  -0.000000
    30  H    0.000000  -0.000000  -0.000000  -0.000000   0.000000   0.233663
              25         26         27         28         29         30
     1  H    0.000008  -0.000460  -0.000027   0.000210   0.000022   0.000027
     2  C   -0.000352  -0.006040  -0.000031   0.000401  -0.000001  -0.000790
     3  C   -0.000155  -0.000004   0.005655  -0.001515   0.000500  -0.000004
     4  C   -0.030335  -0.010020   0.000000  -0.000002  -0.000000  -0.000273
     5  C    0.004995   0.001124   0.000086   0.000069   0.000018  -0.000016
     6  O    0.004935   0.082628   0.000000  -0.000006  -0.000000   0.003735
     7  C   -0.000016   0.001806  -0.000829  -0.003768  -0.000212   0.000037
     8  H   -0.004614  -0.000249  -0.000000   0.000000   0.000000  -0.000047
     9  H    0.000006  -0.000099  -0.000000   0.000001   0.000000  -0.000000
    10  H   -0.000009  -0.000128  -0.000073   0.000574   0.000007  -0.000004
    11  C    0.000150  -0.003489  -0.000000  -0.000010  -0.000000   0.001066
    12  H   -0.000118   0.004778  -0.000000   0.000001   0.000000   0.002157
    13  H    0.000007  -0.001060   0.000000  -0.000000   0.000000   0.001085
    14  O    0.190102   0.011559  -0.000000  -0.000000  -0.000000   0.003757
    15  H    0.000005  -0.000054   0.000958   0.000423   0.000392  -0.000000
    16  O   -0.000003  -0.000003  -0.000000   0.000010   0.000000   0.000006
    17  H    0.000000  -0.000007   0.000000  -0.000001  -0.000000  -0.000006
    18  O   -0.000119  -0.000015  -0.000000  -0.000000   0.000000   0.000000
    19  H    0.000010   0.000001   0.000011  -0.000007  -0.000003   0.000000
    20  O    0.000001  -0.000000  -0.027298   0.005371   0.001312  -0.000000
    21  H   -0.000000  -0.000000   0.080119  -0.011398  -0.004336  -0.000000
    22  O   -0.000000  -0.000013  -0.019174   0.052768   0.001159  -0.000000
    23  H    0.000000   0.000001   0.000565  -0.001650  -0.000025   0.000000
    24  O    0.101809   0.167774   0.000000  -0.000000  -0.000000   0.233663
    25  H    0.303932  -0.014644   0.000000   0.000000  -0.000000  -0.005165
    26  H   -0.014644   0.321381  -0.000000   0.000000   0.000000  -0.008855
    27  O    0.000000  -0.000000   8.303750   0.217294   0.241068  -0.000000
    28  H    0.000000   0.000000   0.217294   0.323477  -0.016039   0.000000
    29  H   -0.000000   0.000000   0.241068  -0.016039   0.382155   0.000000
    30  H   -0.005165  -0.008855  -0.000000   0.000000   0.000000   0.375883
 Mulliken charges:
               1
     1  H    0.144630
     2  C    0.168126
     3  C    0.090232
     4  C    0.293828
     5  C    0.123914
     6  O   -0.630265
     7  C    0.106102
     8  H    0.179781
     9  H    0.152640
    10  H    0.129004
    11  C   -0.090242
    12  H    0.131371
    13  H    0.142854
    14  O   -0.591578
    15  H    0.127040
    16  O   -0.638010
    17  H    0.411560
    18  O   -0.653535
    19  H    0.412312
    20  O   -0.684081
    21  H    0.435125
    22  O   -0.682670
    23  H    0.429452
    24  O   -0.830701
    25  H    0.449571
    26  H    0.454088
    27  O   -0.802075
    28  H    0.433797
    29  H    0.393985
    30  H    0.393743
 Sum of Mulliken charges =  -0.00000
 Mulliken charges with hydrogens summed into heavy atoms:
               1
     2  C    0.312755
     3  C    0.217272
     4  C    0.473609
     5  C    0.276554
     6  O   -0.630265
     7  C    0.235106
    11  C    0.183984
    14  O   -0.142007
    16  O   -0.226449
    18  O   -0.241223
    20  O   -0.248955
    22  O   -0.253218
    24  O    0.017129
    27  O    0.025707
 Electronic spatial extent (au):  <R**2>=           3291.0038
 Charge=             -0.0000 electrons
 Dipole moment (field-independent basis, Debye):
    X=             -2.0681    Y=              5.2856    Z=              0.0873  Tot=              5.6765
 Quadrupole moment (field-independent basis, Debye-Ang):
   XX=            -88.9752   YY=            -78.5810   ZZ=            -82.1412
   XY=             -9.7189   XZ=             10.6308   YZ=             -5.1936
 Traceless Quadrupole moment (field-independent basis, Debye-Ang):
   XX=             -5.7427   YY=              4.6515   ZZ=              1.0912
   XY=             -9.7189   XZ=             10.6308   YZ=             -5.1936
 Octapole moment (field-independent basis, Debye-Ang**2):
  XXX=            -46.7305  YYY=             58.9298  ZZZ=              4.2456  XYY=             -7.8232
  XXY=             25.6966  XXZ=             11.1611  XZZ=             19.3816  YZZ=             13.6635
  YYZ=            -17.8555  XYZ=              8.2996
 Hexadecapole moment (field-independent basis, Debye-Ang**3):
 XXXX=          -2276.1682 YYYY=          -1387.6325 ZZZZ=           -246.1110 XXXY=           -105.2036
 XXXZ=            151.5649 YYYX=            -72.7108 YYYZ=            -83.6300 ZZZX=             39.4576
 ZZZY=            -12.4754 XXYY=           -517.4136 XXZZ=           -355.1618 YYZZ=           -258.8321
 XXYZ=             -8.0563 YYXZ=             11.6909 ZZXY=             -2.7887
 N-N= 1.103227351318D+03 E-N=-4.178803688073D+03  KE= 8.328516132345D+02
 Calling FoFJK, ICntrl=      2127 FMM=F ISym2X=0 I1Cent= 0 IOpClX= 0 NMat=1 NMatS=1 NMatT=0.
 ***** Axes restored to original set *****
 -------------------------------------------------------------------
 Center     Atomic                   Forces (Hartrees/Bohr)
 Number     Number              X              Y              Z
 -------------------------------------------------------------------
      1        1          -0.000378635   -0.000897399    0.000190742
      2        6           0.001621497   -0.005089519   -0.003183146
      3        6           0.001270043   -0.000355745   -0.001033007
      4        6           0.005586284    0.023835868    0.015377738
      5        6          -0.000584141    0.002378551    0.002531880
      6        8           0.009990135   -0.019817545   -0.011082229
      7        6           0.001776006    0.000236491   -0.001188022
      8        1           0.000132761    0.000409636    0.000073826
      9        1          -0.000710050    0.000093444    0.000244365
     10        1           0.000150427    0.000037382   -0.000089421
     11        6          -0.000107796   -0.001896151    0.000164265
     12        1           0.000089102   -0.000181495    0.000141260
     13        1          -0.000114780   -0.000003354    0.000013944
     14        8           0.010073642   -0.004618567   -0.008812665
     15        1           0.000097374    0.000060000   -0.000062957
     16        8          -0.000018350   -0.000845267    0.000703584
     17        1          -0.000074252   -0.000071354    0.000069065
     18        8          -0.001324013    0.000760097   -0.000419328
     19        1          -0.000087293    0.000116911   -0.000073710
     20        8           0.000619956   -0.000361793   -0.000267242
     21        1           0.000056830   -0.000033598   -0.000071078
     22        8           0.001207974    0.000602478   -0.000330640
     23        1           0.000069483    0.000058506    0.000075656
     24        8          -0.025339294    0.006788567    0.006969389
     25        1          -0.000214532   -0.002278854   -0.002037893
     26        1          -0.002806512    0.000060795    0.001155593
     27        8          -0.000039262    0.000032093    0.000011526
     28        1          -0.000001633   -0.000017155   -0.000014307
     29        1          -0.000025628   -0.000010207   -0.000010315
     30        1          -0.000915341    0.001007184    0.000953125
 -------------------------------------------------------------------
 Cartesian Forces:  Max     0.025339294 RMS     0.005249417

 GradGradGradGradGradGradGradGradGradGradGradGradGradGradGradGradGradGrad
 Berny optimization.
 FormGI is forming the generalized inverse of G from B-inverse, IUseBI=4.
 Internal  Forces:  Max     0.028584364 RMS     0.005750460
 Search for a local minimum.
 Step number   1 out of a maximum of  180
 All quantities printed in internal units (Hartrees-Bohrs-Radians)
 Mixed Optimization -- RFO/linear search
 Second derivative matrix not updated -- first step.
 ITU=  0
     Eigenvalues ---    0.00260   0.00332   0.00391   0.00527   0.00554
     Eigenvalues ---    0.00601   0.00689   0.00822   0.01053   0.01247
     Eigenvalues ---    0.01463   0.01578   0.02098   0.02460   0.02686
     Eigenvalues ---    0.03934   0.04278   0.04385   0.04553   0.04829
     Eigenvalues ---    0.04943   0.05305   0.05374   0.05835   0.05876
     Eigenvalues ---    0.06022   0.06354   0.06659   0.06869   0.07212
     Eigenvalues ---    0.07960   0.08441   0.08882   0.09448   0.09692
     Eigenvalues ---    0.10671   0.10915   0.11497   0.12739   0.13253
     Eigenvalues ---    0.13515   0.14082   0.15714   0.15997   0.16000
     Eigenvalues ---    0.16000   0.16456   0.16891   0.17127   0.18084
     Eigenvalues ---    0.19437   0.19517   0.20205   0.20599   0.20828
     Eigenvalues ---    0.21992   0.22488   0.27860   0.27944   0.28554
     Eigenvalues ---    0.28675   0.29745   0.33536   0.33562   0.33563
     Eigenvalues ---    0.33615   0.33627   0.33717   0.34513   0.39435
     Eigenvalues ---    0.40468   0.41632   0.42145   0.42875   0.44073
     Eigenvalues ---    0.45426   0.48188   0.49977   0.52318   0.52392
     Eigenvalues ---    0.53545   0.53727   0.53851   0.58340
 RFO step:  Lambda=-3.87905577D-02 EMin= 2.60105495D-03
 Linear search not attempted -- first point.
 Maximum step size (   0.300) exceeded in Quadratic search.
    -- Step size scaled by   0.937
 Iteration  1 RMS(Cart)=  0.13017318 RMS(Int)=  0.00644744
 Iteration  2 RMS(Cart)=  0.01372740 RMS(Int)=  0.00192597
 Iteration  3 RMS(Cart)=  0.00015974 RMS(Int)=  0.00192349
 Iteration  4 RMS(Cart)=  0.00000092 RMS(Int)=  0.00192349
 Variable       Old X    -DE/DX   Delta X   Delta X   Delta X     New X
                                 (Linear)    (Quad)   (Total)
    R1        2.07965  -0.00039   0.00000  -0.00098  -0.00098   2.07867
    R2        2.68280   0.00913   0.00000   0.02198   0.02010   2.70290
    R3        2.91493  -0.00330   0.00000  -0.00793  -0.00938   2.90555
    R4        2.90685  -0.00243   0.00000  -0.00700  -0.00700   2.89985
    R5        2.90479  -0.01516   0.00000  -0.04480  -0.04480   2.85999
    R6        2.89583  -0.01221   0.00000  -0.04224  -0.03973   2.85611
    R7        2.08076  -0.00006   0.00000  -0.00014  -0.00014   2.08062
    R8        2.67085   0.00105   0.00000  -0.00019  -0.00001   2.67084
    R9        2.87801   0.00080   0.00000   0.00148   0.00194   2.87995
   R10        2.06472  -0.00019   0.00000  -0.00048  -0.00048   2.06425
   R11        2.51239   0.00583   0.00000   0.01082   0.00833   2.52072
   R12        2.08074  -0.00024   0.00000  -0.00059  -0.00059   2.08015
   R13        2.67824  -0.00132   0.00000  -0.00264  -0.00264   2.67560
   R14        2.83315   0.01896   0.00000   0.11492   0.11512   2.94827
   R15        2.08121   0.00004   0.00000   0.00011   0.00011   2.08132
   R16        2.70232   0.00183   0.00000   0.00136   0.00130   2.70362
   R17        2.07985  -0.00004   0.00000  -0.00011  -0.00011   2.07974
   R18        2.07809   0.00004   0.00000   0.00011   0.00011   2.07820
   R19        2.70923  -0.00094   0.00000  -0.00199  -0.00199   2.70724
   R20        1.91677   0.00726   0.00000   0.01329   0.01409   1.93086
   R21        1.82981  -0.00005   0.00000  -0.00008  -0.00008   1.82974
   R22        1.84226  -0.00008   0.00000  -0.00013  -0.00013   1.84213
   R23        1.86391  -0.00102   0.00000   0.00089   0.00104   1.86495
   R24        3.38677  -0.00090   0.00000   0.00843   0.00850   3.39526
   R25        1.84296   0.00001   0.00000   0.00001   0.00001   1.84297
   R26        3.46332   0.00084   0.00000   0.00530   0.00500   3.46832
   R27        2.84386   0.00357   0.00000   0.02025   0.02169   2.86555
   R28        1.90816   0.00883   0.00000   0.01614   0.01696   1.92512
   R29        1.82868   0.00078   0.00000   0.00127   0.00127   1.82995
   R30        1.85498   0.00071   0.00000   0.00181   0.00149   1.85647
   R31        1.83149  -0.00001   0.00000  -0.00002  -0.00002   1.83146
    A1        1.87015   0.00225   0.00000   0.00835   0.01014   1.88029
    A2        1.85435  -0.00476   0.00000  -0.02238  -0.02165   1.83270
    A3        1.88366   0.00174   0.00000   0.00359   0.00277   1.88643
    A4        1.95371   0.00701   0.00000   0.02709   0.02390   1.97761
    A5        1.96505  -0.00919   0.00000  -0.02914  -0.02905   1.93600
    A6        1.93101   0.00298   0.00000   0.01180   0.01352   1.94453
    A7        1.91703  -0.01194   0.00000  -0.07407  -0.07309   1.84395
    A8        1.89257  -0.00082   0.00000  -0.01634  -0.02086   1.87171
    A9        1.81239   0.00878   0.00000   0.06201   0.06400   1.87639
   A10        1.90790   0.00247   0.00000  -0.00915  -0.01018   1.89772
   A11        1.99022   0.00241   0.00000   0.03017   0.02953   2.01975
   A12        1.93973  -0.00119   0.00000   0.00593   0.00628   1.94601
   A13        1.98126  -0.00031   0.00000  -0.02401  -0.02802   1.95323
   A14        2.00291  -0.01764   0.00000  -0.07391  -0.07481   1.92810
   A15        2.04171   0.00743   0.00000  -0.00467  -0.01039   2.03132
   A16        1.97484  -0.00341   0.00000  -0.03221  -0.03459   1.94025
   A17        1.87265   0.00196   0.00000   0.01530   0.01525   1.88790
   A18        1.91111   0.00086   0.00000   0.00790   0.00921   1.92032
   A19        1.87997   0.00003   0.00000  -0.00937  -0.00728   1.87268
   A20        1.88907   0.00110   0.00000   0.01519   0.01452   1.90359
   A21        1.93656  -0.00058   0.00000   0.00282   0.00227   1.93883
   A22        2.01887  -0.01998   0.00000  -0.07144  -0.06751   1.95136
   A23        1.91786  -0.01231   0.00000  -0.08432  -0.08319   1.83467
   A24        1.92759  -0.00073   0.00000  -0.00294  -0.00492   1.92267
   A25        1.90432   0.00972   0.00000   0.05496   0.05584   1.96016
   A26        1.88560   0.00670   0.00000   0.03848   0.03870   1.92429
   A27        1.93126  -0.00109   0.00000  -0.00625  -0.00661   1.92465
   A28        1.89718  -0.00229   0.00000   0.00037  -0.00008   1.89709
   A29        1.92668  -0.00005   0.00000  -0.00130  -0.00131   1.92538
   A30        1.90358   0.00040   0.00000   0.00190   0.00190   1.90548
   A31        1.86700  -0.00111   0.00000  -0.00419  -0.00419   1.86280
   A32        1.89864  -0.00008   0.00000   0.00037   0.00037   1.89901
   A33        1.92880   0.00039   0.00000   0.00084   0.00083   1.92963
   A34        1.93907   0.00044   0.00000   0.00235   0.00235   1.94142
   A35        1.84432   0.00208   0.00000  -0.00036   0.00082   1.84514
   A36        1.90393  -0.00020   0.00000  -0.00093  -0.00093   1.90299
   A37        1.81428  -0.00025   0.00000  -0.00116  -0.00116   1.81311
   A38        1.89921   0.00165   0.00000  -0.01970  -0.01936   1.87985
   A39        2.85667  -0.00200   0.00000  -0.00482  -0.00401   2.85266
   A40        1.83927   0.00016   0.00000   0.00604   0.00591   1.84518
   A41        2.17547  -0.00010   0.00000  -0.01092  -0.01072   2.16475
   A42        2.26819  -0.00008   0.00000   0.00515   0.00501   2.27320
   A43        1.59071  -0.02858   0.00000  -0.16985  -0.16505   1.42566
   A44        1.93965   0.00549   0.00000   0.02840   0.02307   1.96272
   A45        1.88045   0.00621   0.00000   0.01022   0.01384   1.89429
   A46        2.58732  -0.00063   0.00000  -0.02096  -0.01923   2.56809
   A47        2.65136   0.00196   0.00000  -0.01079  -0.01007   2.64129
   A48        1.47457  -0.00037   0.00000   0.01237   0.01220   1.48677
   A49        1.94855  -0.00056   0.00000  -0.00309  -0.00326   1.94530
   A50        1.82324  -0.00071   0.00000  -0.00284  -0.00279   1.82045
   A51        2.67898   0.00027   0.00000   0.00293   0.00278   2.68176
    D1        1.87411  -0.00974   0.00000  -0.14052  -0.14081   1.73330
    D2       -2.38271  -0.01034   0.00000  -0.14786  -0.14770  -2.53041
    D3       -0.19423  -0.00802   0.00000  -0.13347  -0.13389  -0.32813
    D4        1.54141  -0.00361   0.00000  -0.05878  -0.06067   1.48074
    D5       -2.66323  -0.00352   0.00000  -0.06603  -0.06641  -2.72964
    D6       -0.57889  -0.00072   0.00000  -0.03310  -0.03341  -0.61231
    D7       -0.49451  -0.00718   0.00000  -0.06976  -0.07225  -0.56676
    D8        1.58404  -0.00709   0.00000  -0.07701  -0.07799   1.50605
    D9       -2.61481  -0.00429   0.00000  -0.04408  -0.04500  -2.65980
   D10       -2.70160  -0.00272   0.00000  -0.06117  -0.06290  -2.76451
   D11       -0.62306  -0.00263   0.00000  -0.06842  -0.06864  -0.69170
   D12        1.46128   0.00017   0.00000  -0.03549  -0.03565   1.42563
   D13       -1.05207  -0.00047   0.00000  -0.00479  -0.00496  -1.05704
   D14       -3.13719  -0.00058   0.00000  -0.00564  -0.00581   3.14018
   D15        1.04729  -0.00069   0.00000  -0.00707  -0.00724   1.04005
   D16        1.00834  -0.00197   0.00000  -0.00932  -0.00768   1.00066
   D17       -1.07678  -0.00209   0.00000  -0.01017  -0.00853  -1.08530
   D18        3.10770  -0.00220   0.00000  -0.01160  -0.00996   3.09774
   D19       -3.07407   0.00262   0.00000   0.01357   0.01209  -3.06198
   D20        1.12399   0.00251   0.00000   0.01272   0.01125   1.13524
   D21       -0.97471   0.00239   0.00000   0.01129   0.00981  -0.96490
   D22       -0.95397   0.00273   0.00000   0.07808   0.07444  -0.87953
   D23        1.11716   0.00205   0.00000   0.05759   0.05509   1.17225
   D24       -3.06279   0.00300   0.00000   0.07458   0.07261  -2.99018
   D25        1.12997  -0.00177   0.00000   0.01373   0.01260   1.14257
   D26       -3.08209  -0.00245   0.00000  -0.00676  -0.00675  -3.08884
   D27       -0.97885  -0.00150   0.00000   0.01024   0.01076  -0.96809
   D28       -3.08900   0.00098   0.00000   0.04474   0.04307  -3.04593
   D29       -1.01787   0.00030   0.00000   0.02425   0.02372  -0.99415
   D30        1.08537   0.00125   0.00000   0.04125   0.04123   1.12660
   D31        1.27670  -0.01047   0.00000  -0.11115  -0.11479   1.16191
   D32       -0.82742  -0.00639   0.00000  -0.08123  -0.08239  -0.90981
   D33       -2.90239  -0.00706   0.00000  -0.10154  -0.10243  -3.00482
   D34       -0.79784  -0.00381   0.00000  -0.04130  -0.04452  -0.84236
   D35       -2.90195   0.00027   0.00000  -0.01138  -0.01212  -2.91407
   D36        1.30626  -0.00040   0.00000  -0.03169  -0.03216   1.27410
   D37       -2.98083  -0.00597   0.00000  -0.06427  -0.06697  -3.04780
   D38        1.19824  -0.00190   0.00000  -0.03436  -0.03457   1.16367
   D39       -0.87673  -0.00256   0.00000  -0.05466  -0.05461  -0.93134
   D40       -2.88477  -0.00519   0.00000  -0.02241  -0.01987  -2.90464
   D41        1.31260   0.00236   0.00000   0.01130   0.01041   1.32301
   D42       -0.85338  -0.00184   0.00000  -0.00440  -0.00439  -0.85778
   D43       -1.74618  -0.00299   0.00000  -0.02446  -0.02283  -1.76901
   D44        2.47012  -0.00341   0.00000  -0.01809  -0.01694   2.45318
   D45        0.37508  -0.00335   0.00000  -0.02466  -0.02363   0.35145
   D46        2.12479   0.00608   0.00000   0.09774   0.09578   2.22057
   D47        0.05791   0.00565   0.00000   0.10411   0.10167   0.15958
   D48       -2.03713   0.00572   0.00000   0.09754   0.09498  -1.94215
   D49       -2.97863  -0.02100   0.00000  -0.22166  -0.21964   3.08491
   D50        0.91851  -0.00776   0.00000  -0.08526  -0.08579   0.83272
   D51       -0.78878  -0.00187   0.00000  -0.01714  -0.01825  -0.80703
   D52       -2.94887   0.00109   0.00000   0.00783   0.00933  -2.93955
   D53        1.27509   0.00072   0.00000   0.00835   0.00796   1.28305
   D54        2.05508  -0.00087   0.00000   0.03633   0.03120   2.08628
   D55       -0.99606  -0.00531   0.00000  -0.03629  -0.03585  -1.03191
   D56        2.12353  -0.00614   0.00000  -0.02479  -0.02418   2.09936
   D57       -3.10821   0.00436   0.00000   0.03668   0.03637  -3.07184
   D58        0.01139   0.00352   0.00000   0.04818   0.04804   0.05943
   D59        1.10703  -0.00177   0.00000  -0.00683  -0.00703   1.10001
   D60       -2.05656  -0.00261   0.00000   0.00467   0.00464  -2.05191
   D61        2.92439   0.00021   0.00000   0.00187   0.00187   2.92626
   D62       -1.26079  -0.00031   0.00000  -0.00179  -0.00179  -1.26258
   D63        0.84854   0.00015   0.00000   0.00081   0.00081   0.84935
   D64        0.71562  -0.01370   0.00000  -0.15157  -0.15956   0.55606
   D65       -0.72464   0.00142   0.00000   0.02783   0.02803  -0.69660
   D66       -0.15515   0.00154   0.00000   0.01049   0.01049  -0.14466
   D67        1.64944   0.00064   0.00000   0.01221   0.01217   1.66161
   D68        0.08383  -0.00119   0.00000  -0.02307  -0.02338   0.06046
   D69       -3.08543  -0.00224   0.00000  -0.00868  -0.00873  -3.09416
   D70       -0.11442  -0.00074   0.00000   0.02837   0.01960  -0.09483
   D71        1.79741  -0.00507   0.00000  -0.02692  -0.03013   1.76728
   D72       -0.18774  -0.00149   0.00000   0.02926   0.02393  -0.16381
   D73       -2.15373   0.00187   0.00000   0.05782   0.05285  -2.10088
   D74        0.30049  -0.00118   0.00000  -0.01116  -0.01154   0.28895
   D75       -1.63620  -0.00051   0.00000  -0.01094  -0.01110  -1.64730
         Item               Value     Threshold  Converged?
 Maximum Force            0.028584     0.000450     NO 
 RMS     Force            0.005750     0.000300     NO 
 Maximum Displacement     0.679315     0.001800     NO 
 RMS     Displacement     0.132783     0.001200     NO 
 Predicted change in Energy=-2.641730D-02
 GradGradGradGradGradGradGradGradGradGradGradGradGradGradGradGradGradGrad

                          Input orientation:                          
 ---------------------------------------------------------------------
 Center     Atomic      Atomic             Coordinates (Angstroms)
 Number     Number       Type             X           Y           Z
 ---------------------------------------------------------------------
      1          1           0       -0.064905    1.366360    1.402009
      2          6           0       -0.486353    0.948730    0.475763
      3          6           0        1.189917   -0.740350    0.031152
      4          6           0       -1.273906   -1.188469    0.118649
      5          6           0        0.080587   -1.689156   -0.368434
      6          8           0       -1.248036   -0.209736    0.827313
      7          6           0        0.731212    0.631202   -0.407852
      8          1           0       -1.603323   -1.713732    1.017993
      9          1           0        0.039853   -1.726019   -1.467830
     10          1           0        0.435906    0.613020   -1.468755
     11          6           0       -1.380266    2.018512   -0.165550
     12          1           0       -2.200008    2.290539    0.516532
     13          1           0       -1.810609    1.619516   -1.095621
     14          8           0       -2.143856   -1.139325   -0.891341
     15          1           0        1.253439   -0.756943    1.130209
     16          8           0       -0.544534    3.152736   -0.425271
     17          1           0       -1.019282    3.769494   -1.001242
     18          8           0        0.321834   -2.973816    0.175746
     19          1           0        1.262527   -3.137979   -0.020235
     20          8           0        2.383833   -1.207442   -0.563777
     21          1           0        3.137121   -0.733620   -0.137162
     22          8           0        1.785967    1.583447   -0.241678
     23          1           0        1.401906    2.447530   -0.480393
     24          8           0       -3.734410   -0.045852    0.598924
     25          1           0       -3.032388   -0.850693   -0.477560
     26          1           0       -2.774590    0.102469    0.906426
     27          8           0        4.178759    0.526356    0.608206
     28          1           0        3.476726    1.154312    0.329032
     29          1           0        4.116111    0.511628    1.575235
     30          1           0       -4.083744    0.793232    0.264799
 ---------------------------------------------------------------------
                    Distance matrix (angstroms):
                    1          2          3          4          5
     1  H    0.000000
     2  C    1.099984   0.000000
     3  C    2.809280   2.420857   0.000000
     4  C    3.104166   2.305513   2.505771   0.000000
     5  C    3.534376   2.827106   1.513444   1.524004   0.000000
     6  O    2.052840   1.430312   2.618976   1.208632   2.320287
     7  C    2.109468   1.537551   1.511387   2.758425   2.410172
     8  H    3.464269   2.937744   3.118256   1.092353   2.181362
     9  H    4.220161   3.347944   2.130994   2.128811   1.100768
    10  H    3.009920   2.178167   2.156354   2.947656   2.576232
    11  C    2.147724   1.534535   3.775692   3.221306   3.990245
    12  H    2.489345   2.176862   4.573125   3.622081   4.671429
    13  H    3.057732   2.161679   3.980169   3.106008   3.879786
    14  O    3.982455   2.996041   3.481985   1.333908   2.350297
    15  H    2.514025   2.522795   1.101016   2.756255   2.119088
    16  O    2.600026   2.381783   4.286346   4.435527   4.882410
    17  H    3.530086   3.228354   5.126899   5.089242   5.604196
    18  O    4.526634   4.016160   2.400593   2.395226   1.415868
    19  H    4.906518   4.472782   2.399278   3.202088   1.901923
    20  O    4.060184   3.737337   1.413348   3.720904   2.361175
    21  H    4.126977   4.041725   1.954477   4.441789   3.210753
    22  O    2.484867   2.465974   2.414486   4.144415   3.692467
    23  H    2.619905   2.593484   3.235614   4.554044   4.344029
    24  O    4.013048   3.399152   5.005366   2.755054   4.265025
    25  H    4.153800   3.260221   4.254271   1.887278   3.225763
    26  H    3.030745   2.477429   4.146536   2.130532   3.603779
    27  O    4.398228   4.686065   3.297076   5.736884   4.759971
    28  H    3.706669   3.971119   2.984623   5.301074   4.483919
    29  H    4.271004   4.752112   3.537549   5.836459   4.990666
    30  H    4.215778   3.606925   5.497087   3.441467   4.889263
                    6          7          8          9         10
     6  O    0.000000
     7  C    2.479966   0.000000
     8  H    1.557110   3.603027   0.000000
     9  H    3.037343   2.675448   2.979848   0.000000
    10  H    2.963869   1.101386   3.969401   2.372333   0.000000
    11  C    2.443021   2.538046   3.921756   4.211197   2.640498
    12  H    2.693364   3.492840   4.079421   5.008733   3.701820
    13  H    2.712993   2.812587   3.952325   3.841270   2.489798
    14  O    2.149512   3.410945   2.065836   2.333481   3.171639
    15  H    2.578480   2.136656   3.014818   3.026831   3.049553
    16  O    3.656515   2.825945   5.185225   5.023016   2.915524
    17  H    4.385227   3.642144   5.872323   5.616060   3.507059
    18  O    3.244868   3.674824   2.450188   2.082751   3.947504
    19  H    3.949160   3.826130   3.364446   2.363068   4.105058
    20  O    4.015100   2.477112   4.319230   2.565244   2.815580
    21  H    4.520428   2.779283   4.976627   3.514058   3.298961
    22  O    3.682855   1.430696   4.893409   3.937630   2.066425
    23  H    3.974085   1.937560   5.347211   4.499859   2.296833
    24  O    2.502214   4.627503   2.738425   4.619469   4.701165
    25  H    2.301615   4.045437   2.241370   3.344472   3.892812
    26  H    1.560160   3.781208   2.164000   4.111149   4.026094
    27  O    5.480870   3.595684   6.214370   5.149141   4.281381
    28  H    4.942903   2.890413   5.874287   4.830851   3.573741
    29  H    5.463865   3.924853   6.162359   5.557265   4.777035
    30  H    3.060002   4.864413   3.606197   5.133486   4.844061
                   11         12         13         14         15
    11  C    0.000000
    12  H    1.100551   0.000000
    13  H    1.099738   1.789117   0.000000
    14  O    3.328930   3.707995   2.786394   0.000000
    15  H    4.039622   4.646509   4.471048   3.971712   0.000000
    16  O    1.432609   2.090687   2.098351   4.604003   4.575786
    17  H    1.973481   2.425914   2.292926   5.037186   5.495178
    18  O    5.285543   5.847157   5.221340   3.253254   2.587163
    19  H    5.796108   6.461119   5.764927   4.044365   2.644416
    20  O    4.973309   5.866390   5.086050   4.540034   2.085744
    21  H    5.289785   6.169100   5.562008   5.349963   2.270469
    22  O    3.196890   4.118599   3.696739   4.824838   2.764613
    23  H    2.832607   3.740627   3.374073   5.060320   3.589531
    24  O    3.223045   2.796409   3.057114   2.438532   5.066217
    25  H    3.325537   3.398295   2.824301   1.021769   4.578431
    26  H    2.600864   2.295607   2.690517   2.274169   4.124765
    27  O    5.807579   6.618867   6.322227   6.708099   3.236794
    28  H    4.958006   5.792363   5.495631   6.192013   3.039373
    29  H    5.959127   6.646708   6.594460   6.927975   3.162627
    30  H    2.999218   2.419454   2.775001   2.972306   5.624723
                   16         17         18         19         20
    16  O    0.000000
    17  H    0.968256   0.000000
    18  O    6.216627   6.975394   0.000000
    19  H    6.557638   7.340450   0.974813   0.000000
    20  O    5.254110   6.045036   2.814038   2.297768   0.000000
    21  H    5.361096   6.188728   3.611403   3.051019   0.986889
    22  O    2.815601   3.636642   4.804849   4.755511   2.872325
    23  H    2.070986   2.807316   5.566693   5.606165   3.785493
    24  O    4.631982   4.948668   5.020475   5.908806   6.335146
    25  H    4.713767   5.066849   4.023092   4.887445   5.428642
    26  H    4.006332   4.490810   4.425524   5.259041   5.521476
    27  O    5.502312   6.334658   5.226288   4.725113   2.757055
    28  H    4.553372   5.368696   5.197911   4.842358   2.751256
    29  H    5.718311   6.604861   5.338860   4.899806   3.245206
    30  H    4.309230   4.455549   5.797215   6.642159   6.820469
                   21         22         23         24         25
    21  H    0.000000
    22  O    2.684276   0.000000
    23  H    3.639848   0.975258   0.000000
    24  O    6.944984   5.816854   5.810648   0.000000
    25  H    6.180002   5.403445   5.526413   1.516384   0.000000
    26  H    6.061060   4.930529   4.986552   1.018730   1.700116
    27  O    1.796697   2.750490   3.547798   7.933836   7.421306
    28  H    1.974071   1.835356   2.575356   7.315307   6.858513
    29  H    2.332674   3.143173   3.916661   7.930615   7.561146
    30  H    7.391465   5.944280   5.777921   0.968368   2.087806
                   26         27         28         29         30
    26  H    0.000000
    27  O    6.972637   0.000000
    28  H    6.365431   0.982404   0.000000
    29  H    6.935162   0.969169   1.541064   0.000000
    30  H    1.613296   8.273941   7.569360   8.308680   0.000000
[...]
 0003858,0.00001564,-0.00155204,-0.00036603,0.00035688,0.00011086,0.000
 17536,-0.00020915,0.00026385,0.00011728,0.00007861,-0.00004073,-0.0000
 6044,-0.00003439,0.00013230,0.00034861,0.00003728,-0.00003505,-0.00009
 910,-0.00003969,-0.00011314,0.00032100,-0.00000893,0.00033087,-0.00013
 615,0.00002016,-0.11086559,0.47867702,0.00026198,0.00001096,0.00011022
 ,-0.00092673,0.00098567,-0.00018577,-0.00010478,-0.00021823,-0.0001152
 8,-0.00333340,-0.00078748,-0.00887125,0.00027642,0.00047449,0.00083835
 ,-0.00113831,0.00129175,0.00486011,-0.00011239,-0.00054152,-0.00024684
 ,0.00028431,-0.00053198,0.00086974,-0.00036786,0.00009288,0.00033969,-
 0.00009807,-0.00000275,0.00022055,-0.00027941,-0.00056100,-0.00098771,
 -0.00014247,-0.00011994,-0.00036102,-0.00041321,-0.00001555,0.00079182
 ,0.01046367,-0.00577167,0.00077241,0.00010545,0.00002480,0.00010705,0.
 00054335,0.00048648,0.00042812,-0.00004440,-0.00025507,-0.00005968,0.0
 0048316,-0.00039772,0.00036995,-0.00004670,-0.00003691,-0.00005220,0.0
 0040408,0.00007231,0.00010124,-0.00014514,-0.00008147,-0.00011197,0.00
 008178,0.00016696,0.00024780,-0.00010625,0.00001094,-0.00008597,0.2275
 7752,0.01264427,0.14143708,0.00027890,0.00038507,-0.00002019,-0.001853
 95,-0.00160659,0.00038816,-0.00048620,-0.00002497,0.00006327,-0.032035
 70,0.00486947,-0.00337309,0.00019049,0.00185039,-0.00225863,0.00223044
 ,0.00372938,0.00591510,-0.00057927,-0.00030509,-0.00016602,0.00257446,
 -0.00064975,0.00217075,-0.00001856,0.00012651,-0.00007025,-0.00006058,
 -0.00009722,0.00011215,0.00066238,-0.00067553,-0.00116405,-0.00019717,
 0.00028886,0.00043108,0.00007953,-0.00072162,0.00047803,-0.37428511,0.
 07898794,0.10109564,0.00003248,0.00000831,0.00002728,-0.00006097,0.000
 89818,0.00013797,0.00010558,-0.00008542,-0.00003892,-0.00027006,-0.000
 50778,0.00028835,-0.00005281,0.00019775,-0.00021394,0.00072967,0.00004
 186,-0.00005132,-0.00024806,-0.00013833,-0.00010437,0.00057586,0.00040
 816,0.00002959,-0.00003801,-0.00015371,0.00005121,-0.00446537,-0.00202
 694,-0.00283082,0.40272546,0.00013098,-0.00015662,0.00010726,-0.000945
 38,0.00009778,-0.00008420,0.00057979,-0.00018524,0.00014467,0.01204279
 ,-0.00022409,0.00025510,0.00231479,0.00256055,0.00173523,0.00057988,-0
 .00152926,-0.00052571,0.00000240,-0.00004235,0.00066684,0.00047832,0.0
 0009015,-0.00190477,0.00012369,-0.00004643,0.00012513,0.00007473,0.000
 10390,-0.00027777,-0.00120657,-0.00104740,-0.00058156,0.00021382,-0.00
 030571,-0.00025061,-0.00067669,-0.00004977,0.00054086,0.07155285,-0.03
 442286,-0.01566692,-0.00001442,0.00002928,-0.00000615,0.00103788,0.000
 68287,0.00010722,-0.00005525,-0.00020521,0.00008091,-0.00065428,-0.000
 26907,-0.00019861,0.00011601,0.00006174,0.00001372,0.00014185,-0.00022
 937,-0.00003845,0.00004086,0.00004088,-0.00002430,0.00012924,-0.000318
 49,-0.00022762,-0.00029711,0.00012916,0.00001593,-0.00183983,-0.003725
 41,0.00595909,-0.08414331,0.03992363,-0.00003025,0.00007764,-0.0000123
 5,-0.00048765,-0.00113015,0.00006055,-0.00024036,0.00084027,0.00059996
 ,-0.04242368,0.01215478,0.01129926,-0.00164079,0.00022935,-0.00578879,
 0.00293234,-0.00173745,-0.00155535,-0.00008360,0.00043489,0.00013652,-
 0.00008703,0.00060269,-0.00077924,0.00015726,0.00014142,0.00033431,0.0
 0001147,-0.00004816,-0.00007209,-0.00057977,0.00015094,0.00098921,0.00
 019450,-0.00031326,-0.00033466,0.00006514,0.00006395,-0.00009083,0.147
 34937,-0.02905886,-0.09762140,0.00003903,0.00001670,-0.00006604,0.0002
 3252,-0.00003373,-0.00040878,-0.00001355,0.00009364,0.00012239,-0.0012
 7542,0.00047024,0.00024228,-0.00004515,0.00037404,-0.00003854,-0.00046
 507,-0.00039985,-0.00012841,0.00003982,0.00011651,0.00014154,0.0002579
 8,-0.00017988,-0.00012994,-0.00009643,0.00000063,0.00005471,-0.0044505
 9,0.00377156,-0.00364264,-0.09860358,0.01591253,0.09884210,0.00016412,
 0.00049169,0.00004509,-0.00229979,-0.00732851,0.00064342,-0.00097307,0
 .00034331,0.00016189,0.00186361,0.00897480,0.00800343,-0.00072441,-0.0
 0009000,-0.00102639,0.00363843,-0.00084411,-0.00369871,-0.00071388,0.0
 0091731,0.00038558,-0.00001283,-0.00038632,-0.00014123,0.00046444,-0.0
 0022514,-0.00028797,0.00023267,-0.00009074,-0.00028422,0.00115672,-0.0
 0085396,0.00019509,-0.00024650,-0.00007010,0.00048754,0.00004106,-0.00
 004141,-0.00009371,-0.00456858,-0.00006583,-0.00262324,-0.00010090,0.0
 0000092,-0.00010025,-0.00046036,0.00107156,-0.00051345,0.00016456,0.00
 009495,-0.00003639,0.00034111,-0.00078935,-0.00000626,-0.00001846,0.00
 012566,0.00004215,0.00092456,-0.00021973,-0.00020614,-0.00035447,-0.00
 013154,-0.00011052,0.00161579,0.00063528,-0.00041744,-0.00006610,-0.00
 031712,0.00020187,-0.33739949,-0.05333956,-0.18188168,0.00545395,-0.00
 107211,-0.00056846,0.34792734,-0.00013252,-0.00026324,0.00001351,-0.00
 154876,0.00217925,-0.00010193,0.00007314,0.00032050,0.00000692,0.00408
 285,0.00073868,-0.00213023,-0.00004892,-0.00063471,-0.00024162,-0.0013
 0170,-0.00628125,0.00029812,0.00002688,-0.00050088,0.00013849,0.000132
 26,-0.00118999,0.00030027,-0.00001878,-0.00001726,0.00001742,-0.000030
 03,0.00004723,0.00005530,-0.00257350,0.00018991,0.00148756,0.00075037,
 -0.00086130,-0.00050577,0.00014076,-0.00001185,0.00000381,0.00021639,-
 0.00086615,0.00064209,0.00000773,-0.00001833,0.00001380,0.00133715,0.0
 0035366,-0.00045368,-0.00004276,-0.00011638,0.00016304,-0.00008577,-0.
 00007198,0.00004498,0.00001852,-0.00000296,0.00002779,-0.00019017,-0.0
 0024856,0.00000401,0.00004295,0.00007765,0.00003455,-0.00015094,-0.000
 29303,0.00010440,-0.00024872,0.00014067,-0.00004413,-0.10559500,-0.077
 68297,-0.06878794,-0.00135624,0.00050036,-0.00261634,0.06449703,0.0784
 8400,-0.00032924,-0.00012936,-0.00005604,0.00180794,0.00011187,-0.0002
 3830,0.00010870,0.00003489,0.00014317,0.00503161,-0.00248207,0.0020122
 8,0.00000082,-0.00062376,-0.00012086,-0.00336951,0.00050620,-0.0045202
 7,0.00013013,0.00042583,0.00000318,-0.00019881,0.00017194,0.00000200,0
 .00008775,-0.00000347,-0.00011346,0.00004164,-0.00001155,-0.00011513,0
 .00100322,0.00032607,-0.00007088,-0.00005074,0.00050489,0.00054896,0.0
 0026308,0.00007954,-0.00061350,-0.00204403,0.00223296,0.00026934,-0.00
 003181,-0.00000437,-0.00003553,-0.00079277,-0.00060371,0.00000853,0.00
 000572,0.00016112,-0.00004149,-0.00014920,0.00026732,-0.00021530,0.000
 01661,-0.00003532,0.00003661,-0.00034478,0.00002925,-0.00004105,0.0001
 1962,0.00005224,0.00007771,-0.00021543,-0.00009824,-0.00011339,0.00015
 822,-0.00002051,0.00004819,-0.18837007,-0.03877943,-0.11458228,-0.0010
 3438,-0.00401512,-0.00610168,0.19145871,0.04726812,0.12675125,0.000104
 90,-0.00006398,-0.00006986,0.00054676,-0.00028702,-0.00071510,0.003833
 13,-0.00164502,-0.00156022,0.00092242,-0.00014190,0.00037939,-0.000104
 31,0.00108507,0.00001217,-0.00127062,-0.00025893,0.00020861,0.00190738
 ,0.00314497,0.00111324,-0.00021408,-0.00000789,0.00003423,-0.00004791,
 -0.00007006,0.00010251,-0.00061853,-0.00034604,-0.00033225,0.00027818,
 -0.00014190,0.00013597,-0.00029503,0.00013959,0.00004594,-0.00000115,0
 .00000035,-0.00002244,-0.00085796,-0.00001307,-0.00035561,0.00003108,0
 .00038206,-0.00007094,-0.00077084,0.00078815,-0.00015022,-0.00021979,-
 0.00019188,0.00005409,-0.00043648,-0.00121236,0.00024769,0.00019509,0.
 00099815,-0.00017521,-0.00911230,-0.00960685,-0.00600290,-0.00489434,0
 .00461938,0.00415449,-0.01056347,0.00762855,-0.00444664,-0.00250322,-0
 .00249603,-0.00008736,-0.00061125,-0.00001227,0.00018907,0.00034930,0.
 00002861,-0.00005853,0.00052427,-0.00002807,-0.00016760,0.30380943,-0.
 00013556,0.00010528,0.00014854,0.00005629,0.00035059,0.00018205,0.0060
 1995,-0.00386314,-0.00319378,0.00056872,-0.00154271,-0.00026517,-0.001
 01708,0.00047837,0.00050008,0.00033056,0.00118600,-0.00013742,-0.00170
 460,-0.00459987,0.00012748,-0.00019470,0.00016494,0.00007833,0.0000901
 9,0.00006081,0.00008945,0.00062040,0.00052965,0.00017039,-0.00045955,-
 0.00052310,0.00026043,0.00003840,0.00011473,-0.00008099,0.00006072,0.0
 0000982,0.00002524,-0.00050308,0.00047134,-0.00005787,-0.00007698,0.00
 042821,0.00034996,0.00062426,0.00030524,-0.00002448,0.00002934,-0.0000
 2911,-0.00001657,-0.00057856,0.00011093,-0.00009710,0.00054371,0.00078
 742,-0.00008454,-0.01580319,-0.00443929,-0.00651447,0.00352553,-0.0035
 9576,0.00864956,0.00921869,0.00307278,0.00257396,0.00031641,0.00092083
 ,-0.00015171,-0.00014373,0.00012175,0.00007425,0.00012355,-0.00009018,
 -0.00011011,0.00009276,-0.00009168,-0.00003690,-0.23227308,0.23007448,
 -0.00003939,0.00005026,0.00006258,-0.00006834,-0.00024198,-0.00036200,
 0.00157391,-0.00127731,-0.00309089,0.00014828,-0.00033326,-0.00005917,
 -0.00063101,0.00036687,0.00056867,-0.00035732,0.00003690,0.00021604,0.
 00012789,0.00092655,0.00051278,-0.00011294,0.00002720,0.00003254,0.000
 20257,0.00013704,0.00012675,0.00014262,-0.00005173,0.00010539,0.000081
 07,0.00003508,0.00007099,-0.00009887,0.00004334,0.00001070,0.00002500,
 -0.00002276,0.00002306,-0.00021548,0.00002029,-0.00000090,-0.00062681,
 0.00000523,0.00100690,-0.00020109,0.00016972,0.00006165,-0.00000174,-0
 .00005196,-0.00003187,-0.00016039,-0.00023844,0.00021181,0.00014228,0.
 00038303,-0.00027411,-0.00854704,-0.00666652,0.00144246,0.00296340,0.0
 0514122,-0.00648533,-0.00432233,0.00128726,0.00185270,-0.00023097,-0.0
 0043924,0.00027457,-0.00014922,0.00000455,0.00008671,0.00009011,-0.000
 00225,-0.00004521,0.00012172,-0.00001055,-0.00006831,0.07543227,-0.053
 13615,0.57356438,-0.00024227,0.00014354,0.00019741,-0.00048696,0.00073
 891,0.00106021,0.00223370,-0.00223379,0.00001552,-0.00052053,-0.001133
 73,-0.00060133,-0.00077384,-0.00051849,0.00009240,0.00176101,0.0012344
 9,-0.00041749,-0.00479856,-0.00791315,-0.00135102,0.00004427,0.0001503
 6,0.00003876,0.00007958,0.00007429,0.00000692,0.00136317,0.00097102,0.
 00059326,-0.00068781,-0.00019012,0.00001826,0.00035822,-0.00007900,-0.
 00010195,0.00003519,0.00000272,0.00003224,0.00049971,0.00037083,0.0003
 2565,-0.00014325,0.00006645,0.00006657,0.00131645,-0.00079771,0.000157
 59,0.00032676,0.00020952,-0.00006730,-0.00000563,0.00126793,-0.0002224
 2,0.00019980,-0.00021360,-0.00000561,-0.00463593,0.00025072,-0.0010315
 5,0.00633901,-0.00011652,0.00265606,-0.00412214,0.00154452,0.00040367,
 0.00323189,0.00401536,-0.00008113,0.00052372,0.00009215,-0.00013540,-0
 .00026773,-0.00008307,-0.00002611,-0.00048212,-0.00002884,0.00014387,-
 0.25361453,0.20910606,-0.07934945,0.25270391,0.00011832,-0.00005411,-0
 .00008398,-0.00020494,-0.00065010,-0.00044324,-0.00397196,0.00127639,0
 .00073147,-0.00028464,0.00089875,0.00023366,0.00026186,-0.00023033,0.0
 0006919,-0.00046711,-0.00076515,0.00021053,-0.00078859,0.00491961,-0.0
 0001795,0.00008245,-0.00009452,-0.00004274,0.00003037,0.00004150,0.000
 01396,-0.00068426,-0.00058682,-0.00020296,0.00029400,0.00028219,-0.000
 10705,-0.00005685,-0.00003827,0.00004887,-0.00002849,-0.00001327,-0.00
 000562,0.00020383,-0.00029286,-0.00001184,0.00013078,-0.00033589,0.000
 19510,-0.00029566,-0.00018772,0.00003578,0.00001389,0.00000265,0.00001
 099,0.00028226,-0.00001297,0.00001328,-0.00024073,-0.00041508,0.000050
 62,0.00393169,0.00284502,0.00024580,-0.00085363,-0.01142577,-0.0022784
 6,-0.00172221,-0.01111861,0.00024277,0.00171433,-0.00048017,0.00005407
 ,0.00000971,-0.00007069,-0.00002241,-0.00003180,0.00005052,0.00005859,
 0.00001498,0.00004607,0.00000091,0.20824548,-0.19318738,0.06665428,-0.
 20625921,0.20953767,0.00002652,0.00001087,-0.00003083,0.00030153,0.000
 59527,0.00044592,0.00013231,-0.00053990,0.00135467,-0.00003084,-0.0002
 8300,-0.00008142,-0.00007025,0.00002274,-0.00015848,0.00059501,0.00031
 547,-0.00028745,-0.00119792,-0.00216457,-0.00144430,0.00000920,0.00003
 778,0.00000740,-0.00009337,-0.00006870,-0.00005961,-0.00027504,-0.0000
 9441,-0.00011203,-0.00020687,-0.00015370,-0.00003609,0.00010883,-0.000
 01754,-0.00002135,-0.00001348,0.00002543,-0.00001636,0.00003970,0.0001
 0786,-0.00000045,0.00017183,0.00018021,-0.00054530,0.00031395,-0.00011
 860,-0.00008981,0.00000139,0.00005112,0.00003875,-0.00000620,0.0002437
 9,-0.00012726,0.00003835,-0.00004539,0.00008388,-0.00122772,0.00062281
 ,-0.00189527,0.00245052,-0.00162218,0.00369441,0.00200387,0.00116057,-
 0.00185749,-0.00021113,0.00074705,-0.00061760,0.00010039,0.00002371,-0
 .00004939,-0.00004600,-0.00001708,0.00000300,-0.00009630,-0.00000823,0
 .00004558,-0.03470840,0.02574393,-0.07003462,0.07086622,-0.06005032,0.
 08504745,-0.00004616,0.00006318,0.00005729,-0.00026869,-0.00009959,-0.
 00002979,-0.00013846,0.00015033,-0.00114439,-0.00028693,-0.00005880,-0
 .00013498,-0.00019236,-0.00033791,0.00027289,0.00027212,0.00009277,0.0
 0005190,-0.00054843,-0.00016140,-0.00017857,0.00003044,0.00001223,-0.0
 0000290,0.00010322,0.00010135,0.00004434,0.00015033,-0.00001542,0.0001
 3168,-0.00002755,0.00011667,-0.00000401,0.00005372,-0.00003744,-0.0000
 1025,0.00000988,-0.00001872,0.00002320,0.00023201,0.00000442,0.0001199
 7,-0.00032930,-0.00020544,0.00054162,0.00009245,-0.00015210,0.00002894
 ,0.00002885,0.00005064,-0.00000979,0.00006387,0.00034380,-0.00000545,-
 0.00000222,-0.00018213,-0.00006215,-0.00068429,-0.00094941,0.00064664,
 0.00032469,0.00090596,-0.00252128,-0.00064929,-0.00004545,0.00091760,-
 0.00004951,0.00032854,0.00018582,0.00016735,0.00000431,-0.00004090,-0.
 00009596,-0.00001141,0.00000872,-0.00014342,0.00000665,0.00003484,-0.0
 2654162,0.02152024,0.01402276,-0.00006285,0.00053951,-0.03894484,0.028
 58836,0.00001405,0.00000035,-0.00003167,0.00007092,0.00015622,0.000032
 75,-0.00030916,-0.00008258,-0.00080155,-0.00012081,0.00011272,0.000031
 65,-0.00017524,0.00012641,0.00010667,0.00000203,-0.00022092,0.00000166
 ,0.00029754,0.00042671,-0.00000479,-0.00001627,-0.00001298,0.00000135,
 0.00006324,0.00003854,0.00004834,-0.00005620,-0.00014480,-0.00000499,0
 .00006297,0.00009877,-0.00004229,-0.00000274,-0.00001616,0.00001212,-0
 .00001486,-0.00000326,-0.00001035,0.00005909,-0.00008356,0.00001188,-0
 .00029717,0.00000359,0.00031385,-0.00007667,-0.00012139,-0.00000069,0.
 00000780,0.00001143,0.00000675,0.00009896,-0.00010276,0.00015549,-0.00
 007080,0.00000861,-0.00016567,-0.00165258,-0.00205731,0.00086821,0.002
 56962,0.00344626,-0.00377392,0.00025911,-0.00059863,-0.00074482,0.0001
 7797,0.00006977,0.00012638,0.00001438,-0.00002809,-0.00000234,-0.00001
 290,0.00002490,0.00001120,-0.00001132,0.00002241,-0.00000246,0.0217083
 3,-0.02731599,-0.01282254,-0.00063604,0.00004770,0.03530250,-0.0219579
 7,0.02618865,-0.00000973,-0.00000814,0.00000344,-0.00007685,0.00002272
 ,0.00011723,-0.00037598,0.00013734,0.00013916,-0.00010370,0.00002493,0
 .00000360,-0.00005183,-0.00013137,0.00007025,0.00013519,0.00001615,-0.
 00006138,-0.00026883,-0.00036467,-0.00011437,0.00002259,0.00000410,-0.
 00000390,0.00002448,0.00002004,-0.00000387,0.00008891,0.00005440,0.000
 04083,-0.00004158,-0.00000859,-0.00000716,0.00003624,-0.00001421,-0.00
 000598,-0.00000083,0.00000439,-0.00000309,0.00008803,-0.00000026,0.000
 01317,-0.00008511,-0.00004242,0.00008012,0.00009674,-0.00005218,-0.000
 01112,0.00001066,0.00001732,0.00000209,0.00004286,0.00013336,-0.000046
 86,-0.00003200,-0.00008611,0.00000986,0.00106240,0.00050286,0.00074532
 ,-0.00081459,-0.00103214,-0.00240418,0.00077790,-0.00000056,0.00039062
 ,0.00000125,0.00009444,0.00010230,0.00006264,0.00000170,-0.00003233,-0
 .00003633,-0.00000142,0.00001189,-0.00005247,0.00000104,0.00002688,-0.
 03315931,0.02492349,-0.49975723,0.00667904,-0.00559283,-0.01327737,0.0
 2599760,-0.01862030,0.51396456,0.00004095,-0.00007543,0.00006636,-0.00
 052655,0.00067749,-0.00041943,-0.00011845,0.00015023,-0.00006535,0.000
 20722,0.00031285,-0.00033514,-0.00003493,0.00022237,-0.00004603,-0.000
 99676,-0.00137974,0.00034209,-0.00013438,-0.00032792,0.00017526,-0.000
 06987,-0.00007342,0.00007995,0.00001792,-0.00001825,-0.00000296,-0.000
 00638,0.00002354,0.00003023,-0.00166176,-0.00007522,0.00101573,0.00038
 659,-0.00073054,-0.00075124,-0.00009170,0.00002271,0.00020278,0.000088
 41,-0.00077820,0.00054687,0.00000981,-0.00001433,0.00001182,0.00119182
 ,0.00068475,-0.00034276,-0.00003494,-0.00017767,0.00013561,0.00005654,
 -0.00022699,0.00004467,-0.00000581,0.00005687,0.00000062,0.00027699,-0
 .00014587,-0.00003130,-0.00010572,-0.00001906,-0.00003303,0.00027485,-
 0.00000371,0.00002204,-0.00023630,0.00003441,-0.00000061,-0.12943430,0
 .15903974,-0.04852287,-0.00097298,0.00141097,-0.00011212,-0.01594827,0
 .04204801,-0.00331413,0.00017550,0.00000433,0.00003850,-0.00017225,0.0
 0001660,-0.00003124,-0.00005025,0.00000473,-0.00001739,0.14787499,0.00
 000372,-0.00002718,0.00001478,0.00022793,0.00053335,-0.00031249,-0.000
 00311,0.00006211,-0.00003804,-0.00013279,-0.00031678,0.00006276,0.0000
 1871,0.00000578,-0.00001212,-0.00116177,-0.00016203,0.00013943,-0.0000
 1705,-0.00011023,0.00013227,-0.00005069,0.00005646,-0.00008500,0.00000
 152,0.00000279,0.00000562,-0.00001181,0.00001284,0.00001083,-0.0006081
 2,-0.00006838,0.00054493,0.00004501,-0.00012583,-0.00022982,0.00005342
 ,0.00002207,-0.00004780,-0.00054854,0.00055725,0.00008434,0.00000534,-
 0.00000666,0.00000612,0.00032482,0.00006127,-0.00013289,-0.00007484,-0
 .00001881,0.00008126,-0.00000883,-0.00003418,0.00000293,0.00000278,0.0
 0001689,0.00000271,0.00003466,-0.00005702,-0.00000405,-0.00001194,0.00
 001078,-0.00000210,0.00004095,-0.00004357,0.00000845,-0.00007774,0.000
 02691,-0.00000327,0.21338862,-0.40175237,0.05583914,0.00062178,-0.0014
 4827,0.00010624,-0.01138341,0.00605212,-0.00532689,0.00002763,-0.00001
 496,0.00000587,-0.00003559,0.00001163,-0.00000750,-0.00000742,0.000005
 37,-0.00000308,-0.20066325,0.39674864,-0.00011122,0.00005071,-0.000070
 12,-0.00007544,-0.00022809,0.00021406,-0.00000782,-0.00004857,0.000037
 85,-0.00056089,-0.00008843,-0.00039082,-0.00005545,-0.00007572,-0.0000
 4069,-0.00043911,0.00002677,0.00010087,0.00001804,0.00000743,-0.000026
 53,-0.00004254,0.00005769,-0.00004795,0.00002977,-0.00000827,0.0000199
 6,0.00001126,-0.00001238,-0.00002386,-0.00002254,0.00039755,0.00032526
 ,0.00022159,0.00015230,0.00028276,0.00032568,-0.00015406,-0.00034910,0
 .00245491,0.00030904,-0.00215161,-0.00000443,0.00000953,-0.00001515,-0
 .00018699,-0.00012726,-0.00021802,0.00007616,0.00011244,0.00004136,0.0
 0002303,0.00003904,-0.00001973,0.00000061,-0.00001092,0.00001075,-0.00
 002143,0.00004534,-0.00002153,0.00001317,-0.00000596,0.00001574,-0.000
 06771,0.00002199,-0.00004200,0.00007065,-0.00001786,0.00003259,-0.0421
 0738,0.02795991,-0.02219653,-0.00126682,-0.00184197,0.00397825,-0.0096
 0167,0.02427520,-0.00292621,-0.00002706,0.00001012,-0.00002105,0.00003
 711,-0.00001049,0.00002142,0.00000348,-0.00000241,0.00000750,0.0513130
 5,-0.05084267,0.02347255\\-0.00000362,-0.00000064,0.00000357,0.0000163
 2,0.00000696,-0.00000615,0.00002197,-0.00001193,-0.00000132,-0.0000148
 0,0.00002040,-0.00002300,0.00000735,-0.00001482,0.00001180,0.00002025,
 -0.00001338,-0.00000786,-0.00000933,0.00003495,0.00001306,0.00001025,-
 0.00000901,-0.00000273,0.00000633,0.00000624,-0.00000633,-0.00000382,0
 .00000107,-0.00000300,0.00000155,0.00000218,0.00000096,-0.00000770,-0.
 00000698,-0.00000008,-0.00000535,-0.00000802,-0.00000229,0.00001665,-0
 .00001730,-0.00000968,0.00000262,0.00000314,-0.00000056,-0.00001753,-0
 .00000999,-0.00000225,-0.00001276,-0.00000102,0.00000366,0.00000327,0.
 00000980,-0.00001136,0.00001239,0.00000411,0.00000242,-0.00000223,-0.0
 0000513,0.00000781,-0.00000897,0.00003098,0.00000825,-0.00000372,-0.00
 002605,-0.00001187,0.,0.00000908,0.00000467,-0.00002454,-0.00002742,0.
 00001491,0.00001527,0.00000308,0.00003879,-0.00001609,-0.00001480,0.00
 000871,0.00002739,0.00001666,-0.00000871,-0.00003349,0.00002288,0.0000
 0473,-0.00000897,0.00000469,0.00000128,0.00001132,-0.00000974,-0.00002
 743\\\@


 IF NO USE IS MADE OF THE LABOR OF PAST AGES,
 THE WORLD MUST REMAIN ALWAYS IN THE INFANCY OF KNOWLEDGE.

                          -- CICERO
 Job cpu time:       0 days  0 hours 36 minutes 51.7 seconds.
 File lengths (MBytes):  RWF=    221 Int=      0 D2E=      0 Chk=      6 Scr=      1
 Normal termination of Gaussian 09 at Sun Jan 15 13:06:31 2017.
