 Entering Gaussian System, Link 0=g09
 Initial command:
 /global/software/gaussian/g09.e01/l1.exe "/scratch/10464874.yak.local/Gau-3714.inp" -scrdir="/scratch/10464874.yak.local/"
 Entering Link 1 = /global/software/gaussian/g09.e01/l1.exe PID=      3715.
  
 Copyright (c) 1988,1990,1992,1993,1995,1998,2003,2009,2015,
            Gaussian, Inc.  All Rights Reserved.
  
 This is part of the Gaussian(R) 09 program.  It is based on
 the Gaussian(R) 03 system (copyright 2003, Gaussian, Inc.),
 the Gaussian(R) 98 system (copyright 1998, Gaussian, Inc.),
 the Gaussian(R) 94 system (copyright 1995, Gaussian, Inc.),
 the Gaussian 92(TM) system (copyright 1992, Gaussian, Inc.),
 the Gaussian 90(TM) system (copyright 1990, Gaussian, Inc.),
 the Gaussian 88(TM) system (copyright 1988, Gaussian, Inc.),
 the Gaussian 86(TM) system (copyright 1986, Carnegie Mellon
 University), and the Gaussian 82(TM) system (copyright 1983,
 Carnegie Mellon University). Gaussian is a federally registered
 trademark of Gaussian, Inc.
  
 This software contains proprietary and confidential information,
 including trade secrets, belonging to Gaussian, Inc.
  
 This software is provided under written license and may be
 used, copied, transmitted, or stored only in accord with that
 written license.
  
 The following legend is applicable only to US Government
 contracts under FAR:
  
                    RESTRICTED RIGHTS LEGEND
  
 Use, reproduction and disclosure by the US Government is
 subject to restrictions as set forth in subparagraphs (a)
 and (c) of the Commercial Computer Software - Restricted
 Rights clause in FAR 52.227-19.
  
 Gaussian, Inc.
 340 Quinnipiac St., Bldg. 40, Wallingford CT 06492
  
  
 ---------------------------------------------------------------
 Warning -- This program may not be used in any manner that
 competes with the business of Gaussian, Inc. or will provide
 assistance to any competitor of Gaussian, Inc.  The licensee
 of this program is prohibited from giving any competitor of
 Gaussian, Inc. access to this program.  By using this program,
 the user acknowledges that Gaussian, Inc. is engaged in the
 business of creating and licensing software in the field of
 computational chemistry and represents and warrants to the
 licensee that it is not a competitor of Gaussian, Inc. and that
 it will not use this program in any manner prohibited above.
 ---------------------------------------------------------------
  

 Cite this work as:
 Gaussian 09, Revision E.01,
 M. J. Frisch, G. W. Trucks, H. B. Schlegel, G. E. Scuseria, 
 M. A. Robb, J. R. Cheeseman, G. Scalmani, V. Barone, B. Mennucci, 
 G. A. Petersson, H. Nakatsuji, M. Caricato, X. Li, H. P. Hratchian, 
 A. F. Izmaylov, J. Bloino, G. Zheng, J. L. Sonnenberg, M. Hada, 
 M. Ehara, K. Toyota, R. Fukuda, J. Hasegawa, M. Ishida, T. Nakajima, 
 Y. Honda, O. Kitao, H. Nakai, T. Vreven, J. A. Montgomery, Jr., 
 J. E. Peralta, F. Ogliaro, M. Bearpark, J. J. Heyd, E. Brothers, 
 K. N. Kudin, V. N. Staroverov, T. Keith, R. Kobayashi, J. Normand, 
 K. Raghavachari, A. Rendell, J. C. Burant, S. S. Iyengar, J. Tomasi, 
 M. Cossi, N. Rega, J. M. Millam, M. Klene, J. E. Knox, J. B. Cross, 
 V. Bakken, C. Adamo, J. Jaramillo, R. Gomperts, R. E. Stratmann, 
 O. Yazyev, A. J. Austin, R. Cammi, C. Pomelli, J. W. Ochterski, 
 R. L. Martin, K. Morokuma, V. G. Zakrzewski, G. A. Voth, 
 P. Salvador, J. J. Dannenberg, S. Dapprich, A. D. Daniels, 
 O. Farkas, J. B. Foresman, J. V. Ortiz, J. Cioslowski, 
 and D. J. Fox, Gaussian, Inc., Wallingford CT, 2013.
 
 ******************************************
 Gaussian 09:  ES64L-G09RevE.01 30-Nov-2015
                15-Jan-2017 
 ******************************************
 -------------------------
 # b3lyp/6-31g(d) opt freq
 -------------------------
 1/14=-1,18=20,19=15,26=3,38=1/1,3;
 2/9=110,12=2,17=6,18=5,40=1/2;
 3/5=1,6=6,7=1,11=2,16=1,25=1,30=1,71=1,74=-5/1,2,3;
 4//1;
 5/5=2,38=5/2;
 6/7=2,8=2,9=2,10=2,28=1/1;
 7//1,2,3,16;
 1/14=-1,18=20,19=15,26=3/3(2);
 2/9=110/2;
 99//99;
 2/9=110/2;
 3/5=1,6=6,7=1,11=2,16=1,25=1,30=1,71=1,74=-5/1,2,3;
 4/5=5,16=3,69=1/1;
 5/5=2,38=5/2;
 7//1,2,3,16;
 1/14=-1,18=20,19=15,26=3/3(-5);
 2/9=110/2;
 6/7=2,8=2,9=2,10=2,19=2,28=1/1;
 99/9=1/99;
 -----------------------------------
 glo_1w_alpha_ircr_boat2_B3LYP_631Gd
 -----------------------------------
 Symbolic Z-matrix:
 Charge =  0 Multiplicity = 1
 6                    -1.50708  -1.39381  -0.36009 
 8                    -1.14106   0.32392  -0.85431 
 1                    -4.04525   0.59795  -1.50996 
 8                    -3.56692   0.69706  -0.67232 
 1                    -2.10455   0.68825  -0.85438 
 6                     1.06228   0.36246  -0.08854 
 6                    -0.30671   1.03534   0.06426 
 1                     1.39969   0.54382  -1.11295 
 1                    -0.6801    0.9313    1.08905 
 8                     2.05324   1.01131   0.74402 
 1                     1.8569    0.77525   1.66764 
 6                    -0.30885   2.51048  -0.33835 
 8                     0.40228   3.30696   0.58461 
 1                    -1.34146   2.87728  -0.34444 
 1                     0.08286   2.60157  -1.36612 
 1                     1.28662   2.90826   0.66293 
 1                    -1.45208  -1.71955  -1.40815 
 8                    -2.60983  -1.37708   0.25968 
 1                    -3.50985  -0.22517  -0.26927 
 8                     4.01167  -0.57631  -0.62733 
 1                     4.4249   -0.06406  -1.33823 
 1                     3.60223   0.09082  -0.03998 
 6                     1.06153  -1.18174   0.1179 
 1                     1.71461  -1.38843   0.98183 
 6                    -0.30055  -1.75955   0.50384 
 1                    -0.21249  -2.85572   0.40972 
 8                    -0.57252  -1.38108   1.83956 
 1                    -1.55431  -1.36169   1.8724 
 8                     1.52569  -1.86016  -1.02985 
 1                     2.47197  -1.61245  -1.11188 
 
 Add virtual bond connecting atoms H5         and O4         Dist= 2.78D+00.
 Add virtual bond connecting atoms O18        and H19        Dist= 2.94D+00.
 Add virtual bond connecting atoms O10        and H22        Dist= 3.71D+00.
 Add virtual bond connecting atoms H30        and O20        Dist= 3.62D+00.

 GradGradGradGradGradGradGradGradGradGradGradGradGradGradGradGradGradGrad
 Berny optimization.
 Initialization pass.
                           ----------------------------
                           !    Initial Parameters    !
                           ! (Angstroms and Degrees)  !
 --------------------------                            --------------------------
 ! Name  Definition              Value          Derivative Info.                !
 --------------------------------------------------------------------------------
 ! R1    R(1,17)                 1.0989         estimate D2E/DX2                !
 ! R2    R(1,18)                 1.2651         estimate D2E/DX2                !
 ! R3    R(1,25)                 1.5283         estimate D2E/DX2                !
 ! R4    R(2,5)                  1.0301         estimate D2E/DX2                !
 ! R5    R(2,7)                  1.4304         estimate D2E/DX2                !
 ! R6    R(3,4)                  0.9697         estimate D2E/DX2                !
 ! R7    R(4,5)                  1.4737         estimate D2E/DX2                !
 ! R8    R(4,19)                 1.0081         estimate D2E/DX2                !
 ! R9    R(6,7)                  1.5331         estimate D2E/DX2                !
 ! R10   R(6,8)                  1.0937         estimate D2E/DX2                !
 ! R11   R(6,10)                 1.4478         estimate D2E/DX2                !
 ! R12   R(6,23)                 1.5579         estimate D2E/DX2                !
 ! R13   R(7,9)                  1.0957         estimate D2E/DX2                !
 ! R14   R(7,12)                 1.5291         estimate D2E/DX2                !
 ! R15   R(10,11)                0.9733         estimate D2E/DX2                !
 ! R16   R(10,22)                1.965          estimate D2E/DX2                !
 ! R17   R(12,13)                1.4114         estimate D2E/DX2                !
 ! R18   R(12,14)                1.0958         estimate D2E/DX2                !
 ! R19   R(12,15)                1.1036         estimate D2E/DX2                !
 ! R20   R(13,16)                0.9732         estimate D2E/DX2                !
 ! R21   R(18,19)                1.5546         estimate D2E/DX2                !
 ! R22   R(20,21)                0.9688         estimate D2E/DX2                !
 ! R23   R(20,22)                0.9786         estimate D2E/DX2                !
 ! R24   R(20,30)                1.9181         estimate D2E/DX2                !
 ! R25   R(23,24)                1.1025         estimate D2E/DX2                !
 ! R26   R(23,25)                1.5291         estimate D2E/DX2                !
 ! R27   R(23,29)                1.4118         estimate D2E/DX2                !
 ! R28   R(25,26)                1.1037         estimate D2E/DX2                !
 ! R29   R(25,27)                1.4147         estimate D2E/DX2                !
 ! R30   R(27,28)                0.9825         estimate D2E/DX2                !
 ! R31   R(29,30)                0.9816         estimate D2E/DX2                !
 ! A1    A(17,1,18)            120.983          estimate D2E/DX2                !
 ! A2    A(17,1,25)            115.3833         estimate D2E/DX2                !
 ! A3    A(18,1,25)            114.4798         estimate D2E/DX2                !
 ! A4    A(5,2,7)              111.6991         estimate D2E/DX2                !
 ! A5    A(3,4,5)              112.4685         estimate D2E/DX2                !
 ! A6    A(3,4,19)             106.2488         estimate D2E/DX2                !
 ! A7    A(5,4,19)              89.2982         estimate D2E/DX2                !
 ! A8    A(2,5,4)              158.479          estimate D2E/DX2                !
 ! A9    A(7,6,8)              107.2212         estimate D2E/DX2                !
 ! A10   A(7,6,10)             110.9275         estimate D2E/DX2                !
 ! A11   A(7,6,23)             114.9232         estimate D2E/DX2                !
 ! A12   A(8,6,10)             104.6642         estimate D2E/DX2                !
 ! A13   A(8,6,23)             106.7758         estimate D2E/DX2                !
 ! A14   A(10,6,23)            111.6132         estimate D2E/DX2                !
 ! A15   A(2,7,6)              103.8028         estimate D2E/DX2                !
 ! A16   A(2,7,9)              110.7707         estimate D2E/DX2                !
 ! A17   A(2,7,12)             108.0538         estimate D2E/DX2                !
 ! A18   A(6,7,9)              110.8469         estimate D2E/DX2                !
 ! A19   A(6,7,12)             113.4805         estimate D2E/DX2                !
 ! A20   A(9,7,12)             109.7182         estimate D2E/DX2                !
 ! A21   A(6,10,11)            107.3929         estimate D2E/DX2                !
 ! A22   A(6,10,22)             95.7491         estimate D2E/DX2                !
 ! A23   A(11,10,22)           115.0879         estimate D2E/DX2                !
 ! A24   A(7,12,13)            111.8101         estimate D2E/DX2                !
 ! A25   A(7,12,14)            109.0077         estimate D2E/DX2                !
 ! A26   A(7,12,15)            108.924          estimate D2E/DX2                !
 ! A27   A(13,12,14)           106.8298         estimate D2E/DX2                !
 ! A28   A(13,12,15)           112.556          estimate D2E/DX2                !
 ! A29   A(14,12,15)           107.5561         estimate D2E/DX2                !
 ! A30   A(12,13,16)           106.2174         estimate D2E/DX2                !
 ! A31   A(1,18,19)            110.3508         estimate D2E/DX2                !
 ! A32   A(4,19,18)            147.8537         estimate D2E/DX2                !
 ! A33   A(21,20,22)           104.977          estimate D2E/DX2                !
 ! A34   A(21,20,30)           116.2734         estimate D2E/DX2                !
 ! A35   A(22,20,30)           100.6043         estimate D2E/DX2                !
 ! A36   A(10,22,20)           152.6985         estimate D2E/DX2                !
 ! A37   A(6,23,24)            106.8194         estimate D2E/DX2                !
 ! A38   A(6,23,25)            114.106          estimate D2E/DX2                !
 ! A39   A(6,23,29)            111.6184         estimate D2E/DX2                !
 ! A40   A(24,23,25)           105.0132         estimate D2E/DX2                !
 ! A41   A(24,23,29)           110.6223         estimate D2E/DX2                !
 ! A42   A(25,23,29)           108.4505         estimate D2E/DX2                !
 ! A43   A(1,25,23)            118.0418         estimate D2E/DX2                !
 ! A44   A(1,25,26)            104.6229         estimate D2E/DX2                !
 ! A45   A(1,25,27)            108.5374         estimate D2E/DX2                !
 ! A46   A(23,25,26)           106.4211         estimate D2E/DX2                !
 ! A47   A(23,25,27)           107.9666         estimate D2E/DX2                !
 ! A48   A(26,25,27)           111.1957         estimate D2E/DX2                !
 ! A49   A(25,27,28)           103.2344         estimate D2E/DX2                !
 ! A50   A(23,29,30)           105.2853         estimate D2E/DX2                !
 ! A51   A(20,30,29)           152.7549         estimate D2E/DX2                !
 ! D1    D(17,1,18,19)         -71.5102         estimate D2E/DX2                !
 ! D2    D(25,1,18,19)         143.1248         estimate D2E/DX2                !
 ! D3    D(17,1,25,23)          61.9629         estimate D2E/DX2                !
 ! D4    D(17,1,25,26)         -56.0708         estimate D2E/DX2                !
 ! D5    D(17,1,25,27)        -174.8603         estimate D2E/DX2                !
 ! D6    D(18,1,25,23)        -150.6745         estimate D2E/DX2                !
 ! D7    D(18,1,25,26)          91.2918         estimate D2E/DX2                !
 ! D8    D(18,1,25,27)         -27.4977         estimate D2E/DX2                !
 ! D9    D(7,2,5,4)           -116.5904         estimate D2E/DX2                !
 ! D10   D(5,2,7,6)           -179.6086         estimate D2E/DX2                !
 ! D11   D(5,2,7,9)             61.372          estimate D2E/DX2                !
 ! D12   D(5,2,7,12)           -58.8375         estimate D2E/DX2                !
 ! D13   D(3,4,5,2)           -101.8798         estimate D2E/DX2                !
 ! D14   D(19,4,5,2)             5.4428         estimate D2E/DX2                !
 ! D15   D(3,4,19,18)          121.4955         estimate D2E/DX2                !
 ! D16   D(5,4,19,18)            8.2584         estimate D2E/DX2                !
 ! D17   D(8,6,7,2)             63.7881         estimate D2E/DX2                !
 ! D18   D(8,6,7,9)           -177.2447         estimate D2E/DX2                !
 ! D19   D(8,6,7,12)           -53.2549         estimate D2E/DX2                !
 ! D20   D(10,6,7,2)           177.5092         estimate D2E/DX2                !
 ! D21   D(10,6,7,9)           -63.5236         estimate D2E/DX2                !
 ! D22   D(10,6,7,12)           60.4663         estimate D2E/DX2                !
 ! D23   D(23,6,7,2)           -54.7168         estimate D2E/DX2                !
 ! D24   D(23,6,7,9)            64.2504         estimate D2E/DX2                !
 ! D25   D(23,6,7,12)         -171.7598         estimate D2E/DX2                !
 ! D26   D(7,6,10,11)           72.0272         estimate D2E/DX2                !
 ! D27   D(7,6,10,22)         -169.411          estimate D2E/DX2                !
 ! D28   D(8,6,10,11)         -172.6503         estimate D2E/DX2                !
 ! D29   D(8,6,10,22)          -54.0885         estimate D2E/DX2                !
 ! D30   D(23,6,10,11)         -57.5261         estimate D2E/DX2                !
 ! D31   D(23,6,10,22)          61.0357         estimate D2E/DX2                !
 ! D32   D(7,6,23,24)         -118.2741         estimate D2E/DX2                !
 ! D33   D(7,6,23,25)           -2.6967         estimate D2E/DX2                !
 ! D34   D(7,6,23,29)          120.6895         estimate D2E/DX2                !
 ! D35   D(8,6,23,24)          122.9716         estimate D2E/DX2                !
 ! D36   D(8,6,23,25)         -121.451          estimate D2E/DX2                !
 ! D37   D(8,6,23,29)            1.9352         estimate D2E/DX2                !
 ! D38   D(10,6,23,24)           9.1533         estimate D2E/DX2                !
 ! D39   D(10,6,23,25)         124.7307         estimate D2E/DX2                !
 ! D40   D(10,6,23,29)        -111.8831         estimate D2E/DX2                !
 ! D41   D(2,7,12,13)          175.0293         estimate D2E/DX2                !
 ! D42   D(2,7,12,14)           57.1451         estimate D2E/DX2                !
 ! D43   D(2,7,12,15)          -59.9434         estimate D2E/DX2                !
 ! D44   D(6,7,12,13)          -70.4395         estimate D2E/DX2                !
 ! D45   D(6,7,12,14)          171.6763         estimate D2E/DX2                !
 ! D46   D(6,7,12,15)           54.5878         estimate D2E/DX2                !
 ! D47   D(9,7,12,13)           54.162          estimate D2E/DX2                !
 ! D48   D(9,7,12,14)          -63.7223         estimate D2E/DX2                !
 ! D49   D(9,7,12,15)          179.1892         estimate D2E/DX2                !
 ! D50   D(6,10,22,20)          -6.6467         estimate D2E/DX2                !
 ! D51   D(11,10,22,20)        105.6167         estimate D2E/DX2                !
 ! D52   D(7,12,13,16)          54.2032         estimate D2E/DX2                !
 ! D53   D(14,12,13,16)        173.3829         estimate D2E/DX2                !
 ! D54   D(15,12,13,16)        -68.7852         estimate D2E/DX2                !
 ! D55   D(1,18,19,4)          -30.717          estimate D2E/DX2                !
 ! D56   D(21,20,22,10)        110.0188         estimate D2E/DX2                !
 ! D57   D(30,20,22,10)        -11.0634         estimate D2E/DX2                !
 ! D58   D(21,20,30,29)       -121.1614         estimate D2E/DX2                !
 ! D59   D(22,20,30,29)         -8.4782         estimate D2E/DX2                !
 ! D60   D(6,23,25,1)           51.2991         estimate D2E/DX2                !
 ! D61   D(6,23,25,26)         168.3755         estimate D2E/DX2                !
 ! D62   D(6,23,25,27)         -72.1641         estimate D2E/DX2                !
 ! D63   D(24,23,25,1)         167.9278         estimate D2E/DX2                !
 ! D64   D(24,23,25,26)        -74.9958         estimate D2E/DX2                !
 ! D65   D(24,23,25,27)         44.4646         estimate D2E/DX2                !
 ! D66   D(29,23,25,1)         -73.785          estimate D2E/DX2                !
 ! D67   D(29,23,25,26)         43.2914         estimate D2E/DX2                !
 ! D68   D(29,23,25,27)        162.7518         estimate D2E/DX2                !
 ! D69   D(6,23,29,30)          66.4153         estimate D2E/DX2                !
 ! D70   D(24,23,29,30)        -52.3808         estimate D2E/DX2                !
 ! D71   D(25,23,29,30)       -167.0468         estimate D2E/DX2                !
 ! D72   D(1,25,27,28)          23.3333         estimate D2E/DX2                !
 ! D73   D(23,25,27,28)        152.3832         estimate D2E/DX2                !
 ! D74   D(26,25,27,28)        -91.2254         estimate D2E/DX2                !
 ! D75   D(23,29,30,20)         -9.5954         estimate D2E/DX2                !
 --------------------------------------------------------------------------------
 Trust Radius=3.00D-01 FncErr=1.00D-07 GrdErr=1.00D-06
 Number of steps in this run=    167 maximum allowed number of steps=    180.
 GradGradGradGradGradGradGradGradGradGradGradGradGradGradGradGradGradGrad

                          Input orientation:                          
 ---------------------------------------------------------------------
 Center     Atomic      Atomic             Coordinates (Angstroms)
 Number     Number       Type             X           Y           Z
 ---------------------------------------------------------------------
      1          6           0       -1.507080   -1.393806   -0.360085
      2          8           0       -1.141063    0.323920   -0.854305
      3          1           0       -4.045252    0.597953   -1.509956
      4          8           0       -3.566920    0.697056   -0.672316
      5          1           0       -2.104554    0.688252   -0.854375
      6          6           0        1.062284    0.362461   -0.088540
      7          6           0       -0.306706    1.035339    0.064256
      8          1           0        1.399688    0.543818   -1.112947
      9          1           0       -0.680101    0.931302    1.089052
     10          8           0        2.053243    1.011312    0.744023
     11          1           0        1.856904    0.775249    1.667643
     12          6           0       -0.308850    2.510483   -0.338350
     13          8           0        0.402277    3.306959    0.584609
     14          1           0       -1.341461    2.877284   -0.344442
     15          1           0        0.082856    2.601566   -1.366120
     16          1           0        1.286622    2.908261    0.662926
     17          1           0       -1.452084   -1.719552   -1.408150
     18          8           0       -2.609829   -1.377075    0.259682
     19          1           0       -3.509852   -0.225167   -0.269268
     20          8           0        4.011668   -0.576306   -0.627332
     21          1           0        4.424899   -0.064062   -1.338233
     22          1           0        3.602231    0.090821   -0.039982
     23          6           0        1.061528   -1.181743    0.117904
     24          1           0        1.714614   -1.388431    0.981831
     25          6           0       -0.300553   -1.759552    0.503837
     26          1           0       -0.212486   -2.855716    0.409715
     27          8           0       -0.572523   -1.381080    1.839560
     28          1           0       -1.554307   -1.361688    1.872396
     29          8           0        1.525693   -1.860162   -1.029851
     30          1           0        2.471967   -1.612446   -1.111882
 ---------------------------------------------------------------------
                    Distance matrix (angstroms):
                    1          2          3          4          5
     1  C    0.000000
     2  O    1.824501   0.000000
     3  H    3.425146   2.989864   0.000000
     4  O    2.951632   2.461124   0.969672   0.000000
     5  H    2.221770   1.030074   2.050427   1.473682   0.000000
     6  C    3.124075   2.332942   5.306864   4.677850   3.274371
     7  C    2.742573   1.430393   4.079973   3.359460   2.048563
     8  H    3.573582   2.563331   5.459663   4.988470   3.516736
     9  H    2.861821   2.087591   4.264998   3.389840   2.421786
    10  O    4.436164   3.637410   6.514824   5.804395   4.466153
    11  H    4.486967   3.943568   6.705521   5.907570   4.696945
    12  C    4.084079   2.395798   4.357882   3.743671   2.609858
    13  O    5.160938   3.653887   5.613059   4.913856   3.900321
    14  H    4.274329   2.611472   3.723474   3.132661   2.373648
    15  H    4.416220   2.635831   4.590907   4.174852   2.950833
    16  H    5.230593   3.856743   6.203855   5.498106   4.327900
    17  H    1.098897   2.139920   3.479327   3.294537   2.555368
    18  O    1.265088   2.508311   3.015426   2.467116   2.400417
    19  H    2.320573   2.500985   1.582241   1.008067   1.775260
    20  O    5.585365   5.235701   8.189742   7.684951   6.249706
    21  H    6.157383   5.600415   8.497718   8.055552   6.590436
    22  H    5.330257   4.818329   7.803974   7.222471   5.795477
    23  C    2.621296   2.839651   5.647694   5.057357   3.803457
    24  H    3.489997   3.802425   6.582612   5.914394   4.719143
    25  C    1.528345   2.625236   4.861683   4.252930   3.330301
    26  H    2.098987   3.545432   5.504822   5.004519   4.211598
    27  O    2.389978   3.238390   5.214947   4.426577   3.726465
    28  H    2.233211   3.232173   4.635224   3.842473   3.455475
    29  O    3.140667   3.451466   6.108049   5.709808   4.438907
    30  H    4.055344   4.107292   6.893364   6.480368   5.128749
                    6          7          8          9         10
     6  C    0.000000
     7  C    1.533051   0.000000
     8  H    1.093683   2.130535   0.000000
     9  H    2.178579   1.095652   3.053599   0.000000
    10  O    1.447815   2.456017   2.023369   2.756196   0.000000
    11  H    1.971292   2.705495   2.827417   2.606821   0.973318
    12  C    2.560549   1.529100   2.717880   2.160814   2.999755
    13  O    3.091732   2.435915   3.392856   2.658900   2.832154
    14  H    3.488239   2.151863   3.680973   2.505823   4.023757
    15  H    2.757731   2.156572   2.456109   3.065902   3.296064
    16  H    2.663856   2.530798   2.959240   2.820984   2.047608
    17  H    3.521107   3.327055   3.652751   3.722768   4.937285
    18  O    4.078193   3.341004   4.652974   3.120947   5.261484
    19  H    4.613285   3.458361   5.040507   3.345137   5.788235
    20  O    3.141727   4.660906   2.883217   5.218386   2.869943
    21  H    3.612594   5.056060   3.093893   5.739642   3.334212
    22  H    2.554893   4.022781   2.491517   4.507715   1.965027
    23  C    1.557943   2.605839   2.146371   2.905402   2.486969
    24  H    2.153335   3.286691   2.867204   3.335763   2.435157
    25  C    2.590593   2.829255   3.287906   2.779789   3.643588
    26  H    3.497136   3.907496   4.058871   3.875780   4.494351
    27  O    3.070847   3.010223   4.038830   2.433505   3.717309
    28  H    3.696554   3.251402   4.611866   2.575979   4.463045
    29  O    2.457818   3.597038   2.408714   4.140960   3.416182
    30  H    2.633380   4.014360   2.408165   4.609804   3.240960
                   11         12         13         14         15
    11  H    0.000000
    12  C    3.424257   0.000000
    13  O    3.114235   1.411357   0.000000
    14  H    4.323954   1.095840   2.021974   0.000000
    15  H    3.960606   1.103649   2.098798   1.774408   0.000000
    16  H    2.425782   1.925178   0.973221   2.814706   2.379105
    17  H    5.160808   4.510505   5.716254   4.719599   4.585833
    18  O    5.154276   4.556891   5.578399   4.480323   5.071821
    19  H    5.792627   4.211290   5.339454   3.785865   4.701176
    20  O    3.425875   5.317768   5.438405   6.376778   5.106882
    21  H    4.041575   5.480550   5.589507   6.549049   5.095065
    22  H    2.535861   4.608725   4.579668   5.683059   4.522000
    23  C    2.619949   3.964674   4.560797   4.739601   4.180138
    24  H    2.274224   4.586809   4.891493   5.412478   4.908725
    25  C    3.526228   4.352304   5.115665   4.827351   4.760577
    26  H    4.364478   5.418946   6.195731   5.891572   5.746542
    27  O    3.252910   4.467335   4.950035   4.847143   5.154355
    28  H    4.030482   4.629500   5.223302   4.788377   5.373609
    29  O    3.785705   4.790225   5.528805   5.579763   4.701263
    30  H    3.715528   5.032876   5.600200   5.940444   4.850813
                   16         17         18         19         20
    16  H    0.000000
    17  H    5.762510   0.000000
    18  O    5.805949   2.058963   0.000000
    19  H    5.804612   2.786512   1.554581   0.000000
    20  O    4.607912   5.636424   6.728465   7.538221   0.000000
    21  H    4.763205   6.106101   7.332444   8.008053   0.968780
    22  H    3.714040   5.540346   6.390165   7.122791   0.978610
    23  C    4.132293   2.989369   3.679282   4.686412   3.102460
    24  H    4.329716   3.981159   4.384340   5.496679   2.919830
    25  C    4.932840   2.232335   2.353435   3.640279   4.612468
    26  H    5.961113   2.476309   2.820663   4.272403   4.910667
    27  O    4.820719   3.381688   2.578109   3.796208   5.267639
    28  H    5.269360   3.301590   1.927488   3.114893   6.151873
    29  O    5.065620   3.005002   4.358763   5.348683   2.826726
    30  H    4.999178   3.936677   5.268893   6.198121   1.918086
                   21         22         23         24         25
    21  H    0.000000
    22  H    1.544742   0.000000
    23  C    3.831685   2.845965   0.000000
    24  H    3.805561   2.606796   1.102548   0.000000
    25  C    5.347692   4.353314   1.529076   2.104069   0.000000
    26  H    5.688057   4.841113   2.123782   2.488766   1.103717
    27  O    6.066888   4.809131   2.382007   2.442693   1.414696
    28  H    6.909622   5.688309   3.154872   3.388166   1.898196
    29  O    3.424393   3.016320   1.411752   2.074870   2.386943
    30  H    2.502533   2.308156   1.920213   2.237722   3.212329
                   26         27         28         29         30
    26  H    0.000000
    27  O    2.085338   0.000000
    28  H    2.484359   0.982524   0.000000
    29  O    2.466727   3.586858   4.261210   0.000000
    30  H    3.326750   4.246582   5.017936   0.981594   0.000000
 Stoichiometry    C6H16O8
 Framework group  C1[X(C6H16O8)]
 Deg. of freedom    84
 Full point group                 C1      NOp   1
 Largest Abelian subgroup         C1      NOp   1
 Largest concise Abelian subgroup C1      NOp   1
                         Standard orientation:                         
 ---------------------------------------------------------------------
 Center     Atomic      Atomic             Coordinates (Angstroms)
 Number     Number       Type             X           Y           Z
 ---------------------------------------------------------------------
      1          6           0       -1.513837   -1.406755   -0.351271
      2          8           0       -1.150560    0.312856   -0.840938
      3          1           0       -4.055712    0.584880   -1.493148
      4          8           0       -3.576743    0.682239   -0.655668
      5          1           0       -2.114534    0.675902   -0.839090
      6          6           0        1.053437    0.352156   -0.077084
      7          6           0       -0.316306    1.022772    0.078878
      8          1           0        1.389657    0.536874   -1.101280
      9          1           0       -0.688620    0.915324    1.103715
     10          8           0        2.044297    0.999958    0.756413
     11          1           0        1.849121    0.761009    1.679537
     12          6           0       -0.320783    2.499050   -0.319529
     13          8           0        0.390132    3.293847    0.605040
     14          1           0       -1.353886    2.864490   -0.323632
     15          1           0        0.069857    2.593577   -1.347394
     16          1           0        1.275079    2.896107    0.681413
     17          1           0       -1.459371   -1.729446   -1.400308
     18          8           0       -2.616037   -1.393256    0.269551
     19          1           0       -3.518078   -0.241049   -0.255297
     20          8           0        4.003571   -0.581143   -0.621244
     21          1           0        4.415466   -0.066330   -1.331063
     22          1           0        3.593787    0.083765   -0.031624
     23          6           0        1.054925   -1.192628    0.124968
     24          1           0        1.709079   -1.400900    0.987705
     25          6           0       -0.306031   -1.773347    0.510503
     26          1           0       -0.216592   -2.869120    0.413183
     27          8           0       -0.577276   -1.399036    1.847545
     28          1           0       -1.559054   -1.381046    1.881335
     29          8           0        1.518937   -1.867162   -1.025137
     30          1           0        2.464805   -1.617953   -1.107329
 ---------------------------------------------------------------------
 Rotational constants (GHZ):      0.7520572      0.5111703      0.3652364
 Standard basis: 6-31G(d) (6D, 7F)
 There are   242 symmetry adapted cartesian basis functions of A   symmetry.
 There are   242 symmetry adapted basis functions of A   symmetry.
   242 basis functions,   456 primitive gaussians,   242 cartesian basis functions
    58 alpha electrons       58 beta electrons
       nuclear repulsion energy      1112.0492582122 Hartrees.
 NAtoms=   30 NActive=   30 NUniq=   30 SFac= 1.00D+00 NAtFMM=   60 NAOKFM=F Big=F
 Integral buffers will be    131072 words long.
 Raffenetti 2 integral format.
 Two-electron integral symmetry is turned on.
 One-electron integrals computed using PRISM.
 NBasis=   242 RedAO= T EigKep=  1.43D-03  NBF=   242
 NBsUse=   242 1.00D-06 EigRej= -1.00D+00 NBFU=   242
 ExpMin= 1.61D-01 ExpMax= 5.48D+03 ExpMxC= 8.25D+02 IAcc=1 IRadAn=         1 AccDes= 0.00D+00
 Harris functional with IExCor=  402 and IRadAn=       1 diagonalized for initial guess.
 HarFok:  IExCor=  402 AccDes= 0.00D+00 IRadAn=         1 IDoV= 1 UseB2=F ITyADJ=14
 ICtDFT=  3500011 ScaDFX=  1.000000  1.000000  1.000000  1.000000
 FoFCou: FMM=F IPFlag=           0 FMFlag=      100000 FMFlg1=           0
         NFxFlg=           0 DoJE=T BraDBF=F KetDBF=T FulRan=T
         wScrn=  0.000000 ICntrl=     500 IOpCl=  0 I1Cent=   200000004 NGrid=           0
         NMat0=    1 NMatS0=      1 NMatT0=    0 NMatD0=    1 NMtDS0=    0 NMtDT0=    0
 Petite list used in FoFCou.
 Requested convergence on RMS density matrix=1.00D-08 within 128 cycles.
 Requested convergence on MAX density matrix=1.00D-06.
 Requested convergence on             energy=1.00D-06.
 No special actions if energy rises.
 Integral accuracy reduced to 1.0D-05 until final iterations.
 Initial convergence to 1.0D-05 achieved.  Increase integral accuracy.
 SCF Done:  E(RB3LYP) =  -839.969133432     A.U. after   14 cycles
            NFock= 14  Conv=0.58D-08     -V/T= 2.0083

 **********************************************************************

            Population analysis using the SCF density.

 **********************************************************************

 Orbital symmetries:
       Occupied  (A) (A) (A) (A) (A) (A) (A) (A) (A) (A) (A) (A)
                 (A) (A) (A) (A) (A) (A) (A) (A) (A) (A) (A) (A)
                 (A) (A) (A) (A) (A) (A) (A) (A) (A) (A) (A) (A)
                 (A) (A) (A) (A) (A) (A) (A) (A) (A) (A) (A) (A)
                 (A) (A) (A) (A) (A) (A) (A) (A) (A) (A)
       Virtual   (A) (A) (A) (A) (A) (A) (A) (A) (A) (A) (A) (A)
                 (A) (A) (A) (A) (A) (A) (A) (A) (A) (A) (A) (A)
                 (A) (A) (A) (A) (A) (A) (A) (A) (A) (A) (A) (A)
                 (A) (A) (A) (A) (A) (A) (A) (A) (A) (A) (A) (A)
                 (A) (A) (A) (A) (A) (A) (A) (A) (A) (A) (A) (A)
                 (A) (A) (A) (A) (A) (A) (A) (A) (A) (A) (A) (A)
                 (A) (A) (A) (A) (A) (A) (A) (A) (A) (A) (A) (A)
                 (A) (A) (A) (A) (A) (A) (A) (A) (A) (A) (A) (A)
                 (A) (A) (A) (A) (A) (A) (A) (A) (A) (A) (A) (A)
                 (A) (A) (A) (A) (A) (A) (A) (A) (A) (A) (A) (A)
                 (A) (A) (A) (A) (A) (A) (A) (A) (A) (A) (A) (A)
                 (A) (A) (A) (A) (A) (A) (A) (A) (A) (A) (A) (A)
                 (A) (A) (A) (A) (A) (A) (A) (A) (A) (A) (A) (A)
                 (A) (A) (A) (A) (A) (A) (A) (A) (A) (A) (A) (A)
                 (A) (A) (A) (A) (A) (A) (A) (A) (A) (A) (A) (A)
                 (A) (A) (A) (A)
 The electronic state is 1-A.
 Alpha  occ. eigenvalues --  -19.19828 -19.18926 -19.16552 -19.16324 -19.14215
 Alpha  occ. eigenvalues --  -19.14192 -19.13546 -19.12424 -10.28834 -10.25750
 Alpha  occ. eigenvalues --  -10.25253 -10.24569 -10.23883 -10.23796  -1.07907
 Alpha  occ. eigenvalues --   -1.06243  -1.03504  -1.02366  -1.02244  -1.01673
 Alpha  occ. eigenvalues --   -1.01140  -0.99631  -0.78740  -0.75433  -0.69501
 Alpha  occ. eigenvalues --   -0.65132  -0.62989  -0.57792  -0.56351  -0.54691
 Alpha  occ. eigenvalues --   -0.54396  -0.53649  -0.52292  -0.50851  -0.49777
 Alpha  occ. eigenvalues --   -0.48228  -0.47319  -0.44758  -0.44355  -0.42653
 Alpha  occ. eigenvalues --   -0.42192  -0.41556  -0.40323  -0.39651  -0.38747
 Alpha  occ. eigenvalues --   -0.37891  -0.36083  -0.35824  -0.35009  -0.33915
 Alpha  occ. eigenvalues --   -0.32409  -0.31273  -0.30628  -0.29081  -0.27840
 Alpha  occ. eigenvalues --   -0.26491  -0.25986  -0.24994
 Alpha virt. eigenvalues --    0.02262   0.03740   0.06079   0.06243   0.09263
 Alpha virt. eigenvalues --    0.09516   0.11108   0.12152   0.13388   0.14285
 Alpha virt. eigenvalues --    0.15542   0.16661   0.17506   0.18350   0.18721
 Alpha virt. eigenvalues --    0.19528   0.20540   0.21354   0.21883   0.23821
 Alpha virt. eigenvalues --    0.24233   0.25382   0.26774   0.28241   0.29397
 Alpha virt. eigenvalues --    0.30472   0.33255   0.35762   0.51893   0.53267
 Alpha virt. eigenvalues --    0.53769   0.54784   0.56694   0.57471   0.59833
 Alpha virt. eigenvalues --    0.61278   0.62449   0.63281   0.64589   0.67013
 Alpha virt. eigenvalues --    0.68872   0.70964   0.71906   0.72097   0.74630
 Alpha virt. eigenvalues --    0.75600   0.77022   0.78269   0.78750   0.79197
 Alpha virt. eigenvalues --    0.81569   0.82356   0.83967   0.84701   0.85730
 Alpha virt. eigenvalues --    0.85854   0.86644   0.87536   0.88191   0.88788
 Alpha virt. eigenvalues --    0.90654   0.91913   0.92652   0.93104   0.94426
 Alpha virt. eigenvalues --    0.96907   0.97477   0.98363   1.01032   1.02096
 Alpha virt. eigenvalues --    1.03012   1.04398   1.06168   1.08373   1.09441
 Alpha virt. eigenvalues --    1.10913   1.12407   1.13220   1.14331   1.15156
 Alpha virt. eigenvalues --    1.16297   1.18673   1.19189   1.22733   1.22896
 Alpha virt. eigenvalues --    1.26907   1.29540   1.30800   1.33579   1.35967
 Alpha virt. eigenvalues --    1.39699   1.42045   1.43557   1.44454   1.47727
 Alpha virt. eigenvalues --    1.48353   1.52783   1.56548   1.58393   1.58894
 Alpha virt. eigenvalues --    1.61745   1.62282   1.63470   1.66177   1.68183
 Alpha virt. eigenvalues --    1.69521   1.70344   1.70925   1.72011   1.74411
 Alpha virt. eigenvalues --    1.74576   1.75735   1.77833   1.78091   1.79793
 Alpha virt. eigenvalues --    1.80144   1.82524   1.84024   1.85354   1.86431
 Alpha virt. eigenvalues --    1.88718   1.89203   1.91315   1.92175   1.93640
 Alpha virt. eigenvalues --    1.94929   1.98811   1.99209   2.04813   2.05482
 Alpha virt. eigenvalues --    2.08122   2.09078   2.10119   2.11426   2.14495
 Alpha virt. eigenvalues --    2.18022   2.21682   2.23616   2.25000   2.28324
 Alpha virt. eigenvalues --    2.30796   2.31759   2.35272   2.37404   2.38313
 Alpha virt. eigenvalues --    2.39709   2.42946   2.47291   2.49277   2.50321
 Alpha virt. eigenvalues --    2.52149   2.52694   2.54847   2.56631   2.57847
 Alpha virt. eigenvalues --    2.59378   2.60623   2.62450   2.66671   2.68305
 Alpha virt. eigenvalues --    2.72065   2.74553   2.83335   2.86954   2.89587
 Alpha virt. eigenvalues --    2.90730   2.94013   2.97916   3.00541   3.04578
 Alpha virt. eigenvalues --    3.69112   3.73519   3.77788   3.81778   3.90454
 Alpha virt. eigenvalues --    3.95910   4.08988   4.13620   4.28052   4.34311
 Alpha virt. eigenvalues --    4.37967   4.51023   4.61620   4.78581
          Condensed to atoms (all electrons):
               1          2          3          4          5          6
     1  C    4.767226   0.037207   0.000644   0.009331  -0.007998  -0.016805
     2  O    0.037207   8.571187   0.002929  -0.069276   0.150635  -0.044695
     3  H    0.000644   0.002929   0.366935   0.234804  -0.004765   0.000002
     4  O    0.009331  -0.069276   0.234804   8.398717   0.113173  -0.000079
     5  H   -0.007998   0.150635  -0.004765   0.113173   0.297620   0.002493
     6  C   -0.016805  -0.044695   0.000002  -0.000079   0.002493   5.129768
     7  C   -0.005931   0.135130  -0.000108   0.002747  -0.014474   0.303984
     8  H    0.001217   0.003947  -0.000000   0.000000  -0.000021   0.345180
     9  H    0.000877  -0.033658  -0.000015   0.000277   0.001178  -0.053473
    10  O    0.000099   0.001420  -0.000000   0.000000  -0.000020   0.164913
    11  H    0.000100  -0.000035   0.000000  -0.000000   0.000002  -0.026052
    12  C    0.000561  -0.028550   0.000070  -0.001123  -0.003317  -0.027169
    13  O   -0.000010   0.001581   0.000000   0.000001   0.000084  -0.000961
    14  H   -0.000088  -0.000187  -0.000067   0.001657   0.005076   0.005228
    15  H   -0.000049   0.005652  -0.000002   0.000018   0.000239  -0.014642
    16  H   -0.000003   0.000032   0.000000  -0.000000   0.000023   0.000500
    17  H    0.356076  -0.036208   0.000067   0.000520   0.001204   0.000774
    18  O    0.385621  -0.045716   0.002595  -0.059983   0.007641   0.000394
    19  H   -0.012031   0.006147  -0.007161   0.181332  -0.015789   0.000010
    20  O   -0.000000   0.000000  -0.000000  -0.000000   0.000000   0.006396
    21  H    0.000000  -0.000000   0.000000  -0.000000   0.000000   0.000119
    22  H   -0.000003  -0.000010   0.000000  -0.000000   0.000000  -0.006966
    23  C   -0.028039   0.003744  -0.000002   0.000024  -0.000053   0.293261
    24  H    0.006319   0.000097   0.000000  -0.000000   0.000006  -0.075654
    25  C    0.277551  -0.013534   0.000028  -0.000193   0.001662  -0.031910
    26  H   -0.044018   0.001775   0.000000   0.000001  -0.000103   0.006257
    27  O   -0.025250  -0.000821   0.000000  -0.000008  -0.000236   0.003825
    28  H   -0.013742   0.000192  -0.000004   0.000203  -0.000019  -0.000187
    29  O    0.003967  -0.000304   0.000000  -0.000000   0.000016  -0.050037
    30  H   -0.000155  -0.000013  -0.000000   0.000000   0.000001   0.000756
               7          8          9         10         11         12
     1  C   -0.005931   0.001217   0.000877   0.000099   0.000100   0.000561
     2  O    0.135130   0.003947  -0.033658   0.001420  -0.000035  -0.028550
     3  H   -0.000108  -0.000000  -0.000015  -0.000000   0.000000   0.000070
     4  O    0.002747   0.000000   0.000277   0.000000  -0.000000  -0.001123
     5  H   -0.014474  -0.000021   0.001178  -0.000020   0.000002  -0.003317
     6  C    0.303984   0.345180  -0.053473   0.164913  -0.026052  -0.027169
     7  C    5.044379  -0.034289   0.351951  -0.028522  -0.001973   0.326905
     8  H   -0.034289   0.582828   0.006028  -0.037738   0.006864  -0.010386
     9  H    0.351951   0.006028   0.589687   0.000982   0.004559  -0.045943
    10  O   -0.028522  -0.037738   0.000982   8.287028   0.232364  -0.000000
    11  H   -0.001973   0.006864   0.004559   0.232364   0.365419  -0.000935
    12  C    0.326905  -0.010386  -0.045943  -0.000000  -0.000935   4.879313
    13  O   -0.038392   0.000084   0.006395  -0.011748   0.001785   0.265261
    14  H   -0.035107  -0.000007  -0.006272  -0.000091   0.000008   0.373717
    15  H   -0.047968   0.007757   0.006946   0.000455   0.000124   0.344265
    16  H   -0.008967  -0.000534  -0.000722   0.037584  -0.001921  -0.031988
    17  H    0.002766   0.000122   0.000341   0.000000  -0.000000  -0.000084
    18  O    0.000713  -0.000001   0.002339   0.000000  -0.000001  -0.000062
    19  H   -0.000268   0.000001  -0.000062  -0.000000   0.000000   0.000024
    20  O    0.000188   0.004226  -0.000000  -0.014709   0.000528  -0.000003
    21  H    0.000003   0.000583   0.000000   0.000369   0.000004  -0.000000
    22  H    0.000589  -0.002795  -0.000023   0.048001  -0.002158  -0.000011
    23  C   -0.039215  -0.045572  -0.007519  -0.025971  -0.005497   0.003462
    24  H    0.003965   0.005230   0.000173   0.001275   0.006821  -0.000181
    25  C   -0.000997   0.000787  -0.005510   0.001855  -0.000286   0.000237
    26  H    0.000190  -0.000257   0.000293  -0.000086  -0.000005   0.000014
    27  O   -0.005240   0.000039   0.018382  -0.000426   0.001630   0.000398
    28  H    0.000705   0.000010  -0.000073   0.000015  -0.000038  -0.000031
    29  O    0.003276   0.005418   0.000009   0.001563  -0.000024  -0.000052
    30  H    0.000100   0.001763  -0.000002   0.000097  -0.000034  -0.000002
              13         14         15         16         17         18
     1  C   -0.000010  -0.000088  -0.000049  -0.000003   0.356076   0.385621
     2  O    0.001581  -0.000187   0.005652   0.000032  -0.036208  -0.045716
     3  H    0.000000  -0.000067  -0.000002   0.000000   0.000067   0.002595
     4  O    0.000001   0.001657   0.000018  -0.000000   0.000520  -0.059983
     5  H    0.000084   0.005076   0.000239   0.000023   0.001204   0.007641
     6  C   -0.000961   0.005228  -0.014642   0.000500   0.000774   0.000394
     7  C   -0.038392  -0.035107  -0.047968  -0.008967   0.002766   0.000713
     8  H    0.000084  -0.000007   0.007757  -0.000534   0.000122  -0.000001
     9  H    0.006395  -0.006272   0.006946  -0.000722   0.000341   0.002339
    10  O   -0.011748  -0.000091   0.000455   0.037584   0.000000   0.000000
    11  H    0.001785   0.000008   0.000124  -0.001921  -0.000000  -0.000001
    12  C    0.265261   0.373717   0.344265  -0.031988  -0.000084  -0.000062
    13  O    8.247767  -0.035272  -0.035211   0.230631   0.000001   0.000000
    14  H   -0.035272   0.572016  -0.046582   0.006111  -0.000002   0.000014
    15  H   -0.035211  -0.046582   0.661065  -0.004214   0.000009   0.000002
    16  H    0.230631   0.006111  -0.004214   0.366713  -0.000000   0.000000
    17  H    0.000001  -0.000002   0.000009  -0.000000   0.649491  -0.051267
    18  O    0.000000   0.000014   0.000002   0.000000  -0.051267   8.296333
    19  H    0.000000   0.000001   0.000000   0.000000  -0.001675   0.084134
    20  O   -0.000000  -0.000000  -0.000001   0.000005   0.000000   0.000000
    21  H    0.000000   0.000000   0.000000  -0.000003  -0.000000  -0.000000
    22  H    0.000012   0.000001  -0.000006   0.000032  -0.000000  -0.000000
    23  C    0.000007  -0.000140  -0.000021   0.000300  -0.001281   0.002491
    24  H    0.000001   0.000005  -0.000004  -0.000001  -0.000167  -0.000093
    25  C    0.000008   0.000021   0.000004  -0.000020  -0.076012  -0.062094
    26  H   -0.000000  -0.000000  -0.000001   0.000000   0.003197  -0.001664
    27  O   -0.000002   0.000001  -0.000007  -0.000001   0.002797  -0.024883
    28  H   -0.000000  -0.000001  -0.000000  -0.000000   0.002620   0.059465
    29  O    0.000000   0.000001  -0.000016  -0.000004   0.003601   0.000014
    30  H    0.000000  -0.000000   0.000000  -0.000001  -0.000034   0.000001
              19         20         21         22         23         24
     1  C   -0.012031  -0.000000   0.000000  -0.000003  -0.028039   0.006319
     2  O    0.006147   0.000000  -0.000000  -0.000010   0.003744   0.000097
     3  H   -0.007161  -0.000000   0.000000   0.000000  -0.000002   0.000000
     4  O    0.181332  -0.000000  -0.000000  -0.000000   0.000024  -0.000000
     5  H   -0.015789   0.000000   0.000000   0.000000  -0.000053   0.000006
     6  C    0.000010   0.006396   0.000119  -0.006966   0.293261  -0.075654
     7  C   -0.000268   0.000188   0.000003   0.000589  -0.039215   0.003965
     8  H    0.000001   0.004226   0.000583  -0.002795  -0.045572   0.005230
     9  H   -0.000062  -0.000000   0.000000  -0.000023  -0.007519   0.000173
    10  O   -0.000000  -0.014709   0.000369   0.048001  -0.025971   0.001275
    11  H    0.000000   0.000528   0.000004  -0.002158  -0.005497   0.006821
    12  C    0.000024  -0.000003  -0.000000  -0.000011   0.003462  -0.000181
    13  O    0.000000  -0.000000   0.000000   0.000012   0.000007   0.000001
    14  H    0.000001  -0.000000   0.000000   0.000001  -0.000140   0.000005
    15  H    0.000000  -0.000001   0.000000  -0.000006  -0.000021  -0.000004
    16  H    0.000000   0.000005  -0.000003   0.000032   0.000300  -0.000001
    17  H   -0.001675   0.000000  -0.000000  -0.000000  -0.001281  -0.000167
    18  O    0.084134   0.000000  -0.000000  -0.000000   0.002491  -0.000093
    19  H    0.315445  -0.000000   0.000000   0.000000  -0.000077   0.000002
    20  O   -0.000000   8.310821   0.242596   0.217675   0.000477   0.001025
    21  H    0.000000   0.242596   0.374169  -0.015893  -0.000211  -0.000041
    22  H    0.000000   0.217675  -0.015893   0.337656   0.000220   0.000551
    23  C   -0.000077   0.000477  -0.000211   0.000220   4.947695   0.358174
    24  H    0.000002   0.001025  -0.000041   0.000551   0.358174   0.646270
    25  C    0.002376   0.000053  -0.000004   0.000025   0.307822  -0.043516
    26  H   -0.000056   0.000002  -0.000000  -0.000003  -0.049222  -0.007722
    27  O    0.000073   0.000000  -0.000000  -0.000004  -0.048165   0.003489
    28  H   -0.000729  -0.000000   0.000000   0.000000   0.007471  -0.000393
    29  O    0.000000  -0.017907   0.000910   0.002151   0.228174  -0.032760
    30  H   -0.000000   0.054411  -0.002262  -0.005358  -0.025066  -0.005223
              25         26         27         28         29         30
     1  C    0.277551  -0.044018  -0.025250  -0.013742   0.003967  -0.000155
     2  O   -0.013534   0.001775  -0.000821   0.000192  -0.000304  -0.000013
     3  H    0.000028   0.000000   0.000000  -0.000004   0.000000  -0.000000
     4  O   -0.000193   0.000001  -0.000008   0.000203  -0.000000   0.000000
     5  H    0.001662  -0.000103  -0.000236  -0.000019   0.000016   0.000001
     6  C   -0.031910   0.006257   0.003825  -0.000187  -0.050037   0.000756
     7  C   -0.000997   0.000190  -0.005240   0.000705   0.003276   0.000100
     8  H    0.000787  -0.000257   0.000039   0.000010   0.005418   0.001763
     9  H   -0.005510   0.000293   0.018382  -0.000073   0.000009  -0.000002
    10  O    0.001855  -0.000086  -0.000426   0.000015   0.001563   0.000097
    11  H   -0.000286  -0.000005   0.001630  -0.000038  -0.000024  -0.000034
    12  C    0.000237   0.000014   0.000398  -0.000031  -0.000052  -0.000002
    13  O    0.000008  -0.000000  -0.000002  -0.000000   0.000000   0.000000
    14  H    0.000021  -0.000000   0.000001  -0.000001   0.000001  -0.000000
    15  H    0.000004  -0.000001  -0.000007  -0.000000  -0.000016   0.000000
    16  H   -0.000020   0.000000  -0.000001  -0.000000  -0.000004  -0.000001
    17  H   -0.076012   0.003197   0.002797   0.002620   0.003601  -0.000034
    18  O   -0.062094  -0.001664  -0.024883   0.059465   0.000014   0.000001
    19  H    0.002376  -0.000056   0.000073  -0.000729   0.000000  -0.000000
    20  O    0.000053   0.000002   0.000000  -0.000000  -0.017907   0.054411
    21  H   -0.000004  -0.000000  -0.000000   0.000000   0.000910  -0.002262
    22  H    0.000025  -0.000003  -0.000004   0.000000   0.002151  -0.005358
    23  C    0.307822  -0.049222  -0.048165   0.007471   0.228174  -0.025066
    24  H   -0.043516  -0.007722   0.003489  -0.000393  -0.032760  -0.005223
    25  C    5.078991   0.350072   0.223906  -0.052112  -0.046200   0.005383
    26  H    0.350072   0.609146  -0.033350   0.001392   0.007513  -0.000135
    27  O    0.223906  -0.033350   8.325826   0.221358   0.001259  -0.000105
    28  H   -0.052112   0.001392   0.221358   0.359930  -0.000110   0.000008
    29  O   -0.046200   0.007513   0.001259  -0.000110   8.336542   0.221021
    30  H    0.005383  -0.000135  -0.000105   0.000008   0.221021   0.325070
 Mulliken charges:
               1
     1  C    0.307326
     2  O   -0.648669
     3  H    0.404050
     4  O   -0.812144
     5  H    0.465741
     6  C    0.084771
     7  C    0.083861
     8  H    0.159516
     9  H    0.162856
    10  O   -0.658707
    11  H    0.418753
    12  C   -0.044390
    13  O   -0.632023
    14  H    0.159961
    15  H    0.122188
    16  H    0.406448
    17  H    0.143144
    18  O   -0.595992
    19  H    0.448302
    20  O   -0.805780
    21  H    0.399662
    22  H    0.426319
    23  C    0.122731
    24  H    0.132355
    25  C    0.081606
    26  H    0.156769
    27  O   -0.664485
    28  H    0.414072
    29  O   -0.668020
    30  H    0.429780
 Sum of Mulliken charges =  -0.00000
 Mulliken charges with hydrogens summed into heavy atoms:
               1
     1  C    0.450470
     2  O   -0.182928
     4  O    0.040208
     6  C    0.244287
     7  C    0.246717
    10  O   -0.239953
    12  C    0.237758
    13  O   -0.225575
    18  O   -0.595992
    20  O    0.020200
    23  C    0.255086
    25  C    0.238375
    27  O   -0.250414
    29  O   -0.238241
 Electronic spatial extent (au):  <R**2>=           3176.2827
 Charge=              0.0000 electrons
 Dipole moment (field-independent basis, Debye):
    X=              0.9645    Y=              1.1340    Z=             -2.2958  Tot=              2.7362
 Quadrupole moment (field-independent basis, Debye-Ang):
   XX=            -74.5681   YY=            -98.0250   ZZ=            -79.5461
   XY=              5.9083   XZ=              5.3736   YZ=             -3.0902
 Traceless Quadrupole moment (field-independent basis, Debye-Ang):
   XX=              9.4783   YY=            -13.9786   ZZ=              4.5003
   XY=              5.9083   XZ=              5.3736   YZ=             -3.0902
 Octapole moment (field-independent basis, Debye-Ang**2):
  XXX=              5.8459  YYY=            -34.1768  ZZZ=             -6.8529  XYY=             -1.3435
  XXY=             29.0063  XXZ=            -45.9514  XZZ=              1.3985  YZZ=              9.9625
  YYZ=            -10.0671  XYZ=             -1.5663
 Hexadecapole moment (field-independent basis, Debye-Ang**3):
 XXXX=          -1767.9415 YYYY=          -1510.5793 ZZZZ=           -373.8302 XXXY=             93.6920
 XXXZ=             17.5480 YYYX=              3.6537 YYYZ=            -41.1954 ZZZX=             11.4798
 ZZZY=             15.9015 XXYY=           -578.0112 XXZZ=           -257.4216 YYZZ=           -301.1319
 XXYZ=            -13.7707 YYXZ=             14.5499 ZZXY=              7.8203
 N-N= 1.112049258212D+03 E-N=-4.196256309103D+03  KE= 8.330212147670D+02
 Calling FoFJK, ICntrl=      2127 FMM=F ISym2X=0 I1Cent= 0 IOpClX= 0 NMat=1 NMatS=1 NMatT=0.
 ***** Axes restored to original set *****
 -------------------------------------------------------------------
 Center     Atomic                   Forces (Hartrees/Bohr)
 Number     Number              X              Y              Z
 -------------------------------------------------------------------
      1        6          -0.002856842   -0.016433317    0.003556327
      2        8           0.007884519    0.008575484   -0.007065959
      3        1          -0.000863773    0.000590635   -0.000111419
      4        8          -0.012901845    0.008727951   -0.002854280
      5        1           0.001384630    0.000094402   -0.000212240
      6        6           0.000228627    0.000933113    0.000095072
      7        6           0.001392175    0.002357599   -0.000701392
      8        1           0.000033175    0.000053369    0.000008362
      9        1          -0.000043892    0.000040225   -0.000120555
     10        8           0.000590937   -0.000021516    0.000214582
     11        1          -0.000003636    0.000034219    0.000011504
     12        6           0.001602071    0.002027051    0.001037706
     13        8           0.001232407    0.002575046    0.001212012
     14        1           0.000100556    0.000094056    0.000076547
     15        1           0.000096314    0.000172759    0.000067604
     16        1           0.000061714    0.000146304    0.000088570
     17        1          -0.000263567   -0.000460511    0.000094905
     18        8           0.001150232   -0.007991023    0.002696926
     19        1          -0.001203791    0.000749298   -0.000269742
     20        8           0.000017443    0.000003545    0.000002295
     21        1          -0.000002104   -0.000009376   -0.000007393
     22        1          -0.000012799    0.000010222   -0.000013447
     23        6          -0.000342955    0.000693482   -0.000491535
     24        1          -0.000012347    0.000078769   -0.000042144
     25        6           0.001344421   -0.002990817    0.001707091
     26        1           0.000676658   -0.000238559    0.000456646
     27        8           0.000695426   -0.000147823    0.000565028
     28        1           0.000068202    0.000045041    0.000118926
     29        8          -0.000043855    0.000255773   -0.000115231
     30        1          -0.000008100    0.000034600   -0.000004765
 -------------------------------------------------------------------
 Cartesian Forces:  Max     0.016433317 RMS     0.003069855

 GradGradGradGradGradGradGradGradGradGradGradGradGradGradGradGradGradGrad
 Berny optimization.
 FormGI is forming the generalized inverse of G from B-inverse, IUseBI=4.
 Internal  Forces:  Max     0.016327902 RMS     0.004058945
 Search for a local minimum.
 Step number   1 out of a maximum of  167
 All quantities printed in internal units (Hartrees-Bohrs-Radians)
 Mixed Optimization -- RFO/linear search
 Second derivative matrix not updated -- first step.
 ITU=  0
     Eigenvalues ---    0.00339   0.00381   0.00447   0.00485   0.00587
     Eigenvalues ---    0.00592   0.00742   0.00780   0.01428   0.01497
     Eigenvalues ---    0.01542   0.01635   0.02372   0.02715   0.03366
     Eigenvalues ---    0.03842   0.04151   0.04430   0.04611   0.04766
     Eigenvalues ---    0.04910   0.04997   0.05104   0.05291   0.05808
     Eigenvalues ---    0.05982   0.06115   0.06316   0.06706   0.07206
     Eigenvalues ---    0.07898   0.08311   0.08701   0.08897   0.09444
     Eigenvalues ---    0.10127   0.11104   0.11533   0.11728   0.12597
     Eigenvalues ---    0.13935   0.14592   0.15197   0.15941   0.16000
     Eigenvalues ---    0.16000   0.16131   0.17124   0.18026   0.18531
     Eigenvalues ---    0.18945   0.20281   0.20429   0.21055   0.21970
     Eigenvalues ---    0.22040   0.22765   0.25880   0.28328   0.29220
     Eigenvalues ---    0.29378   0.29507   0.33274   0.33282   0.33402
     Eigenvalues ---    0.33804   0.34146   0.34168   0.34391   0.37452
     Eigenvalues ---    0.39922   0.41924   0.42669   0.43269   0.43789
     Eigenvalues ---    0.45754   0.49807   0.50562   0.50898   0.52705
     Eigenvalues ---    0.52724   0.53444   0.53627   0.76071
 RFO step:  Lambda=-2.12625015D-02 EMin= 3.39189328D-03
 Linear search not attempted -- first point.
 Iteration  1 RMS(Cart)=  0.12071819 RMS(Int)=  0.00422306
 Iteration  2 RMS(Cart)=  0.01157210 RMS(Int)=  0.00069705
 Iteration  3 RMS(Cart)=  0.00009144 RMS(Int)=  0.00069568
 Iteration  4 RMS(Cart)=  0.00000007 RMS(Int)=  0.00069568
 Variable       Old X    -DE/DX   Delta X   Delta X   Delta X     New X
                                 (Linear)    (Quad)   (Total)
    R1        2.07661   0.00003   0.00000   0.00009   0.00009   2.07671
    R2        2.39067   0.00057   0.00000   0.00079   0.00041   2.39108
    R3        2.88815   0.00179   0.00000   0.00839   0.00843   2.89658
    R4        1.94656   0.00744   0.00000   0.01532   0.01558   1.96213
    R5        2.70305   0.00310   0.00000   0.00577   0.00551   2.70856
    R6        1.83241   0.00047   0.00000   0.00084   0.00084   1.83325
    R7        2.78485   0.01175   0.00000   0.08020   0.08041   2.86526
    R8        1.90497   0.01633   0.00000   0.03495   0.03489   1.93986
    R9        2.89705   0.00219   0.00000   0.00544   0.00576   2.90281
   R10        2.06676   0.00001   0.00000   0.00003   0.00003   2.06679
   R11        2.73597   0.00064   0.00000   0.00212   0.00220   2.73817
   R12        2.94409   0.01249   0.00000   0.03995   0.04012   2.98420
   R13        2.07048  -0.00010   0.00000  -0.00028  -0.00028   2.07020
   R14        2.88958   0.00418   0.00000   0.01322   0.01322   2.90280
   R15        1.83931   0.00001   0.00000   0.00001   0.00001   1.83932
   R16        3.71336  -0.00044   0.00000  -0.00511  -0.00510   3.70826
   R17        2.66708   0.00304   0.00000   0.00661   0.00661   2.67369
   R18        2.07084  -0.00007   0.00000  -0.00018  -0.00018   2.07066
   R19        2.08559  -0.00001   0.00000  -0.00003  -0.00003   2.08556
   R20        1.83912   0.00000   0.00000   0.00001   0.00001   1.83913
   R21        2.93773   0.01583   0.00000   0.13642   0.13629   3.07402
   R22        1.83073  -0.00001   0.00000  -0.00001  -0.00001   1.83072
   R23        1.84930  -0.00051   0.00000  -0.00090  -0.00093   1.84838
   R24        3.62466  -0.00033   0.00000  -0.00521  -0.00527   3.61938
   R25        2.08351  -0.00005   0.00000  -0.00015  -0.00015   2.08336
   R26        2.88953   0.00777   0.00000   0.02496   0.02479   2.91432
   R27        2.66782   0.00012   0.00000   0.00066   0.00070   2.66852
   R28        2.08572   0.00025   0.00000   0.00071   0.00071   2.08643
   R29        2.67339   0.00047   0.00000   0.00104   0.00104   2.67443
   R30        1.85670  -0.00006   0.00000  -0.00011  -0.00011   1.85659
   R31        1.85494  -0.00016   0.00000  -0.00029  -0.00034   1.85461
    A1        2.11155  -0.00481   0.00000   0.00892   0.00522   2.11677
    A2        2.01382  -0.00279   0.00000   0.01081   0.00753   2.02135
    A3        1.99805   0.01281   0.00000   0.05449   0.05219   2.05024
    A4        1.94952   0.01448   0.00000   0.07187   0.07192   2.02144
    A5        1.96295   0.00003   0.00000   0.00097  -0.00029   1.96266
    A6        1.85439  -0.00064   0.00000   0.00964   0.00996   1.86435
    A7        1.55855   0.00911   0.00000   0.09060   0.08917   1.64772
    A8        2.76598  -0.00714   0.00000  -0.00905  -0.00996   2.75602
    A9        1.87136  -0.00207   0.00000  -0.00872  -0.00919   1.86217
   A10        1.93605  -0.00245   0.00000  -0.02023  -0.02036   1.91569
   A11        2.00579   0.00611   0.00000   0.04551   0.04539   2.05118
   A12        1.82674   0.00066   0.00000  -0.00671  -0.00670   1.82003
   A13        1.86359   0.00091   0.00000   0.01248   0.01186   1.87544
   A14        1.94802  -0.00344   0.00000  -0.02495  -0.02442   1.92360
   A15        1.81170  -0.00360   0.00000  -0.01603  -0.01598   1.79572
   A16        1.93331   0.00160   0.00000   0.01143   0.01082   1.94414
   A17        1.88589   0.00203   0.00000   0.01857   0.01893   1.90482
   A18        1.93464  -0.00181   0.00000  -0.01683  -0.01688   1.91776
   A19        1.98061   0.00306   0.00000   0.00801   0.00794   1.98855
   A20        1.91494  -0.00119   0.00000  -0.00403  -0.00403   1.91092
   A21        1.87436   0.00044   0.00000   0.00215   0.00191   1.87627
   A22        1.67114   0.00078   0.00000   0.00901   0.00908   1.68021
   A23        2.00866   0.00133   0.00000   0.00547   0.00542   2.01408
   A24        1.95145   0.00238   0.00000   0.01030   0.01030   1.96175
   A25        1.90254  -0.00047   0.00000  -0.00171  -0.00171   1.90084
   A26        1.90108  -0.00045   0.00000  -0.00099  -0.00099   1.90009
   A27        1.86453  -0.00083   0.00000  -0.00369  -0.00369   1.86084
   A28        1.96447  -0.00091   0.00000  -0.00348  -0.00349   1.96098
   A29        1.87721   0.00020   0.00000  -0.00089  -0.00090   1.87631
   A30        1.85384   0.00033   0.00000   0.00180   0.00180   1.85564
   A31        1.92598  -0.00405   0.00000   0.01532   0.01372   1.93971
   A32        2.58053   0.01175   0.00000   0.06869   0.06686   2.64739
   A33        1.83219  -0.00050   0.00000   0.00017   0.00010   1.83229
   A34        2.02935   0.00091   0.00000   0.00206   0.00194   2.03129
   A35        1.75588   0.00030   0.00000  -0.00164  -0.00186   1.75402
   A36        2.66509   0.00019   0.00000   0.00001  -0.00010   2.66499
   A37        1.86435  -0.00385   0.00000  -0.03883  -0.03796   1.82639
   A38        1.99153   0.01138   0.00000   0.07844   0.07801   2.06953
   A39        1.94811  -0.00105   0.00000   0.00459   0.00366   1.95177
   A40        1.83283  -0.00386   0.00000  -0.03428  -0.03284   1.79999
   A41        1.93072   0.00180   0.00000  -0.00431  -0.00489   1.92583
   A42        1.89282  -0.00454   0.00000  -0.00942  -0.01160   1.88122
   A43        2.06022   0.00142   0.00000   0.01860   0.01720   2.07741
   A44        1.82601  -0.00173   0.00000  -0.01483  -0.01454   1.81148
   A45        1.89434   0.00233   0.00000   0.01203   0.01263   1.90697
   A46        1.85740   0.00136   0.00000   0.00066   0.00106   1.85846
   A47        1.88437  -0.00342   0.00000  -0.01330  -0.01308   1.87129
   A48        1.94073   0.00010   0.00000  -0.00410  -0.00430   1.93643
   A49        1.80178   0.00024   0.00000   0.00132   0.00132   1.80310
   A50        1.83758   0.00021   0.00000   0.00681   0.00698   1.84456
   A51        2.66608   0.00098   0.00000   0.00316   0.00316   2.66924
    D1       -1.24809  -0.00162   0.00000  -0.01515  -0.01521  -1.26330
    D2        2.49800  -0.00987   0.00000  -0.14557  -0.14664   2.35136
    D3        1.08146  -0.00001   0.00000   0.01285   0.01219   1.09365
    D4       -0.97862  -0.00127   0.00000   0.01225   0.01184  -0.96678
    D5       -3.05189  -0.00160   0.00000   0.01900   0.01851  -3.03338
    D6       -2.62977   0.00663   0.00000   0.13392   0.13451  -2.49525
    D7        1.59334   0.00537   0.00000   0.13331   0.13416   1.72751
    D8       -0.47993   0.00504   0.00000   0.14007   0.14082  -0.33910
    D9       -2.03489  -0.00042   0.00000   0.05298   0.05536  -1.97953
   D10       -3.13476  -0.00860   0.00000  -0.16319  -0.16320   2.98523
   D11        1.07114  -0.00520   0.00000  -0.13986  -0.13951   0.93163
   D12       -1.02691  -0.00598   0.00000  -0.15344  -0.15348  -1.18039
   D13       -1.77814  -0.00150   0.00000   0.03007   0.03062  -1.74752
   D14        0.09499   0.00172   0.00000   0.07958   0.08144   0.17644
   D15        2.12050   0.00118   0.00000   0.04211   0.04341   2.16390
   D16        0.14414  -0.00163   0.00000   0.01175   0.01171   0.15584
   D17        1.11331   0.00054   0.00000  -0.04383  -0.04345   1.06986
   D18       -3.09350  -0.00052   0.00000  -0.04779  -0.04769  -3.14120
   D19       -0.92947  -0.00121   0.00000  -0.06024  -0.06021  -0.98968
   D20        3.09812  -0.00106   0.00000  -0.06686  -0.06618   3.03194
   D21       -1.10870  -0.00213   0.00000  -0.07082  -0.07042  -1.17912
   D22        1.05534  -0.00281   0.00000  -0.08327  -0.08294   0.97240
   D23       -0.95499  -0.00285   0.00000  -0.08098  -0.08044  -1.03543
   D24        1.12138  -0.00392   0.00000  -0.08494  -0.08468   1.03670
   D25       -2.99777  -0.00460   0.00000  -0.09739  -0.09720  -3.09497
   D26        1.25711   0.00259   0.00000   0.02459   0.02470   1.28181
   D27       -2.95678   0.00449   0.00000   0.03485   0.03494  -2.92184
   D28       -3.01332  -0.00062   0.00000   0.00121   0.00126  -3.01205
   D29       -0.94402   0.00128   0.00000   0.01147   0.01151  -0.93252
   D30       -1.00402  -0.00082   0.00000   0.00027   0.00013  -1.00389
   D31        1.06527   0.00108   0.00000   0.01053   0.01037   1.07564
   D32       -2.06427   0.00083   0.00000  -0.00730  -0.00646  -2.07073
   D33       -0.04707  -0.00012   0.00000  -0.03111  -0.03072  -0.07779
   D34        2.10643   0.00172   0.00000   0.02030   0.02117   2.12760
   D35        2.14626  -0.00086   0.00000  -0.03229  -0.03215   2.11411
   D36       -2.11972  -0.00181   0.00000  -0.05609  -0.05642  -2.17614
   D37        0.03378   0.00003   0.00000  -0.00468  -0.00452   0.02926
   D38        0.15975  -0.00042   0.00000  -0.01879  -0.01850   0.14125
   D39        2.17696  -0.00137   0.00000  -0.04260  -0.04277   2.13419
   D40       -1.95273   0.00047   0.00000   0.00881   0.00913  -1.94360
   D41        3.05484   0.00126   0.00000   0.00735   0.00712   3.06196
   D42        0.99737   0.00115   0.00000   0.00678   0.00656   1.00393
   D43       -1.04621   0.00143   0.00000   0.00936   0.00914  -1.03707
   D44       -1.22940  -0.00017   0.00000   0.00381   0.00398  -1.22542
   D45        2.99632  -0.00028   0.00000   0.00325   0.00342   2.99973
   D46        0.95274  -0.00000   0.00000   0.00583   0.00600   0.95873
   D47        0.94530  -0.00122   0.00000  -0.01555  -0.01550   0.92981
   D48       -1.11216  -0.00133   0.00000  -0.01611  -0.01606  -1.12822
   D49        3.12744  -0.00105   0.00000  -0.01353  -0.01348   3.11397
   D50       -0.11601  -0.00138   0.00000  -0.01281  -0.01247  -0.12848
   D51        1.84336  -0.00005   0.00000  -0.00378  -0.00357   1.83979
   D52        0.94602   0.00011   0.00000   0.00142   0.00142   0.94745
   D53        3.02610   0.00037   0.00000   0.00290   0.00289   3.02899
   D54       -1.20053  -0.00041   0.00000  -0.00246  -0.00245  -1.20297
   D55       -0.53611  -0.00296   0.00000  -0.10088  -0.10034  -0.63646
   D56        1.92019  -0.00112   0.00000  -0.01111  -0.01101   1.90918
   D57       -0.19309  -0.00206   0.00000  -0.01275  -0.01239  -0.20548
   D58       -2.11467  -0.00079   0.00000  -0.00477  -0.00480  -2.11946
   D59       -0.14797  -0.00083   0.00000  -0.00473  -0.00503  -0.15300
   D60        0.89534   0.00355   0.00000   0.10012   0.10058   0.99592
   D61        2.93871   0.00320   0.00000   0.09280   0.09306   3.03177
   D62       -1.25950   0.00226   0.00000   0.08141   0.08186  -1.17765
   D63        2.93089   0.00238   0.00000   0.07233   0.07222   3.00311
   D64       -1.30892   0.00203   0.00000   0.06501   0.06470  -1.24422
   D65        0.77605   0.00109   0.00000   0.05361   0.05350   0.82955
   D66       -1.28779   0.00026   0.00000   0.04482   0.04496  -1.24283
   D67        0.75558  -0.00009   0.00000   0.03751   0.03744   0.79302
   D68        2.84056  -0.00103   0.00000   0.02611   0.02624   2.86679
   D69        1.15917  -0.00188   0.00000  -0.01875  -0.01839   1.14077
   D70       -0.91422   0.00245   0.00000   0.02987   0.02975  -0.88446
   D71       -2.91552   0.00867   0.00000   0.07858   0.07759  -2.83793
   D72        0.40724  -0.00057   0.00000  -0.01211  -0.01154   0.39571
   D73        2.65959   0.00044   0.00000   0.01038   0.00976   2.66935
   D74       -1.59218   0.00010   0.00000   0.00100   0.00105  -1.59114
   D75       -0.16747   0.00174   0.00000   0.02524   0.02460  -0.14287
         Item               Value     Threshold  Converged?
 Maximum Force            0.016328     0.000450     NO 
 RMS     Force            0.004059     0.000300     NO 
 Maximum Displacement     0.654117     0.001800     NO 
 RMS     Displacement     0.124436     0.001200     NO 
 Predicted change in Energy=-1.437698D-02
 GradGradGradGradGradGradGradGradGradGradGradGradGradGradGradGradGradGrad

                          Input orientation:                          
 ---------------------------------------------------------------------
 Center     Atomic      Atomic             Coordinates (Angstroms)
 Number     Number       Type             X           Y           Z
 ---------------------------------------------------------------------
      1          6           0       -1.558857   -1.651273   -0.305186
      2          8           0       -1.130650    0.529601   -0.969539
      3          1           0       -4.095620    0.495757   -1.604368
      4          8           0       -3.629512    0.613625   -0.761767
      5          1           0       -2.135136    0.791481   -0.946601
      6          6           0        1.030780    0.400608   -0.128324
      7          6           0       -0.300161    1.153438    0.018128
      8          1           0        1.382916    0.580455   -1.148044
      9          1           0       -0.701318    1.008052    1.027118
     10          8           0        2.037572    1.017549    0.711493
     11          1           0        1.833272    0.782990    1.633775
     12          6           0       -0.202298    2.656598   -0.282755
     13          8           0        0.519299    3.359465    0.710773
     14          1           0       -1.211841    3.082364   -0.297006
     15          1           0        0.229192    2.791695   -1.289517
     16          1           0        1.379268    2.911244    0.792736
     17          1           0       -1.506820   -2.065696   -1.321665
     18          8           0       -2.664174   -1.527589    0.298118
     19          1           0       -3.546149   -0.316612   -0.335774
     20          8           0        3.975437   -0.587073   -0.662660
     21          1           0        4.385055   -0.078609   -1.378341
     22          1           0        3.573903    0.083053   -0.074086
     23          6           0        1.014034   -1.162125    0.098323
     24          1           0        1.687314   -1.326649    0.955681
     25          6           0       -0.300915   -1.827550    0.552716
     26          1           0       -0.122336   -2.916994    0.537226
     27          8           0       -0.565817   -1.376862    1.867872
     28          1           0       -1.544082   -1.437812    1.935107
     29          8           0        1.482482   -1.862117   -1.035103
     30          1           0        2.428016   -1.615764   -1.127030
 ---------------------------------------------------------------------
                    Distance matrix (angstroms):
                    1          2          3          4          5
     1  C    0.000000
     2  O    2.319685   0.000000
     3  H    3.568302   3.032359   0.000000
     4  O    3.102554   2.508893   0.970116   0.000000
     5  H    2.590475   1.038316   2.088925   1.516231   0.000000
     6  C    3.308734   2.322942   5.335517   4.707967   3.293233
     7  C    3.091157   1.433307   4.179778   3.461822   2.104483
     8  H    3.787486   2.520409   5.498160   5.027400   3.530128
     9  H    3.095549   2.097590   4.325327   3.453984   2.449144
    10  O    4.592446   3.619613   6.576590   5.869370   4.495763
    11  H    4.603449   3.953009   6.761644   5.967354   4.733569
    12  C    4.516471   2.420254   4.644766   4.018581   2.766807
    13  O    5.518913   3.681564   5.904082   5.188511   4.048143
    14  H    4.746347   2.641116   4.088510   3.486519   2.553937
    15  H    4.889376   2.658689   4.906574   4.462299   3.115846
    16  H    5.536657   3.882979   6.446323   5.725680   4.457547
    17  H    1.098947   2.645952   3.652786   3.463823   2.949392
    18  O    1.265306   2.861936   3.124487   2.576826   2.684640
    19  H    2.394073   2.636735   1.603494   1.026528   1.895240
    20  O    5.647010   5.235767   8.197640   7.699789   6.270577
    21  H    6.241396   5.564174   8.503107   8.068001   6.592143
    22  H    5.422778   4.809788   7.831582   7.255591   5.818615
    23  C    2.649878   2.932906   5.635273   5.045351   3.850418
    24  H    3.497541   3.884978   6.581591   5.914637   4.766159
    25  C    1.532804   2.926069   4.944750   4.332062   3.531521
    26  H    2.091721   3.894362   5.658646   5.143242   4.472794
    27  O    2.404913   3.464756   5.293643   4.501473   3.884035
    28  H    2.250488   3.532507   4.772517   3.978761   3.690980
    29  O    3.134801   3.543030   6.082668   5.686518   4.487379
    30  H    4.070854   4.158304   6.873442   6.465079   5.162339
                    6          7          8          9         10
     6  C    0.000000
     7  C    1.536101   0.000000
     8  H    1.093697   2.126268   0.000000
     9  H    2.168917   1.095502   3.042729   0.000000
    10  O    1.448979   2.442176   2.019284   2.757032   0.000000
    11  H    1.973627   2.701682   2.825307   2.615880   0.973324
    12  C    2.575620   1.536098   2.751726   2.163906   2.948225
    13  O    3.117776   2.453126   3.453104   2.668168   2.791008
    14  H    3.499946   2.156670   3.703590   2.513307   3.979852
    15  H    2.776366   2.161952   2.498135   3.068229   3.228293
    16  H    2.696866   2.551545   3.033021   2.829471   2.006501
    17  H    3.734452   3.689701   3.922096   3.951398   5.118872
    18  O    4.189568   3.585367   4.786875   3.288422   5.362371
    19  H    4.637426   3.580883   5.075450   3.421297   5.835640
    20  O    3.151513   4.666218   2.884421   5.222242   2.866780
    21  H    3.611557   5.041757   3.082246   5.730467   3.328610
    22  H    2.563446   4.020274   2.490225   4.510630   1.962328
    23  C    1.579173   2.663715   2.173958   2.918007   2.484872
    24  H    2.142317   3.313593   2.855760   3.340882   2.382766
    25  C    2.683639   3.028544   3.395050   2.902761   3.686234
    26  H    3.574790   4.107250   4.163901   3.997650   4.491793
    27  O    3.113410   3.145559   4.089548   2.532398   3.721297
    28  H    3.777229   3.454957   4.706011   2.741705   4.511572
    29  O    2.479154   3.657962   2.447208   4.154468   3.413385
    30  H    2.648667   4.052508   2.432294   4.617088   3.235267
                   11         12         13         14         15
    11  H    0.000000
    12  C    3.365567   0.000000
    13  O    3.035899   1.414857   0.000000
    14  H    4.276418   1.095745   2.022189   0.000000
    15  H    3.892763   1.103632   2.099448   1.773736   0.000000
    16  H    2.333009   1.929476   0.973225   2.816144   2.381752
    17  H    5.292056   5.008111   6.137453   5.257325   5.158393
    18  O    5.229701   4.889342   5.847057   4.869816   5.435841
    19  H    5.833216   4.474832   5.580024   4.123534   4.982409
    20  O    3.426304   5.302754   5.422764   6.364458   5.083638
    21  H    4.040643   5.452107   5.579320   6.518150   5.051508
    22  H    2.537025   4.574535   4.547690   5.652336   4.472260
    23  C    2.610026   4.025833   4.589623   4.809002   4.263189
    24  H    2.220741   4.579368   4.835691   5.423442   4.912005
    25  C    3.540955   4.562381   5.253842   5.065478   5.001226
    26  H    4.326281   5.634154   6.311557   6.154288   6.004140
    27  O    3.236571   4.585427   4.994912   4.998874   5.289424
    28  H    4.053305   4.845977   5.363805   5.052198   5.606374
    29  O    3.773931   4.880911   5.589339   5.679089   4.826327
    30  H    3.705372   5.087674   5.636809   6.000825   4.928177
                   16         17         18         19         20
    16  H    0.000000
    17  H    6.129447   0.000000
    18  O    6.024724   2.062214   0.000000
    19  H    5.996025   2.861842   1.626704   0.000000
    20  O    4.593092   5.716272   6.774371   7.533542   0.000000
    21  H    4.763145   6.218192   7.389295   8.002973   0.968773
    22  H    3.683269   5.655734   6.453395   7.136060   0.978119
    23  C    4.148246   3.031091   3.701715   4.658176   3.111220
    24  H    4.252197   3.991865   4.405475   5.484265   2.898536
    25  C    5.033566   2.241479   2.395785   3.688345   4.615530
    26  H    6.023990   2.469207   2.906640   4.387096   4.864155
    27  O    4.829816   3.396045   2.624870   3.855199   5.258360
    28  H    5.363326   3.316956   1.985547   3.228353   6.159322
    29  O    5.112399   3.009898   4.368540   5.307049   2.824762
    30  H    5.027840   3.965257   5.288594   6.164782   1.915295
                   21         22         23         24         25
    21  H    0.000000
    22  H    1.544404   0.000000
    23  C    3.836447   2.851863   0.000000
    24  H    3.779295   2.570389   1.102468   0.000000
    25  C    5.361538   4.365490   1.542192   2.089578   0.000000
    26  H    5.660601   4.799601   2.136244   2.445227   1.104092
    27  O    6.060899   4.799983   2.381878   2.431299   1.415248
    28  H    6.926835   5.704705   3.161287   3.378395   1.899569
    29  O    3.423980   3.013517   1.412121   2.071691   2.388068
    30  H    2.501200   2.303850   1.925260   2.229331   3.211459
                   26         27         28         29         30
    26  H    0.000000
    27  O    2.083099   0.000000
    28  H    2.482622   0.982465   0.000000
    29  O    2.482021   3.585842   4.261722   0.000000
    30  H    3.311684   4.241409   5.018558   0.981416   0.000000
 Stoichiometry    C6H16O8
 Framework group  C1[X(C6H16O8)]
 Deg. of freedom    84
 Full point group                 C1      NOp   1
 Largest Abelian subgroup         C1      NOp   1
 Largest concise Abelian subgroup C1      NOp   1
[...]
 .00076126,0.00278491,0.06500413,0.00158575,-0.00040761,0.00086054,0.00
 034469,0.00011360,0.00048776,-0.00000615,-0.00001291,-0.00002000,-0.00
 001162,0.00007572,0.00019082,0.00004859,0.00004530,-0.00001028,-0.0082
 4002,0.00120761,-0.01601173,0.00097287,0.00104177,-0.00092207,0.000025
 26,0.00190655,-0.00016271,-0.00049494,0.00028730,0.00033324,0.00032085
 ,-0.00276320,0.00433151,0.00117179,0.00290077,-0.00018173,-0.00090992,
 -0.00003707,-0.00002847,0.00037013,-0.00007238,0.00031876,0.00003238,0
 .00021844,0.00000671,0.00003415,-0.00011812,0.00008235,-0.00004472,0.0
 0019877,-0.00007848,0.00011719,0.00023237,0.00022714,-0.00067968,0.000
 18468,0.00024966,0.00014709,-0.00016013,-0.00014983,0.00086371,0.00083
 241,0.00065018,-0.00025218,-0.00009977,0.00002003,0.00035618,-0.000201
 11,-0.00064144,-0.07087612,-0.00107728,-0.25772987,0.06922798,0.009104
 55,0.28803536,-0.08702981,-0.00848494,-0.00679689,-0.00241489,-0.00040
 979,0.00188028,-0.00029995,0.00016350,0.00022481,0.00247006,-0.0005933
 7,0.00278129,0.00009207,0.00189348,-0.00156946,0.00209516,-0.00953075,
 0.00163206,0.00237385,-0.00061192,-0.00171649,-0.00008192,0.00051369,-
 0.00032799,-0.00009745,0.00136324,0.00083452,0.00392562,0.00589768,0.0
 0082149,0.00014489,-0.00046896,-0.00035133,-0.00046576,0.00037644,0.00
 083148,-0.00046176,0.00024513,-0.00001102,-0.00004695,0.00032803,-0.00
 003941,-0.00007422,-0.00035092,0.00013588,0.00020277,-0.00063877,-0.00
 005926,0.01079909,0.00510919,0.02044850,-0.04286296,-0.00007543,-0.044
 48591,0.00041414,-0.00205674,-0.00405192,0.00054086,-0.00007303,-0.000
 14462,-0.00012110,0.00003250,0.00005099,-0.00060253,0.00006208,0.00009
 111,-0.11895294,-0.03715847,-0.01998752,-0.01525872,-0.00971279,-0.001
 35117,0.49924868,-0.00982838,-0.08351479,-0.02223909,0.00163737,-0.001
 88760,-0.00104792,0.00029416,-0.00035280,-0.00021831,-0.00102659,0.000
 00721,-0.00212641,0.00070843,-0.00111264,0.00089700,-0.02350335,-0.005
 87579,-0.00375468,-0.00123441,-0.00122685,0.00134993,0.00089312,0.0004
 1508,0.00064898,0.00051601,-0.00121354,-0.00108723,-0.00290984,-0.0070
 6116,0.00142808,-0.00007059,0.00046027,0.00079663,-0.00061226,-0.00066
 910,-0.00104582,0.00057256,0.00003997,0.00025442,0.00007615,0.00009274
 ,0.00002573,0.00008884,0.00036389,-0.00013386,-0.00023959,0.00042407,0
 .00006133,-0.00157213,0.01542864,-0.01224992,0.00381258,0.02039696,-0.
 00404703,-0.00162123,0.00171053,0.00260219,0.00083754,0.00076605,0.000
 25396,-0.00014348,0.00000175,0.00003076,0.00032443,-0.00037545,-0.0001
 5962,-0.04950052,-0.09727235,-0.00674779,-0.00652083,-0.00263992,-0.00
 044045,-0.05752443,0.50546332,-0.02417200,-0.01786205,-0.17003474,0.00
 146275,0.00072492,-0.00112668,0.00052879,-0.00013246,-0.00023828,-0.00
 405742,0.00233674,-0.00349900,-0.00079411,-0.00122568,0.00130522,0.006
 34302,0.00585344,-0.00072777,-0.00171246,0.00044157,0.00225823,0.00009
 442,-0.00057697,-0.00020567,-0.00006625,-0.00125153,-0.00089240,-0.000
 50512,-0.00281639,0.00151781,0.00005355,0.00180811,0.00033395,0.000394
 09,-0.00037197,-0.00100924,0.00045198,-0.00024623,0.00013044,0.0000479
 9,-0.00028216,0.00002961,0.00007205,0.00036483,-0.00012630,-0.00013633
 ,0.00052725,0.00004556,-0.00632020,-0.00528832,-0.01210786,-0.02075977
 ,-0.00292429,-0.00030651,0.00029433,0.00041414,0.00188727,-0.00019838,
 0.00024405,0.00029620,0.00009401,-0.00001497,-0.00002242,0.00060044,0.
 00006200,-0.00031099,-0.00605292,-0.00265812,-0.07286573,-0.02971784,-
 0.01583562,-0.00334315,-0.00753374,0.02237969,0.49689926,-0.00604221,0
 .01646356,-0.00967934,0.00041439,0.00012007,-0.00013856,-0.00001511,0.
 00007449,-0.00004691,-0.00071294,0.00029951,-0.00036888,-0.00009247,-0
 .00029908,0.00019835,-0.00396534,0.00158856,-0.00028546,-0.00030568,0.
 00044471,0.00013453,0.00014307,-0.00027693,0.00025669,0.00005379,-0.00
 013347,-0.00012507,-0.00142548,-0.00218129,-0.00010061,0.00000601,0.00
 002305,0.00018227,-0.00001036,-0.00003976,-0.00013076,0.00009767,-0.00
 007510,0.00000222,0.00001931,-0.00003220,0.00000786,0.00000565,0.00004
 548,-0.00001668,-0.00004042,0.00016410,0.00001287,0.00010065,-0.002534
 25,0.00009280,0.00003128,-0.00273895,-0.00051906,0.00027435,0.00007350
 ,0.00011636,0.00023144,0.00033269,0.00005053,-0.00002462,-0.00001230,0
 .00000429,0.00022122,-0.00023598,-0.00008362,-0.00185164,-0.03066613,0
 .01101189,0.00171943,0.00043612,0.00022839,-0.05228448,0.05606730,-0.0
 2077195,0.07586391,0.00165372,0.00070688,0.00349178,0.00037168,0.00000
 790,0.00035563,-0.00004159,0.00003597,0.00005392,0.00053169,0.00006397
 ,0.00066880,-0.00013009,0.00000882,-0.00014374,-0.00250565,0.00188331,
 -0.00151291,-0.00023678,0.00025269,-0.00027952,-0.00005408,-0.00019485
 ,0.00023685,0.00007025,0.00010423,0.00012455,-0.00141803,-0.00169786,0
 .00002326,0.00007655,0.00004225,0.00017087,0.00008129,0.00008765,0.000
 04411,-0.00001170,-0.00015717,-0.00002889,0.00002402,-0.00005140,0.000
 00861,-0.00002325,-0.00003001,0.00003100,0.00000217,0.00016990,0.00000
 602,0.00059366,-0.00010161,0.00137812,-0.00281404,-0.00069077,-0.00011
 696,0.00037267,-0.00051901,-0.00063691,0.00021015,0.00036950,0.0000886
 5,-0.00001835,-0.00002304,0.00000443,0.00028785,-0.00027777,-0.0001233
 2,-0.00191522,-0.02653798,0.01052296,0.00098557,0.00104906,-0.00027159
 ,0.05093191,-0.24004831,0.06554232,-0.06270002,0.27236393,-0.00918374,
 0.03035638,-0.00764684,-0.00016602,0.00121097,0.00011653,-0.00003083,0
 .00005396,0.00006630,0.00048696,0.00005505,0.00099651,0.00017181,0.000
 05888,-0.00021354,-0.00040491,-0.00016316,0.00052998,-0.00047750,-0.00
 039932,-0.00065470,-0.00010710,-0.00020741,0.00009822,0.00007495,0.000
 10751,0.00016867,-0.00004895,-0.00017753,0.00004600,0.00002074,0.00007
 419,0.00000716,0.00006981,0.00000447,0.00012686,0.00008280,0.00007496,
 0.00003329,0.00000071,-0.00005230,-0.00000249,-0.00001737,-0.00001894,
 0.00000898,-0.00001201,0.00004456,0.00000157,0.00078619,-0.00374267,0.
 00091864,-0.00235396,-0.00448310,-0.00172245,0.00077332,-0.00057540,-0
 .00078300,-0.00014917,-0.00008469,-0.00001028,0.00002176,0.00000851,-0
 .00000392,0.00001725,0.00005584,0.00002372,-0.00090809,-0.00156991,0.0
 0284799,0.00037375,-0.00082967,0.00075436,-0.02498236,0.08004920,-0.07
 396390,0.01569573,-0.06817392,0.07937991,-0.00485022,-0.00202522,-0.00
 528147,0.00280570,0.00108629,-0.00029557,0.00109153,0.00003643,-0.0015
 7625,-0.01127340,0.00661340,-0.00830318,-0.00226641,-0.00177973,0.0014
 1905,0.00098570,0.00223302,-0.00083054,-0.00193324,-0.00160358,-0.0008
 3361,-0.00008721,0.00000408,0.00004069,-0.00070018,-0.00064200,0.00079
 005,-0.00036015,-0.00201014,-0.00026530,0.00005157,0.00067442,0.000077
 25,0.00025821,0.00025041,0.00036980,0.00031544,-0.00025585,-0.00003712
 ,0.00011614,-0.00036007,0.00003037,-0.00002021,-0.00009978,0.00001053,
 -0.00004008,0.00049984,0.00001305,-0.00028133,0.00101155,-0.00256350,0
 .01099447,-0.00215410,-0.00213979,-0.00074889,0.00194318,0.00496749,-0
 .00192448,-0.00098440,-0.00014738,0.00030193,-0.00000008,-0.00008479,0
 .00033709,0.00049088,0.00010088,-0.01942914,0.01925165,0.02824837,0.00
 257547,0.00172114,0.00061042,-0.14489687,0.05188805,0.08676459,-0.0139
 8446,0.01601581,0.02017756,0.47561901,0.00920990,-0.00531823,-0.006694
 46,-0.00131713,-0.00173941,0.00275128,0.00012633,-0.00036294,0.0013976
 6,0.00650229,0.00033291,0.00284490,-0.00078500,0.00131314,-0.00163688,
 0.00391424,-0.00182003,0.00033084,0.00134395,-0.00264412,-0.00291348,-
 0.00042578,0.00017664,0.00005633,-0.00104802,0.00034742,0.00334989,-0.
 00006935,0.00260562,-0.00024358,0.00041968,-0.00059630,-0.00008380,-0.
 00014736,0.00135969,0.00217947,-0.00081078,-0.00042145,-0.00040998,0.0
 0001230,0.00013136,-0.00003895,-0.00022192,-0.00090003,0.00029254,0.00
 031173,-0.00017975,-0.00005165,-0.00103042,0.00148818,-0.00162117,-0.0
 0258358,0.00176510,0.00145442,0.00143583,-0.00273068,-0.00114768,0.000
 23010,0.00044711,0.00006009,-0.00003309,-0.00006485,0.00000319,0.00020
 039,-0.00035148,-0.00010492,0.00101859,0.00880300,0.00161788,0.0002496
 0,0.00021096,0.00080578,0.04857308,-0.09019685,-0.05358787,0.02348337,
 -0.00791941,-0.02839096,-0.25395176,0.18936334,0.03401737,-0.01907786,
 -0.03466342,0.00073176,0.00167704,0.00005604,-0.00099315,0.00075758,-0
 .00170008,-0.00291555,0.00142259,0.00490450,0.00032977,-0.00023913,-0.
 00055066,0.00000970,-0.00166808,0.00056323,-0.00046607,-0.00056485,-0.
 00230627,-0.00022392,-0.00013778,0.00023326,0.00027515,0.00136063,0.00
 039865,0.00077470,0.00161817,0.00030012,0.00016296,-0.00023190,-0.0001
 8686,-0.00020251,0.00000248,0.00027274,0.00001961,0.00022017,0.0002509
 7,-0.00002693,0.00009916,-0.00004378,-0.00005294,-0.00013842,0.0001457
 5,0.00004799,-0.00019093,-0.00007315,-0.00411794,-0.00178600,-0.006447
 70,-0.00153690,0.00367301,0.00691735,0.00174504,-0.00106195,-0.0006848
 6,0.00058072,0.00030069,0.00011808,-0.00013786,-0.00003326,0.00000116,
 -0.00016201,-0.00016010,-0.00007620,0.01065094,-0.00158891,-0.01026759
 ,-0.00008774,0.00082093,0.00221684,0.04211487,-0.03282595,-0.17118392,
 0.00278017,-0.00788612,0.00278393,0.03399590,-0.01134772,0.33055226,0.
 00880729,0.00000397,0.00088771,-0.00172189,0.00163046,-0.00160238,-0.0
 0276345,0.00018125,0.00134433,0.00248424,-0.00396110,0.00592920,0.0048
 1630,0.00096749,-0.00075133,-0.00101506,-0.00083270,0.00011907,-0.0003
 2745,-0.00040762,0.00177769,0.00017803,-0.00000051,-0.00012221,-0.0002
 0523,-0.00129056,-0.00092287,0.00056689,0.00062364,0.00000529,-0.00016
 981,-0.00020100,-0.00005847,0.00005299,-0.00061839,-0.00064946,0.00005
 027,0.00036556,0.00009093,-0.00008032,0.00018244,-0.00000247,0.0000620
 0,0.00029240,-0.00009061,-0.00006910,-0.00024340,0.00001207,-0.0011874
 7,-0.00069256,-0.00111989,-0.00542702,0.00169179,0.00057306,-0.0004844
 5,-0.00333266,-0.00944678,0.00044510,0.00004609,-0.00003616,-0.0000947
 9,0.00001104,0.00001787,-0.00028957,0.00001533,0.00005957,-0.00169715,
 0.00155082,0.00076007,-0.00004007,0.00008578,0.00000718,-0.02448112,0.
 01082671,-0.00278340,0.00067607,-0.00328811,-0.00101566,-0.28082962,0.
 16671455,-0.11765370,0.30278696,0.00102732,0.00236844,-0.00041233,0.00
 206828,0.00067292,-0.00105633,-0.00065651,0.00033794,-0.00233092,-0.00
 190604,-0.00459966,0.00026079,-0.00049367,-0.00270224,0.00335465,-0.00
 074105,0.00116099,-0.00031132,-0.00221828,-0.00115396,0.00047564,0.000
 10772,-0.00014874,0.00002240,-0.00070503,-0.00052026,-0.00064858,0.000
 37788,-0.00103592,0.00015134,-0.00010613,0.00039885,-0.00002570,-0.000
 00993,-0.00043523,-0.00035217,0.00050355,0.00027752,0.00018079,0.00003
 245,-0.00018689,0.00003469,0.00008370,0.00018431,-0.00009067,-0.000134
 15,0.00013052,0.00001034,0.00021960,0.00025117,0.00137493,0.00004965,-
 0.00158931,0.00246326,-0.00334149,0.00469709,-0.00009226,-0.00024544,-
 0.00029301,-0.00002968,0.00003935,0.00002841,-0.00000603,-0.00008342,0
 .00020673,0.00004589,-0.00122674,0.00117906,0.00167299,0.00032376,0.00
 008460,0.00020228,0.01110451,-0.01397118,0.00170559,0.00305350,-0.0019
 3257,-0.00362225,0.16449651,-0.09495412,0.06653440,-0.16997025,0.11157
 957,0.00649395,-0.00306716,-0.00001976,-0.00240988,-0.00235695,0.00024
 316,0.00170679,-0.00119642,0.00362794,0.00133809,-0.00025731,-0.008903
 06,0.00041545,0.00297656,-0.00093309,0.00036178,-0.00035479,0.00011074
 ,0.00205302,0.00121942,0.00208097,0.00012408,-0.00004481,-0.00008743,-
 0.00028551,-0.00031025,-0.00041107,-0.00031251,0.00038155,-0.00012325,
 -0.00000937,-0.00010362,0.00003516,-0.00002766,0.00012645,-0.00029694,
 -0.00029358,-0.00028279,-0.00019699,-0.00000925,0.00007602,0.00002131,
 0.00004126,0.00008653,-0.00004409,0.00004359,-0.00004768,0.00001358,-0
 .00043908,0.00017390,0.00055625,-0.00284530,0.00230254,0.00144305,-0.0
 0648824,0.00025244,-0.00446632,0.00019019,0.00016607,0.00000783,-0.000
 01210,-0.00000077,0.00001669,0.00003912,-0.00010332,-0.00001753,0.0004
 6056,-0.00236925,-0.00239350,-0.00007997,-0.00007167,-0.00002585,0.029
 79654,-0.01658857,0.01099754,0.00266746,-0.00213843,-0.00337930,-0.159
 32851,0.09145765,-0.12371220,0.12478702,-0.07036082,0.12664960,0.00341
 353,0.00054623,0.00002853,0.00072032,0.00121779,-0.00027445,0.00023278
 ,-0.00013451,-0.00004943,-0.00150985,0.00117283,-0.00055233,0.00019080
 ,-0.00055428,0.00035208,-0.00996715,0.01084339,0.00414521,0.00188003,0
 .00151200,-0.00093673,0.00000081,-0.00097602,-0.00030917,0.00006433,-0
 .00052132,-0.00001465,0.00716397,0.00081239,0.00059750,-0.00074506,-0.
 00035489,0.00013841,-0.00187002,-0.00051884,-0.00004610,0.00096099,0.0
 0045672,0.00039153,0.00008849,0.00046715,-0.00008665,0.00008667,0.0001
 3617,-0.00011685,-0.00028892,0.00001511,0.00007511,-0.00192675,0.00075
 472,0.00011033,-0.00365354,0.00007091,-0.00015757,0.00085291,-0.000556
 58,0.00018238,-0.01984774,-0.01299715,0.00003004,0.00015777,-0.0012287
 0,-0.00166769,-0.00307263,0.00509901,0.00241260,-0.14197518,0.05705013
 ,0.05314317,0.00516975,0.00269543,0.00893020,-0.03158648,0.02583831,0.
 02608000,0.00124012,0.00338606,0.00085350,-0.01353428,-0.00071321,0.00
 130133,0.00040463,-0.00184130,0.00211800,0.58906330,0.00062482,0.00009
 026,-0.00209056,0.00161475,0.00178330,0.00070937,0.00003617,0.00004881
 ,0.00000741,0.00007676,0.00066013,-0.00020680,-0.00075356,-0.00062325,
 0.00038158,0.03503001,-0.03501522,-0.02075713,-0.00757850,-0.00770350,
 0.00149214,0.00041220,0.00382170,-0.00231212,0.00017151,-0.00011620,-0
 .00011049,-0.00186989,0.00235251,-0.00029116,0.00058312,-0.00018041,0.
 00023666,0.00401287,0.00026543,-0.00041432,-0.00071728,-0.00054558,-0.
 00041282,-0.00006965,-0.00130621,0.00029500,-0.00016721,-0.00002432,0.
 00013028,0.00024214,0.00048704,-0.00002187,-0.00009219,-0.00004784,0.0
 0071775,-0.00079501,0.00032939,0.00087828,0.00021868,-0.00047464,-0.00
 008518,-0.00643023,0.00268641,0.00083801,-0.00046321,-0.00104305,-0.00
 054426,0.00209382,0.00067556,0.00014010,0.02911827,-0.13544836,-0.0593
 2775,0.00809264,-0.00649592,-0.01218955,0.00056998,0.00563791,0.003602
 31,-0.00044147,0.00273890,0.00054833,-0.00415094,0.00153575,0.00137349
 ,-0.00019336,-0.00046903,0.00061490,0.03654504,0.23844422,0.00101876,-
 0.00108588,-0.00543819,0.00041824,-0.00040052,0.00060042,-0.00006372,0
 .00003277,-0.00002386,0.00037422,-0.00011662,0.00047081,-0.00001350,0.
 00018917,-0.00009307,-0.00090015,0.00064763,0.00499116,-0.00064234,0.0
 0142266,0.00113451,-0.00125486,-0.00167224,0.00331767,-0.00054581,0.00
 057867,0.00017124,-0.00065223,0.00005822,0.00212815,0.00078863,0.00189
 781,-0.00074856,-0.00000486,0.00005517,-0.00008027,0.00000392,-0.00015
 969,0.00020381,0.00001954,-0.00002886,-0.00003899,0.00001079,-0.000097
 50,0.00007015,0.00005198,0.00012052,-0.00012731,-0.00096416,0.00041923
 ,0.00145657,-0.00066768,0.00049258,0.00229636,0.00004244,-0.00018569,-
 0.00032423,0.00157523,0.00249254,0.00568783,-0.00225949,-0.00145839,-0
 .00025409,0.00034953,-0.00092848,-0.00141757,0.02888974,-0.06038506,-0
 .11668387,0.02853589,-0.02935680,-0.02023713,0.00950865,-0.00261369,-0
 .00127037,-0.00112000,-0.00103036,-0.00034933,0.00206949,-0.00032489,0
 .00238966,-0.00029559,0.00074036,-0.00049013,-0.03405349,0.12389094,0.
 15238562,-0.00157752,0.00021702,-0.00125446,-0.00008645,-0.00045476,0.
 00018663,-0.00008891,0.00006945,0.00002551,0.00060358,-0.00045338,-0.0
 0002412,-0.00021882,0.00013837,-0.00009377,0.00402517,0.00156449,-0.00
 002053,-0.00122827,-0.00121203,0.00001689,-0.00015782,0.00056115,-0.00
 033068,0.00004194,0.00004107,0.00000099,-0.00495761,-0.00030167,-0.000
 16988,0.00066588,0.00032057,-0.00008399,0.00121041,0.00040280,0.000127
 47,-0.00061441,-0.00043420,-0.00027334,-0.00004110,-0.00031936,0.00004
 028,-0.00005685,-0.00006200,0.00006116,0.00026181,0.00014400,-0.000028
 81,-0.00042722,-0.00018761,-0.00052912,0.00193261,-0.00022564,0.000531
 80,-0.00050744,0.00037652,0.00011634,0.00176420,0.00647427,0.00068516,
 -0.00123578,0.00105517,0.00201907,0.00525561,-0.00625875,-0.00304069,-
 0.02604672,0.00060058,0.00296364,0.00233737,-0.00255043,-0.00252827,-0
 .00028728,0.00192607,0.00229989,-0.00034314,-0.00043815,0.00025082,0.0
 0170790,-0.00060852,-0.00096075,-0.00044719,0.00019163,-0.00009594,-0.
 38171359,-0.09572028,-0.03021917,0.40022964,-0.00049463,-0.00004998,-0
 .00085248,-0.00069441,-0.00047483,-0.00003809,-0.00003780,0.00001229,-
 0.00000015,0.00013646,-0.00024910,0.00011183,0.00008074,0.00020204,-0.
 00015226,0.00478928,0.00038646,-0.00000053,0.00026100,-0.00035755,0.00
 023326,0.00017271,-0.00034354,0.00045837,-0.00016717,0.00019981,0.0000
 6166,-0.00312342,0.00109775,-0.00009819,0.00023117,-0.00016020,-0.0004
 2867,0.00038085,0.00004784,0.00020315,-0.00038969,0.00024429,-0.000097
 72,-0.00007070,-0.00000413,0.00000232,0.00000297,-0.00007036,0.0000240
 3,0.00007789,-0.00047365,-0.00004320,-0.00002281,-0.00007214,0.0001918
 9,0.00046570,-0.00010140,0.00027473,-0.00013243,0.00014178,-0.00001717
 ,0.00601106,-0.00524515,-0.00156544,0.00003034,0.00149546,0.00142149,-
 0.00553311,-0.00829735,-0.00157664,0.02969872,0.00722871,0.00443794,-0
 .00046046,-0.00017265,-0.00150669,0.00052590,-0.00379003,-0.00093233,-
 0.00030310,0.00029681,-0.00021158,0.00180099,0.00031945,-0.00092138,-0
 .00015709,0.00043401,-0.00017941,-0.12822259,-0.07206380,-0.03319358,0
 .09514364,0.07981915,0.00006424,-0.00000813,-0.00057173,-0.00004003,0.
 00009939,-0.00004071,0.00000028,0.00000577,0.00001561,0.00005774,0.000
 01998,0.00005797,-0.00003152,-0.00002681,-0.00001057,0.00016513,-0.000
 06718,0.00134775,-0.00016370,0.00004344,-0.00022761,-0.00042313,0.0004
 7968,-0.00049204,0.00014522,-0.00008411,-0.00004811,-0.00057912,0.0006
 9837,-0.00097578,0.00033953,-0.00095066,-0.00010412,0.00011882,0.00003
 450,0.00012778,-0.00009373,0.00004469,-0.00012403,0.00000286,-0.000025
 96,-0.00000914,-0.00001120,0.00001411,-0.00004595,0.00000297,-0.000079
 09,0.00006047,0.00005766,0.00021280,0.00064954,-0.00042866,0.00003288,
 0.00020792,0.00004417,-0.00009062,-0.00005480,-0.00229447,-0.00472523,
 -0.01032285,0.00517723,0.00413853,0.00020412,-0.00129352,-0.00022604,0
 .00214481,0.02657542,0.00578067,-0.00146637,0.00052218,0.00113266,0.00
 077748,0.00225661,-0.00345158,-0.00246618,-0.00005549,-0.00040920,-0.0
 0017887,0.00200152,-0.00000391,-0.00020787,0.00017994,0.00010871,-0.00
 030331,-0.06262481,-0.03709252,-0.02972700,0.03032786,0.03439484,0.041
 78358\\0.00003351,-0.00000208,0.00000596,-0.00000875,0.00000923,-0.000
 00713,-0.00000788,-0.00000195,0.00001743,-0.00001315,-0.00000068,-0.00
 000503,0.00001307,-0.00000263,0.00000642,-0.00000120,-0.00000502,0.000
 01122,0.00000292,-0.00000124,0.00000221,-0.00000418,0.00000226,-0.0000
 0294,-0.00000492,0.00000384,-0.00000039,-0.00000213,0.00000069,-0.0000
 0331,-0.00000908,0.00000891,-0.00000195,-0.00001945,-0.00001249,-0.000
 02157,0.00000576,0.00000702,0.00000699,-0.00000471,-0.00000289,-0.0000
 0079,-0.00000467,0.00000038,-0.00000033,-0.00000479,0.00000543,-0.0000
 0723,0.00000033,-0.00000243,0.00000154,-0.00002836,-0.00000411,0.00000
 309,0.00002309,-0.00002018,-0.00000822,0.00001165,0.00001782,0.0000012
 4,-0.00000726,0.00000285,-0.00000695,-0.00000230,0.00000295,-0.0000047
 0,0.00003902,-0.00000231,-0.00003109,-0.00000078,0.00000628,0.00000527
 ,-0.00000596,-0.00001933,0.00000705,0.00000652,0.00000619,0.00000932,0
 .00001529,-0.00001418,0.00000299,-0.00001997,0.00000245,0.00000446,-0.
 00001800,0.00002321,0.00001635,0.00001636,-0.00000799,0.00000013\\\@


 THERE IS AN OLD, OLD RECIPE IN MAINE FOR STEWING COOT. PLACE THE
 BIRD IN A KETTLE OF WATER WITH A RED BUILDING BRICK FREE OF MORTAR AND
 BLEMISHES. PARBOIL THE COOT AND BRICK TOGETHER FOR THREE HOURS.
 POUR OFF THE WATER, REFILL THE KETTLE, AND AGAIN PARBOIL FOR THREE HOURS.
 ONCE AGAIN POUR OFF THE WATER, FOR THE LAST TIME ADD FRESH WATER,
 AND LET THE COOT AND BRICK SIMMER TOGETHER OVERNIGHT. IN THE MORNING,
 THROW AWAY THE COOT AND EAT THE BRICK.
 Job cpu time:       0 days  0 hours 31 minutes 57.9 seconds.
 File lengths (MBytes):  RWF=    221 Int=      0 D2E=      0 Chk=      6 Scr=      1
 Normal termination of Gaussian 09 at Mon Jan 16 01:45:32 2017.
