 Entering Gaussian System, Link 0=g09
 Initial command:
 /global/software/gaussian/g09.e01/l1.exe "/scratch/10452745.yak.local/Gau-16216.inp" -scrdir="/scratch/10452745.yak.local/"
 Entering Link 1 = /global/software/gaussian/g09.e01/l1.exe PID=     16217.
  
 Copyright (c) 1988,1990,1992,1993,1995,1998,2003,2009,2015,
            Gaussian, Inc.  All Rights Reserved.
  
 This is part of the Gaussian(R) 09 program.  It is based on
 the Gaussian(R) 03 system (copyright 2003, Gaussian, Inc.),
 the Gaussian(R) 98 system (copyright 1998, Gaussian, Inc.),
 the Gaussian(R) 94 system (copyright 1995, Gaussian, Inc.),
 the Gaussian 92(TM) system (copyright 1992, Gaussian, Inc.),
 the Gaussian 90(TM) system (copyright 1990, Gaussian, Inc.),
 the Gaussian 88(TM) system (copyright 1988, Gaussian, Inc.),
 the Gaussian 86(TM) system (copyright 1986, Carnegie Mellon
 University), and the Gaussian 82(TM) system (copyright 1983,
 Carnegie Mellon University). Gaussian is a federally registered
 trademark of Gaussian, Inc.
  
 This software contains proprietary and confidential information,
 including trade secrets, belonging to Gaussian, Inc.
  
 This software is provided under written license and may be
 used, copied, transmitted, or stored only in accord with that
 written license.
  
 The following legend is applicable only to US Government
 contracts under FAR:
  
                    RESTRICTED RIGHTS LEGEND
  
 Use, reproduction and disclosure by the US Government is
 subject to restrictions as set forth in subparagraphs (a)
 and (c) of the Commercial Computer Software - Restricted
 Rights clause in FAR 52.227-19.
  
 Gaussian, Inc.
 340 Quinnipiac St., Bldg. 40, Wallingford CT 06492
  
  
 ---------------------------------------------------------------
 Warning -- This program may not be used in any manner that
 competes with the business of Gaussian, Inc. or will provide
 assistance to any competitor of Gaussian, Inc.  The licensee
 of this program is prohibited from giving any competitor of
 Gaussian, Inc. access to this program.  By using this program,
 the user acknowledges that Gaussian, Inc. is engaged in the
 business of creating and licensing software in the field of
 computational chemistry and represents and warrants to the
 licensee that it is not a competitor of Gaussian, Inc. and that
 it will not use this program in any manner prohibited above.
 ---------------------------------------------------------------
  

 Cite this work as:
 Gaussian 09, Revision E.01,
 M. J. Frisch, G. W. Trucks, H. B. Schlegel, G. E. Scuseria, 
 M. A. Robb, J. R. Cheeseman, G. Scalmani, V. Barone, B. Mennucci, 
 G. A. Petersson, H. Nakatsuji, M. Caricato, X. Li, H. P. Hratchian, 
 A. F. Izmaylov, J. Bloino, G. Zheng, J. L. Sonnenberg, M. Hada, 
 M. Ehara, K. Toyota, R. Fukuda, J. Hasegawa, M. Ishida, T. Nakajima, 
 Y. Honda, O. Kitao, H. Nakai, T. Vreven, J. A. Montgomery, Jr., 
 J. E. Peralta, F. Ogliaro, M. Bearpark, J. J. Heyd, E. Brothers, 
 K. N. Kudin, V. N. Staroverov, T. Keith, R. Kobayashi, J. Normand, 
 K. Raghavachari, A. Rendell, J. C. Burant, S. S. Iyengar, J. Tomasi, 
 M. Cossi, N. Rega, J. M. Millam, M. Klene, J. E. Knox, J. B. Cross, 
 V. Bakken, C. Adamo, J. Jaramillo, R. Gomperts, R. E. Stratmann, 
 O. Yazyev, A. J. Austin, R. Cammi, C. Pomelli, J. W. Ochterski, 
 R. L. Martin, K. Morokuma, V. G. Zakrzewski, G. A. Voth, 
 P. Salvador, J. J. Dannenberg, S. Dapprich, A. D. Daniels, 
 O. Farkas, J. B. Foresman, J. V. Ortiz, J. Cioslowski, 
 and D. J. Fox, Gaussian, Inc., Wallingford CT, 2013.
 
 ******************************************
 Gaussian 09:  ES64L-G09RevE.01 30-Nov-2015
                11-Jan-2017 
 ******************************************
 %NPROCS=4
 Will use up to    4 processors via shared memory.
 ----------------------------------------------------------------------
 # opt=(calcfc,ts,noeigentest,maxcycle=1000,cartesian) b3lyp 6-31g(d) f
 req
 ----------------------------------------------------------------------
 1/5=1,6=1000,10=4,11=1,14=-1,18=10,26=3,38=1/1,3;
 2/12=2,17=6,18=5,29=2,40=1/2;
 3/5=1,6=6,7=1,11=2,16=1,25=1,30=1,71=2,74=-5,140=1/1,2,3;
 4//1;
 5/5=2,38=5/2;
 8/6=4,10=90,11=11/1;
 11/6=1,8=1,9=11,15=111,16=1/1,2,10;
 10/6=1,13=1/2;
 6/7=2,8=2,9=2,10=2,28=1/1;
 7/7=1,10=1,18=20,25=1/1,2,3,16;
 1/5=1,6=1000,10=4,11=1,14=-1,18=10,26=3/3(2);
 2/29=1/2;
 99/12=1/99;
 2/29=1/2;
 3/5=1,6=6,7=1,11=2,16=1,25=1,30=1,71=1,74=-5/1,2,3;
 4/5=5,16=3,69=1/1;
 5/5=2,38=5/2;
 7/7=1/1,2,3,16;
 1/5=1,6=1000,11=1,14=-1,18=10,26=3/3(-5);
 2/29=1/2;
 6/7=2,8=2,9=2,10=2,19=2,28=1/1;
 99/9=1,12=1/99;
 ------------------------
 boat4_Beta_B3LYP_6-31G_d
 ------------------------
 Symbolic Z-matrix:
 Charge =  0 Multiplicity = 1
 8                    0    -0.6134    0.20329  -0.98919 
 6                    0     1.23985  -0.81768   0.2388 
 6                    0     1.11993   1.70603   0.11841 
 6                    0     1.96994   0.46196  -0.16627 
 6                    0    -0.39463   1.42018   0.18356 
 6                    0     0.01797  -1.04715  -0.66865 
 1                    0     2.15189   0.43385  -1.25267 
 1                    0     0.40157  -1.45781  -1.61457 
 1                    0     0.92256  -0.72684   1.28471 
 1                    0    -0.96857   2.16945  -0.38706 
 6                    0    -0.96881  -2.04332  -0.04308 
 1                    0    -1.3375   -1.64196   0.90378 
 1                    0    -1.83219  -2.20771  -0.70629 
 1                    0     1.39813   2.06795   1.11696 
 8                    0    -0.86069   1.03185   1.32815 
 8                    0    -0.33044  -3.28538   0.26701 
 1                    0    -0.13467  -3.7331   -0.57208 
 8                    0     1.42321   2.66666  -0.88621 
 1                    0     1.17289   3.54027  -0.55077 
 8                    0     3.19131   0.57388   0.54434 
 1                    0     3.58725  -0.31445   0.51213 
 8                    0     2.16828  -1.89297   0.09596 
 1                    0     1.7313   -2.66754   0.49041 
 8                    0    -3.28642   0.99698   1.12513 
 1                    0    -3.28162   0.5846   -0.0876 
 1                    0    -2.16061   1.05537   1.31713 
 1                    0    -3.63877   0.33083   1.7344 
 8                    0    -3.02038   0.3079   -1.17915 
 1                    0    -1.81023   0.16985  -1.16176 
 1                    0    -3.47867  -0.50052  -1.45168 
 

 GradGradGradGradGradGradGradGradGradGradGradGradGradGradGradGradGradGrad
 Berny optimization.
 Initialization pass.
 No Z-matrix variables, so optimization will use Cartesian coordinates.
 Trust Radius=3.00D-01 FncErr=1.00D-07 GrdErr=1.00D-06
 Number of steps in this run=    180 maximum allowed number of steps=    180.
 Search for a saddle point of order  1.
 GradGradGradGradGradGradGradGradGradGradGradGradGradGradGradGradGradGrad

 ---------------------------------------------------------------------------------------------------
                            Z-MATRIX (ANGSTROMS AND DEGREES)
   CD    Cent   Atom    N1       Length/X        N2       Alpha/Y        N3        Beta/Z          J
 ---------------------------------------------------------------------------------------------------
      1      1  O        0  -0.613403          0.203288         -0.989185
      2      2  C        0   1.239847         -0.817676          0.238795
      3      3  C        0   1.119934          1.706025          0.118407
      4      4  C        0   1.969944          0.461962         -0.166266
      5      5  C        0  -0.394625          1.420181          0.183563
      6      6  C        0   0.017966         -1.047154         -0.668647
      7      7  H        0   2.151890          0.433845         -1.252670
      8      8  H        0   0.401571         -1.457814         -1.614573
      9      9  H        0   0.922557         -0.726843          1.284708
     10     10  H        0  -0.968572          2.169454         -0.387064
     11     11  C        0  -0.968813         -2.043315         -0.043075
     12     12  H        0  -1.337497         -1.641962          0.903777
     13     13  H        0  -1.832189         -2.207711         -0.706288
     14     14  H        0   1.398125          2.067949          1.116960
     15     15  O        0  -0.860688          1.031853          1.328147
     16     16  O        0  -0.330437         -3.285383          0.267007
     17     17  H        0  -0.134671         -3.733104         -0.572080
     18     18  O        0   1.423211          2.666656         -0.886212
     19     19  H        0   1.172893          3.540270         -0.550765
     20     20  O        0   3.191306          0.573880          0.544340
     21     21  H        0   3.587249         -0.314447          0.512129
     22     22  O        0   2.168281         -1.892966          0.095960
     23     23  H        0   1.731301         -2.667542          0.490409
     24     24  O        0  -3.286424          0.996980          1.125130
     25     25  H        0  -3.281622          0.584599         -0.087598
     26     26  H        0  -2.160609          1.055371          1.317128
     27     27  H        0  -3.638771          0.330833          1.734404
     28     28  O        0  -3.020382          0.307897         -1.179149
     29     29  H        0  -1.810230          0.169849         -1.161764
     30     30  H        0  -3.478666         -0.500524         -1.451682
 ---------------------------------------------------------------------------------------------------
                         Z-Matrix orientation:                         
 ---------------------------------------------------------------------
 Center     Atomic      Atomic             Coordinates (Angstroms)
 Number     Number       Type             X           Y           Z
 ---------------------------------------------------------------------
      1          8           0       -0.613403    0.203288   -0.989185
      2          6           0        1.239847   -0.817676    0.238795
      3          6           0        1.119934    1.706025    0.118407
      4          6           0        1.969944    0.461962   -0.166266
      5          6           0       -0.394625    1.420181    0.183563
      6          6           0        0.017966   -1.047154   -0.668647
      7          1           0        2.151890    0.433845   -1.252670
      8          1           0        0.401571   -1.457814   -1.614573
      9          1           0        0.922557   -0.726843    1.284708
     10          1           0       -0.968572    2.169454   -0.387064
     11          6           0       -0.968813   -2.043315   -0.043075
     12          1           0       -1.337497   -1.641962    0.903777
     13          1           0       -1.832189   -2.207711   -0.706288
     14          1           0        1.398125    2.067949    1.116960
     15          8           0       -0.860688    1.031853    1.328147
     16          8           0       -0.330437   -3.285383    0.267007
     17          1           0       -0.134671   -3.733104   -0.572080
     18          8           0        1.423211    2.666656   -0.886212
     19          1           0        1.172893    3.540270   -0.550765
     20          8           0        3.191306    0.573880    0.544340
     21          1           0        3.587249   -0.314447    0.512129
     22          8           0        2.168281   -1.892966    0.095960
     23          1           0        1.731301   -2.667542    0.490409
     24          8           0       -3.286424    0.996980    1.125130
     25          1           0       -3.281622    0.584599   -0.087598
     26          1           0       -2.160609    1.055371    1.317128
     27          1           0       -3.638771    0.330833    1.734404
     28          8           0       -3.020382    0.307897   -1.179149
     29          1           0       -1.810230    0.169849   -1.161764
     30          1           0       -3.478666   -0.500524   -1.451682
 ---------------------------------------------------------------------
                    Distance matrix (angstroms):
                    1          2          3          4          5
     1  O    0.000000
     2  C    2.446393   0.000000
     3  C    2.547437   2.529415   0.000000
     4  C    2.723562   1.527936   1.533378   0.000000
     5  C    1.704122   2.771742   1.542673   2.575219   0.000000
     6  C    1.437003   1.539189   3.068189   2.517943   2.642770
     7  H    2.787369   2.150022   2.136171   1.101893   3.085508
     8  H    2.044637   2.132477   3.678198   2.871050   3.485696
     9  H    2.897396   1.096749   2.705192   2.148395   2.749036
    10  H    2.086745   3.767195   2.198209   3.405754   1.102924
    11  C    2.463466   2.541618   4.294938   3.863662   3.518076
    12  H    2.740906   2.786458   4.226676   4.063330   3.283966
    13  H    2.716319   3.501826   4.971165   4.677071   4.002502
    14  H    3.458186   3.020440   1.097947   2.133739   2.122448
    15  O    2.473398   3.003280   2.416783   3.251234   1.295410
    16  O    3.718725   2.925092   5.199982   4.418379   4.706742
    17  H    3.987273   3.323633   5.624494   4.710909   5.214875
    18  O    3.197903   3.666038   1.422690   2.382838   2.450030
    19  H    3.810317   4.429400   1.953215   3.202985   2.736992
    20  O    4.118841   2.416191   2.398698   1.417467   3.702065
    21  H    4.490821   2.416246   3.213249   1.917995   4.355710
    22  O    3.648231   1.427810   3.748636   2.377769   4.189643
    23  H    3.991053   1.930503   4.431731   3.206551   4.617705
    24  O    3.499331   4.956379   4.575175   5.439058   3.070529
    25  H    2.842121   4.745165   4.546837   5.253587   3.017694
    26  H    2.904991   4.029170   3.552780   4.428776   2.129966
    27  H    4.072721   5.230376   5.210362   5.923464   3.757163
    28  O    2.416729   4.628934   4.558578   5.094411   3.160500
    29  H    1.209668   3.498534   3.547469   3.919957   2.318873
    30  H    2.986467   5.022217   5.336774   5.680319   3.984274
                    6          7          8          9         10
     6  C    0.000000
     7  H    2.662343   0.000000
     8  H    1.100259   2.602492   0.000000
     9  H    2.176346   3.049056   3.035058   0.000000
    10  H    3.376257   3.674084   4.067080   3.841839   0.000000
    11  C    1.535386   4.163920   2.165726   2.659584   4.226790
    12  H    2.159536   4.597288   3.066000   2.467873   4.040949
    13  H    2.184350   4.811365   2.525274   3.707514   4.472953
    14  H    3.846700   2.975501   4.570054   2.839924   2.806002
    15  O    3.013551   4.011715   4.056025   2.504967   2.061001
    16  O    2.450817   4.722713   2.723268   3.025200   5.530847
    17  H    2.692016   4.801565   2.559549   3.688224   5.964043
    18  O    3.976736   2.377122   4.311092   4.059481   2.493388
    19  H    4.732041   3.331814   5.167927   4.651869   2.547902
    20  O    3.764197   2.080683   4.070787   2.717949   4.551698
    21  H    3.830258   2.394726   3.997336   2.804912   5.266291
    22  O    2.433901   2.689446   2.497307   2.079614   5.155232
    23  H    2.627658   3.582432   2.768135   2.247508   5.608547
    24  O    4.279616   5.962073   5.208963   4.551104   3.005639
    25  H    3.726596   5.559062   4.479845   4.612833   2.819866
    26  H    3.620788   5.058439   4.634192   3.561355   2.359323
    27  H    4.587508   6.516516   5.544301   4.703894   3.874418
    28  O    3.365759   5.174328   3.875189   4.763197   2.881444
    29  H    2.250902   3.971946   2.783233   3.775898   2.303686
    30  H    3.624691   5.711025   3.999897   5.187467   3.816119
                   11         12         13         14         15
    11  C    0.000000
    12  H    1.092493   0.000000
    13  H    1.101043   1.776823   0.000000
    14  H    4.883704   4.614381   5.660427   0.000000
    15  O    3.368768   2.748950   3.946836   2.494059   0.000000
    16  O    1.430527   2.029896   2.089004   5.689333   4.477244
    17  H    1.957301   2.828042   2.286133   6.233341   5.181002
    18  O    5.349438   5.421232   5.864252   2.090880   3.576613
    19  H    6.001756   5.939131   6.487988   2.236015   3.736030
    20  O    4.949884   5.054622   5.876804   2.403255   4.152439
    21  H    4.904583   5.115546   5.868500   3.291488   4.718321
    22  O    3.143771   3.606390   4.092240   4.162262   4.387198
    23  H    2.822212   3.261933   3.787082   4.788366   4.594098
    24  O    3.997426   3.288058   3.967233   4.805418   2.434467
    25  H    3.501000   3.117695   3.206342   5.054831   2.839946
    26  H    3.587811   2.850259   3.853541   3.705397   1.300180
    27  H    3.990575   3.142885   3.957894   5.363686   2.893824
    28  O    3.320813   3.312496   2.822000   5.281392   3.387466
    29  H    2.618691   2.787937   2.420895   4.369086   2.800774
    30  H    3.265538   3.381667   2.486159   6.080959   4.114540
                   16         17         18         19         20
    16  O    0.000000
    17  H    0.971002   0.000000
    18  O    6.311257   6.594134   0.000000
    19  H    7.036923   7.390003   0.968703   0.000000
    20  O    5.231969   5.555054   3.090688   3.751362   0.000000
    21  H    4.922886   5.168696   3.940228   4.670942   0.973105
    22  O    2.865602   3.022577   4.723340   5.561394   2.707943
    23  H    2.163885   2.397114   5.517579   6.319240   3.555466
    24  O    5.273791   5.931927   5.386462   5.400227   6.517462
    25  H    4.879754   5.364754   5.206553   5.365931   6.503711
    26  H    4.826430   5.532000   4.504965   4.558068   5.428815
    27  H    5.116185   5.840734   6.160143   6.218890   6.937238
    28  O    4.715807   5.002554   5.039353   5.331665   6.451839
    29  H    4.021169   4.288154   4.094523   4.542255   5.299943
    30  H    4.541000   4.733453   5.863376   6.227092   7.044642
                   21         22         23         24         25
    21  H    0.000000
    22  O    2.162958   0.000000
    23  H    2.997010   0.972887   0.000000
    24  O    7.024457   6.258177   6.245731   0.000000
    25  H    6.953369   5.989446   6.003325   1.280933   0.000000
    26  H    5.963413   5.378032   5.448900   1.143561   1.857835
    27  H    7.357018   6.430524   6.274986   0.969079   1.873938
    28  O    6.848980   5.778575   5.849714   2.419776   1.155982
    29  H    5.671793   4.654635   4.829379   2.844851   1.868380
    30  H    7.336098   6.018480   5.967532   2.986542   1.754150
                   26         27         28         29         30
    26  H    0.000000
    27  H    1.698245   0.000000
    28  O    2.743962   2.978544   0.000000
    29  H    2.655526   3.428887   1.218125   0.000000
    30  H    3.438661   3.296655   0.968423   1.821299   0.000000
 Stoichiometry    C6H16O8
 Framework group  C1[X(C6H16O8)]
 Deg. of freedom    84
 Full point group                 C1      NOp   1
 Largest Abelian subgroup         C1      NOp   1
 Largest concise Abelian subgroup C1      NOp   1
                         Standard orientation:                         
 ---------------------------------------------------------------------
 Center     Atomic      Atomic             Coordinates (Angstroms)
 Number     Number       Type             X           Y           Z
 ---------------------------------------------------------------------
      1          8           0        0.613403   -0.203288   -0.989185
      2          6           0       -1.239847    0.817676    0.238795
      3          6           0       -1.119934   -1.706025    0.118407
      4          6           0       -1.969944   -0.461962   -0.166266
      5          6           0        0.394625   -1.420181    0.183563
      6          6           0       -0.017966    1.047154   -0.668647
      7          1           0       -2.151890   -0.433845   -1.252670
      8          1           0       -0.401571    1.457814   -1.614573
      9          1           0       -0.922557    0.726843    1.284708
     10          1           0        0.968572   -2.169454   -0.387064
     11          6           0        0.968813    2.043315   -0.043075
     12          1           0        1.337497    1.641962    0.903777
     13          1           0        1.832188    2.207711   -0.706288
     14          1           0       -1.398125   -2.067949    1.116960
     15          8           0        0.860688   -1.031853    1.328147
     16          8           0        0.330436    3.285383    0.267007
     17          1           0        0.134670    3.733104   -0.572080
     18          8           0       -1.423211   -2.666656   -0.886212
     19          1           0       -1.172892   -3.540270   -0.550765
     20          8           0       -3.191306   -0.573881    0.544340
     21          1           0       -3.587249    0.314446    0.512129
     22          8           0       -2.168281    1.892966    0.095960
     23          1           0       -1.731302    2.667542    0.490409
     24          8           0        3.286424   -0.996979    1.125130
     25          1           0        3.281622   -0.584598   -0.087598
     26          1           0        2.160609   -1.055371    1.317128
     27          1           0        3.638771   -0.330832    1.734404
     28          8           0        3.020382   -0.307896   -1.179149
     29          1           0        1.810230   -0.169849   -1.161764
     30          1           0        3.478666    0.500525   -1.451682
 ---------------------------------------------------------------------
 Rotational constants (GHZ):      0.7196204      0.5570457      0.3744335
 Standard basis: 6-31G(d) (6D, 7F)
 There are   242 symmetry adapted cartesian basis functions of A   symmetry.
 There are   242 symmetry adapted basis functions of A   symmetry.
   242 basis functions,   456 primitive gaussians,   242 cartesian basis functions
    58 alpha electrons       58 beta electrons
       nuclear repulsion energy      1117.8350354779 Hartrees.
 NAtoms=   30 NActive=   30 NUniq=   30 SFac= 1.00D+00 NAtFMM=   60 NAOKFM=F Big=F
 Integral buffers will be    131072 words long.
 Raffenetti 2 integral format.
 Two-electron integral symmetry is turned on.
 One-electron integrals computed using PRISM.
 NBasis=   242 RedAO= T EigKep=  1.30D-03  NBF=   242
 NBsUse=   242 1.00D-06 EigRej= -1.00D+00 NBFU=   242
 ExpMin= 1.61D-01 ExpMax= 5.48D+03 ExpMxC= 8.25D+02 IAcc=1 IRadAn=         1 AccDes= 0.00D+00
 Harris functional with IExCor=  402 and IRadAn=       1 diagonalized for initial guess.
 HarFok:  IExCor=  402 AccDes= 0.00D+00 IRadAn=         1 IDoV= 1 UseB2=F ITyADJ=14
 ICtDFT=  3500011 ScaDFX=  1.000000  1.000000  1.000000  1.000000
 FoFCou: FMM=F IPFlag=           0 FMFlag=      100000 FMFlg1=           0
         NFxFlg=           0 DoJE=T BraDBF=F KetDBF=T FulRan=T
         wScrn=  0.000000 ICntrl=     500 IOpCl=  0 I1Cent=   200000004 NGrid=           0
         NMat0=    1 NMatS0=      1 NMatT0=    0 NMatD0=    1 NMtDS0=    0 NMtDT0=    0
 Petite list used in FoFCou.
 Requested convergence on RMS density matrix=1.00D-08 within 128 cycles.
 Requested convergence on MAX density matrix=1.00D-06.
 Requested convergence on             energy=1.00D-06.
 No special actions if energy rises.
 Integral accuracy reduced to 1.0D-05 until final iterations.
 Initial convergence to 1.0D-05 achieved.  Increase integral accuracy.
 SCF Done:  E(RB3LYP) =  -839.954477362     A.U. after   14 cycles
            NFock= 14  Conv=0.71D-08     -V/T= 2.0086
 DoSCS=F DFT=T ScalE2(SS,OS)=  1.000000  1.000000
 Range of M.O.s used for correlation:     1   242
 NBasis=   242 NAE=    58 NBE=    58 NFC=     0 NFV=     0
 NROrb=    242 NOA=    58 NOB=    58 NVA=   184 NVB=   184
 Symmetrizing basis deriv contribution to polar:
 IMax=3 JMax=2 DiffMx= 0.00D+00
 G2DrvN: will do    31 centers at a time, making    1 passes.
 Calling FoFCou, ICntrl=  3107 FMM=F I1Cent=   0 AccDes= 0.00D+00.
 End of G2Drv F.D. properties file   721 does not exist.
 End of G2Drv F.D. properties file   722 does not exist.
 End of G2Drv F.D. properties file   788 does not exist.
          IDoAtm=111111111111111111111111111111
          Differentiating once with respect to nuclear coordinates.
          There are    93 degrees of freedom in the 1st order CPHF.  IDoFFX=6 NUNeed=     0.
     87 vectors produced by pass  0 Test12= 1.15D-14 1.08D-09 XBig12= 1.23D-01 6.28D-02.
 AX will form    87 AO Fock derivatives at one time.
     87 vectors produced by pass  1 Test12= 1.15D-14 1.08D-09 XBig12= 1.28D-02 1.62D-02.
     87 vectors produced by pass  2 Test12= 1.15D-14 1.08D-09 XBig12= 1.31D-04 1.82D-03.
     87 vectors produced by pass  3 Test12= 1.15D-14 1.08D-09 XBig12= 3.20D-07 5.40D-05.
     87 vectors produced by pass  4 Test12= 1.15D-14 1.08D-09 XBig12= 4.64D-10 1.67D-06.
     68 vectors produced by pass  5 Test12= 1.15D-14 1.08D-09 XBig12= 3.90D-13 5.76D-08.
      1 vectors produced by pass  6 Test12= 1.15D-14 1.08D-09 XBig12= 3.66D-16 1.90D-09.
 InvSVY:  IOpt=1 It=  1 EMax= 4.44D-16
 Solved reduced A of dimension   504 with    93 vectors.
 End of Minotr F.D. properties file   721 does not exist.
 End of Minotr F.D. properties file   722 does not exist.
 End of Minotr F.D. properties file   788 does not exist.

 **********************************************************************

            Population analysis using the SCF density.

 **********************************************************************

 Orbital symmetries:
       Occupied  (A) (A) (A) (A) (A) (A) (A) (A) (A) (A) (A) (A)
                 (A) (A) (A) (A) (A) (A) (A) (A) (A) (A) (A) (A)
                 (A) (A) (A) (A) (A) (A) (A) (A) (A) (A) (A) (A)
                 (A) (A) (A) (A) (A) (A) (A) (A) (A) (A) (A) (A)
                 (A) (A) (A) (A) (A) (A) (A) (A) (A) (A)
       Virtual   (A) (A) (A) (A) (A) (A) (A) (A) (A) (A) (A) (A)
                 (A) (A) (A) (A) (A) (A) (A) (A) (A) (A) (A) (A)
                 (A) (A) (A) (A) (A) (A) (A) (A) (A) (A) (A) (A)
                 (A) (A) (A) (A) (A) (A) (A) (A) (A) (A) (A) (A)
                 (A) (A) (A) (A) (A) (A) (A) (A) (A) (A) (A) (A)
                 (A) (A) (A) (A) (A) (A) (A) (A) (A) (A) (A) (A)
                 (A) (A) (A) (A) (A) (A) (A) (A) (A) (A) (A) (A)
                 (A) (A) (A) (A) (A) (A) (A) (A) (A) (A) (A) (A)
                 (A) (A) (A) (A) (A) (A) (A) (A) (A) (A) (A) (A)
                 (A) (A) (A) (A) (A) (A) (A) (A) (A) (A) (A) (A)
                 (A) (A) (A) (A) (A) (A) (A) (A) (A) (A) (A) (A)
                 (A) (A) (A) (A) (A) (A) (A) (A) (A) (A) (A) (A)
                 (A) (A) (A) (A) (A) (A) (A) (A) (A) (A) (A) (A)
                 (A) (A) (A) (A) (A) (A) (A) (A) (A) (A) (A) (A)
                 (A) (A) (A) (A) (A) (A) (A) (A) (A) (A) (A) (A)
                 (A) (A) (A) (A)
 The electronic state is 1-A.
 Alpha  occ. eigenvalues --  -19.18174 -19.17386 -19.17028 -19.15229 -19.14847
 Alpha  occ. eigenvalues --  -19.14275 -19.12927 -19.11278 -10.28213 -10.25545
 Alpha  occ. eigenvalues --  -10.25154 -10.23569 -10.23255 -10.22864  -1.05944
 Alpha  occ. eigenvalues --   -1.04863  -1.03262  -1.02189  -1.01510  -1.00644
 Alpha  occ. eigenvalues --   -0.99718  -0.97483  -0.78004  -0.75538  -0.69143
 Alpha  occ. eigenvalues --   -0.63363  -0.62825  -0.56754  -0.56108  -0.55119
 Alpha  occ. eigenvalues --   -0.53813  -0.53437  -0.52443  -0.51370  -0.48851
 Alpha  occ. eigenvalues --   -0.46785  -0.45883  -0.44876  -0.43477  -0.42727
 Alpha  occ. eigenvalues --   -0.42135  -0.41359  -0.39515  -0.38525  -0.38097
 Alpha  occ. eigenvalues --   -0.36316  -0.36020  -0.34684  -0.34086  -0.32563
 Alpha  occ. eigenvalues --   -0.31346  -0.30959  -0.29716  -0.28359  -0.27057
 Alpha  occ. eigenvalues --   -0.25964  -0.25666  -0.24083
 Alpha virt. eigenvalues --    0.03287   0.03754   0.05573   0.07749   0.08412
 Alpha virt. eigenvalues --    0.09120   0.11229   0.12925   0.13303   0.14097
 Alpha virt. eigenvalues --    0.15249   0.16612   0.17581   0.17953   0.19793
 Alpha virt. eigenvalues --    0.20091   0.21048   0.22441   0.24056   0.25315
 Alpha virt. eigenvalues --    0.26230   0.27780   0.28324   0.30261   0.31223
 Alpha virt. eigenvalues --    0.31754   0.32417   0.37161   0.51345   0.52369
 Alpha virt. eigenvalues --    0.53857   0.55002   0.57105   0.58126   0.59633
 Alpha virt. eigenvalues --    0.60808   0.62249   0.63096   0.65290   0.65735
 Alpha virt. eigenvalues --    0.67752   0.69955   0.70992   0.71970   0.73432
 Alpha virt. eigenvalues --    0.75442   0.77200   0.77608   0.78806   0.80612
 Alpha virt. eigenvalues --    0.81923   0.82279   0.83600   0.83848   0.85038
 Alpha virt. eigenvalues --    0.85425   0.85717   0.86902   0.88523   0.89470
 Alpha virt. eigenvalues --    0.90632   0.92098   0.94277   0.94461   0.96585
 Alpha virt. eigenvalues --    0.97469   0.98415   0.99943   1.02247   1.02644
 Alpha virt. eigenvalues --    1.02881   1.04917   1.06335   1.07730   1.08756
 Alpha virt. eigenvalues --    1.10885   1.12517   1.13926   1.14601   1.15344
 Alpha virt. eigenvalues --    1.18577   1.19817   1.21650   1.24793   1.27376
 Alpha virt. eigenvalues --    1.28961   1.31746   1.32578   1.36563   1.39824
 Alpha virt. eigenvalues --    1.41324   1.45291   1.46816   1.47948   1.53342
 Alpha virt. eigenvalues --    1.55512   1.56165   1.57292   1.58525   1.60743
 Alpha virt. eigenvalues --    1.61844   1.62671   1.67617   1.68210   1.69830
 Alpha virt. eigenvalues --    1.70527   1.72296   1.72888   1.72959   1.73832
 Alpha virt. eigenvalues --    1.75834   1.77506   1.78391   1.79680   1.80259
 Alpha virt. eigenvalues --    1.82218   1.83620   1.84238   1.85678   1.86680
 Alpha virt. eigenvalues --    1.89164   1.90529   1.90952   1.92656   1.95771
 Alpha virt. eigenvalues --    1.99218   2.00656   2.01341   2.04330   2.05099
 Alpha virt. eigenvalues --    2.08447   2.09467   2.10688   2.12854   2.15326
 Alpha virt. eigenvalues --    2.18308   2.20949   2.24696   2.27054   2.27756
 Alpha virt. eigenvalues --    2.32246   2.32400   2.37578   2.39104   2.40569
 Alpha virt. eigenvalues --    2.42637   2.46633   2.48770   2.50148   2.52688
 Alpha virt. eigenvalues --    2.54607   2.55977   2.56395   2.58038   2.61577
 Alpha virt. eigenvalues --    2.62149   2.65831   2.68430   2.71095   2.75050
 Alpha virt. eigenvalues --    2.75900   2.81652   2.84279   2.86787   2.91309
 Alpha virt. eigenvalues --    2.95520   2.96441   3.00556   3.06652   3.09716
 Alpha virt. eigenvalues --    3.73146   3.75551   3.80032   3.87003   3.89619
 Alpha virt. eigenvalues --    3.94783   4.07690   4.12116   4.25106   4.39233
 Alpha virt. eigenvalues --    4.45397   4.52315   4.65831   4.85493
          Condensed to atoms (all electrons):
               1          2          3          4          5          6
     1  O    8.614103  -0.029712  -0.018852  -0.002383   0.058422   0.129761
     2  C   -0.029712   5.034036  -0.025392   0.312719   0.007399   0.288168
     3  C   -0.018852  -0.025392   4.967578   0.329150   0.303778  -0.014484
     4  C   -0.002383   0.312719   0.329150   4.853638  -0.042399  -0.031107
     5  C    0.058422   0.007399   0.303778  -0.042399   4.885295  -0.016505
     6  C    0.129761   0.288168  -0.014484  -0.031107  -0.016505   5.017138
     7  H    0.001413  -0.057659  -0.052673   0.354712  -0.000195  -0.001383
     8  H   -0.032805  -0.047321   0.000387  -0.007024   0.001788   0.360153
     9  H    0.001730   0.347347  -0.008552  -0.037454  -0.002209  -0.048756
    10  H   -0.037251   0.000356  -0.066335   0.003231   0.350179   0.004450
    11  C   -0.023250  -0.030018  -0.000176   0.003583  -0.000451   0.330404
    12  H    0.000374  -0.009896  -0.000020  -0.000069   0.001233  -0.035363
    13  H    0.000465   0.005376  -0.000017  -0.000092  -0.000103  -0.048828
    14  H    0.002570  -0.002902   0.346760  -0.028422  -0.059702   0.000644
    15  O   -0.056055  -0.005184  -0.045902   0.001545   0.277246   0.008738
    16  O    0.001469   0.001916  -0.000005   0.000164   0.000030  -0.041373
    17  H    0.000024  -0.002079   0.000001  -0.000011  -0.000001  -0.000990
    18  O    0.001867   0.002470   0.214558  -0.038552  -0.040839   0.000238
    19  H   -0.000108  -0.000300  -0.022504   0.006887  -0.000964  -0.000003
    20  O    0.000048  -0.030523  -0.039283   0.242292   0.002370   0.003279
    21  H   -0.000016  -0.014510   0.006723  -0.033292  -0.000285   0.000952
    22  O    0.001355   0.210506   0.002471  -0.037859   0.000102  -0.041943
    23  H    0.000003  -0.022133  -0.000240   0.005613   0.000037  -0.003812
    24  O   -0.000994  -0.000010  -0.000091   0.000001   0.009568  -0.000014
    25  H    0.004765   0.000019   0.000109  -0.000003  -0.000078  -0.000381
    26  H    0.003077   0.000071   0.002133  -0.000098  -0.015760  -0.000507
    27  H    0.000012   0.000002   0.000000   0.000000  -0.000346  -0.000030
    28  O   -0.095962  -0.000095  -0.000043   0.000009   0.004707   0.001830
    29  H    0.115783   0.002058   0.001375   0.000031  -0.004329  -0.009200
    30  H    0.004576   0.000022  -0.000003  -0.000000  -0.000082  -0.000714
               7          8          9         10         11         12
     1  O    0.001413  -0.032805   0.001730  -0.037251  -0.023250   0.000374
     2  C   -0.057659  -0.047321   0.347347   0.000356  -0.030018  -0.009896
     3  C   -0.052673   0.000387  -0.008552  -0.066335  -0.000176  -0.000020
     4  C    0.354712  -0.007024  -0.037454   0.003231   0.003583  -0.000069
     5  C   -0.000195   0.001788  -0.002209   0.350179  -0.000451   0.001233
     6  C   -0.001383   0.360153  -0.048756   0.004450   0.330404  -0.035363
     7  H    0.638759   0.004920   0.007165  -0.000244   0.000101   0.000008
     8  H    0.004920   0.625515   0.006818  -0.000207  -0.057467   0.005330
     9  H    0.007165   0.006818   0.602917   0.000410  -0.008643   0.004945
    10  H   -0.000244  -0.000207   0.000410   0.650112  -0.000193   0.000108
    11  C    0.000101  -0.057467  -0.008643  -0.000193   4.975540   0.361758
    12  H    0.000008   0.005330   0.004945   0.000108   0.361758   0.551133
    13  H    0.000008  -0.005834   0.000113   0.000011   0.349952  -0.040733
    14  H    0.006866   0.000018   0.003654   0.003962   0.000019  -0.000001
    15  O    0.000025  -0.000157   0.012352  -0.042933  -0.003586   0.008350
    16  O   -0.000012   0.001099   0.000155   0.000001   0.219230  -0.030451
    17  H    0.000002   0.005480   0.000186  -0.000000  -0.029639   0.006595
    18  O    0.001922   0.000021   0.000030   0.009070  -0.000003   0.000000
    19  H   -0.000073   0.000000   0.000010   0.002726  -0.000000   0.000000
    20  O   -0.042032  -0.000063   0.001026  -0.000069  -0.000049  -0.000002
    21  H   -0.001053   0.000013   0.000323   0.000006  -0.000017  -0.000000
    22  O   -0.001477   0.005016  -0.036526   0.000003  -0.000924   0.000146
    23  H   -0.000271  -0.000455  -0.005171  -0.000000  -0.003495  -0.000122
    24  O   -0.000000  -0.000001   0.000011   0.003583  -0.000581   0.002288
    25  H   -0.000000   0.000009  -0.000010  -0.001268   0.000187   0.000346
    26  H    0.000002   0.000008  -0.000057  -0.006635   0.000401  -0.000022
    27  H    0.000000   0.000000  -0.000008  -0.000163   0.000063   0.000628
    28  O    0.000002  -0.000096   0.000005   0.001738   0.002970  -0.000376
    29  H   -0.000058  -0.001208  -0.000206  -0.001957  -0.000873  -0.000083
    30  H   -0.000000   0.000033  -0.000001  -0.000025  -0.000011   0.000128
              13         14         15         16         17         18
     1  O    0.000465   0.002570  -0.056055   0.001469   0.000024   0.001867
     2  C    0.005376  -0.002902  -0.005184   0.001916  -0.002079   0.002470
     3  C   -0.000017   0.346760  -0.045902  -0.000005   0.000001   0.214558
     4  C   -0.000092  -0.028422   0.001545   0.000164  -0.000011  -0.038552
     5  C   -0.000103  -0.059702   0.277246   0.000030  -0.000001  -0.040839
     6  C   -0.048828   0.000644   0.008738  -0.041373  -0.000990   0.000238
     7  H    0.000008   0.006866   0.000025  -0.000012   0.000002   0.001922
     8  H   -0.005834   0.000018  -0.000157   0.001099   0.005480   0.000021
     9  H    0.000113   0.003654   0.012352   0.000155   0.000186   0.000030
    10  H    0.000011   0.003962  -0.042933   0.000001  -0.000000   0.009070
    11  C    0.349952   0.000019  -0.003586   0.219230  -0.029639  -0.000003
    12  H   -0.040733  -0.000001   0.008350  -0.030451   0.006595   0.000000
    13  H    0.654095  -0.000000   0.000138  -0.028390  -0.008566  -0.000000
    14  H   -0.000000   0.597596   0.006554  -0.000000   0.000000  -0.031381
    15  O    0.000138   0.006554   8.417353   0.000020  -0.000003   0.001545
    16  O   -0.028390  -0.000000   0.000020   8.231819   0.233414   0.000000
    17  H   -0.008566   0.000000  -0.000003   0.233414   0.394063   0.000000
    18  O   -0.000000  -0.031381   0.001545   0.000000   0.000000   8.274415
    19  H    0.000000  -0.007600  -0.000051   0.000000  -0.000000   0.231234
    20  O    0.000000   0.001394  -0.000034  -0.000000   0.000000   0.001304
    21  H    0.000001  -0.000046   0.000005   0.000006  -0.000001  -0.000176
    22  O   -0.000227  -0.000104   0.000060  -0.009787   0.002574  -0.000007
    23  H    0.000412   0.000006  -0.000001   0.036579  -0.002153   0.000001
    24  O   -0.000064   0.000004  -0.095927   0.000001  -0.000000   0.000000
    25  H    0.000015  -0.000003   0.005425   0.000000   0.000000  -0.000001
    26  H   -0.000023  -0.000029   0.128052  -0.000000   0.000000  -0.000044
    27  H    0.000004  -0.000001   0.004807   0.000000   0.000000  -0.000000
    28  O    0.002801   0.000003  -0.001605   0.000020   0.000002   0.000001
    29  H    0.003893  -0.000078   0.004249  -0.000026  -0.000023  -0.000086
    30  H    0.004323  -0.000000   0.000027  -0.000002  -0.000002  -0.000000
              19         20         21         22         23         24
     1  O   -0.000108   0.000048  -0.000016   0.001355   0.000003  -0.000994
     2  C   -0.000300  -0.030523  -0.014510   0.210506  -0.022133  -0.000010
     3  C   -0.022504  -0.039283   0.006723   0.002471  -0.000240  -0.000091
     4  C    0.006887   0.242292  -0.033292  -0.037859   0.005613   0.000001
     5  C   -0.000964   0.002370  -0.000285   0.000102   0.000037   0.009568
     6  C   -0.000003   0.003279   0.000952  -0.041943  -0.003812  -0.000014
     7  H   -0.000073  -0.042032  -0.001053  -0.001477  -0.000271  -0.000000
     8  H    0.000000  -0.000063   0.000013   0.005016  -0.000455  -0.000001
     9  H    0.000010   0.001026   0.000323  -0.036526  -0.005171   0.000011
    10  H    0.002726  -0.000069   0.000006   0.000003  -0.000000   0.003583
    11  C   -0.000000  -0.000049  -0.000017  -0.000924  -0.003495  -0.000581
    12  H    0.000000  -0.000002  -0.000000   0.000146  -0.000122   0.002288
    13  H    0.000000   0.000000   0.000001  -0.000227   0.000412  -0.000064
    14  H   -0.007600   0.001394  -0.000046  -0.000104   0.000006   0.000004
    15  O   -0.000051  -0.000034   0.000005   0.000060  -0.000001  -0.095927
    16  O    0.000000  -0.000000   0.000006  -0.009787   0.036579   0.000001
    17  H   -0.000000   0.000000  -0.000001   0.002574  -0.002153  -0.000000
    18  O    0.231234   0.001304  -0.000176  -0.000007   0.000001   0.000000
    19  H    0.396149  -0.000217   0.000023   0.000001  -0.000000   0.000000
    20  O   -0.000217   8.283819   0.235091  -0.008144   0.000150  -0.000000
    21  H    0.000023   0.235091   0.371195   0.027547  -0.000691   0.000000
    22  O    0.000001  -0.008144   0.027547   8.330064   0.225628   0.000000
    23  H   -0.000000   0.000150  -0.000691   0.225628   0.361633  -0.000000
    24  O    0.000000  -0.000000   0.000000   0.000000  -0.000000   8.524784
    25  H   -0.000000   0.000000  -0.000000  -0.000000   0.000000   0.130711
    26  H   -0.000007   0.000001  -0.000000  -0.000000   0.000000   0.133513
    27  H    0.000000   0.000000  -0.000000  -0.000000   0.000000   0.227580
    28  O   -0.000000   0.000000  -0.000000   0.000000  -0.000000  -0.100569
    29  H    0.000001   0.000001   0.000000  -0.000015   0.000003   0.004918
    30  H    0.000000   0.000000   0.000000  -0.000000   0.000000   0.004330
              25         26         27         28         29         30
     1  O    0.004765   0.003077   0.000012  -0.095962   0.115783   0.004576
     2  C    0.000019   0.000071   0.000002  -0.000095   0.002058   0.000022
     3  C    0.000109   0.002133   0.000000  -0.000043   0.001375  -0.000003
     4  C   -0.000003  -0.000098   0.000000   0.000009   0.000031  -0.000000
     5  C   -0.000078  -0.015760  -0.000346   0.004707  -0.004329  -0.000082
     6  C   -0.000381  -0.000507  -0.000030   0.001830  -0.009200  -0.000714
     7  H   -0.000000   0.000002   0.000000   0.000002  -0.000058  -0.000000
     8  H    0.000009   0.000008   0.000000  -0.000096  -0.001208   0.000033
     9  H   -0.000010  -0.000057  -0.000008   0.000005  -0.000206  -0.000001
    10  H   -0.001268  -0.006635  -0.000163   0.001738  -0.001957  -0.000025
    11  C    0.000187   0.000401   0.000063   0.002970  -0.000873  -0.000011
    12  H    0.000346  -0.000022   0.000628  -0.000376  -0.000083   0.000128
    13  H    0.000015  -0.000023   0.000004   0.002801   0.003893   0.004323
    14  H   -0.000003  -0.000029  -0.000001   0.000003  -0.000078  -0.000000
    15  O    0.005425   0.128052   0.004807  -0.001605   0.004249   0.000027
    16  O    0.000000  -0.000000   0.000000   0.000020  -0.000026  -0.000002
    17  H    0.000000   0.000000   0.000000   0.000002  -0.000023  -0.000002
    18  O   -0.000001  -0.000044  -0.000000   0.000001  -0.000086  -0.000000
    19  H   -0.000000  -0.000007   0.000000  -0.000000   0.000001   0.000000
    20  O    0.000000   0.000001   0.000000   0.000000   0.000001   0.000000
    21  H   -0.000000  -0.000000  -0.000000  -0.000000   0.000000   0.000000
    22  O   -0.000000  -0.000000  -0.000000   0.000000  -0.000015  -0.000000
    23  H    0.000000   0.000000   0.000000  -0.000000   0.000003   0.000000
    24  O    0.130711   0.133513   0.227580  -0.100569   0.004918   0.004330
    25  H    0.294661  -0.010742  -0.004827   0.126935  -0.007254  -0.002204
    26  H   -0.010742   0.302841  -0.006339   0.006223  -0.000837  -0.000204
    27  H   -0.004827  -0.006339   0.379744   0.004275  -0.000116  -0.000375
    28  O    0.126935   0.006223   0.004275   8.528105   0.129124   0.229392
    29  H   -0.007254  -0.000837  -0.000116   0.129124   0.282083  -0.006167
    30  H   -0.002204  -0.000204  -0.000375   0.229392  -0.006167   0.363183
 Mulliken charges:
               1
     1  O   -0.644428
     2  C    0.065268
     3  C    0.119547
     4  C    0.145193
     5  C    0.282098
     6  C    0.149639
     7  H    0.141224
     8  H    0.136032
     9  H    0.158396
    10  H    0.127332
    11  C   -0.084831
    12  H    0.173767
    13  H    0.111272
    14  H    0.160220
    15  O   -0.625053
    16  O   -0.615874
    17  H    0.401126
    18  O   -0.627586
    19  H    0.394797
    20  O   -0.650359
    21  H    0.408204
    22  O   -0.668458
    23  H    0.408478
    24  O   -0.843039
    25  H    0.463588
    26  H    0.464980
    27  H    0.395089
    28  O   -0.839395
    29  H    0.488999
    30  H    0.403775
 Sum of Mulliken charges =  -0.00000
 Mulliken charges with hydrogens summed into heavy atoms:
               1
     1  O   -0.155428
     2  C    0.223663
     3  C    0.279767
     4  C    0.286417
     5  C    0.409430
     6  C    0.285671
    11  C    0.200208
    15  O   -0.625053
    16  O   -0.214748
    18  O   -0.232790
    20  O   -0.242155
    22  O   -0.259980
    24  O    0.017030
    28  O    0.027968
 APT charges:
               1
     1  O   -0.399746
     2  C   -0.102737
     3  C   -0.267084
     4  C   -0.252711
     5  C   -0.243965
     6  C   -0.286891
     7  H    0.368209
     8  H    0.415923
     9  H    0.290107
    10  H    0.428455
    11  C   -0.550582
    12  H    0.276884
    13  H    0.423727
    14  H    0.436386
    15  O   -0.440900
    16  O   -0.849319
    17  H    0.734543
    18  O   -0.919923
    19  H    0.801892
    20  O   -0.749740
    21  H    0.649847
    22  O   -0.813358
    23  H    0.608168
    24  O   -1.081066
    25  H    0.388569
    26  H    0.347489
    27  H    0.724819
    28  O   -1.122084
    29  H    0.415014
    30  H    0.770073
 Sum of APT charges =  -0.00000
 APT charges with hydrogens summed into heavy atoms:
               1
     1  O    0.015268
     2  C    0.187369
     3  C    0.169302
     4  C    0.115498
     5  C    0.184489
     6  C    0.129032
    11  C    0.150030
    15  O   -0.440900
    16  O   -0.114776
    18  O   -0.118030
    20  O   -0.099892
    22  O   -0.205190
    24  O   -0.008758
    28  O    0.036558
 Electronic spatial extent (au):  <R**2>=           3087.5170
 Charge=             -0.0000 electrons
 Dipole moment (field-independent basis, Debye):
    X=              3.5675    Y=              3.9243    Z=             -0.9603  Tot=              5.3898
 Quadrupole moment (field-independent basis, Debye-Ang):
   XX=            -85.1814   YY=            -74.3270   ZZ=            -86.1414
   XY=              5.1761   XZ=             -1.2865   YZ=             -5.8358
 Traceless Quadrupole moment (field-independent basis, Debye-Ang):
   XX=             -3.2981   YY=              7.5563   ZZ=             -4.2581
   XY=              5.1761   XZ=             -1.2865   YZ=             -5.8358
 Octapole moment (field-independent basis, Debye-Ang**2):
  XXX=             57.3930  YYY=            -15.0630  ZZZ=              4.3082  XYY=             -7.4047
  XXY=             50.1437  XXZ=              5.3198  XZZ=             13.4921  YZZ=             18.0557
  YYZ=            -16.9445  XYZ=             -2.7077
 Hexadecapole moment (field-independent basis, Debye-Ang**3):
 XXXX=          -1740.2109 YYYY=          -1124.4234 ZZZZ=           -369.1796 XXXY=             57.0398
 XXXZ=             12.6541 YYYX=             -5.7362 YYYZ=            -68.6007 ZZZX=             16.6281
 ZZZY=             -4.9156 XXYY=           -584.5501 XXZZ=           -332.5123 YYZZ=           -299.6858
 XXYZ=              5.1468 YYXZ=            -39.3734 ZZXY=              9.5638
 N-N= 1.117835035478D+03 E-N=-4.208403772750D+03  KE= 8.328176128963D+02
  Exact polarizability:   0.000   0.000   0.000   0.000   0.000   0.000
 Approx polarizability: 135.843  -2.757 135.487   0.994  -4.113 133.448
 Calling FoFJK, ICntrl=    100147 FMM=F ISym2X=0 I1Cent= 0 IOpClX= 0 NMat=1 NMatS=1 NMatT=0.
 ***** Axes restored to original set *****
 -------------------------------------------------------------------
 Center     Atomic                   Forces (Hartrees/Bohr)
 Number     Number              X              Y              Z
 -------------------------------------------------------------------
      1        8          -0.000008917    0.000143075   -0.000023924
      2        6           0.000048736   -0.000008172   -0.000067599
      3        6           0.000026701    0.000315757    0.000083978
      4        6           0.000295712   -0.000023227   -0.000113778
      5        6          -0.000026540   -0.000178960    0.000174720
      6        6          -0.000034242   -0.000128396   -0.000086330
      7        1           0.000022780    0.000004024    0.000027422
      8        1          -0.000020668    0.000017352    0.000062017
      9        1          -0.000013914   -0.000045908    0.000055552
     10        1          -0.000066685    0.000073229   -0.000022368
     11        6          -0.000157800   -0.000097455   -0.000272566
     12        1          -0.000022251    0.000115701    0.000236908
     13        1           0.000127622    0.000072686    0.000118320
     14        1          -0.000027592   -0.000058100   -0.000003688
     15        8          -0.000084847    0.000155021   -0.000120782
     16        8           0.000053553    0.000002237    0.000016454
     17        1           0.000008018    0.000062139   -0.000009507
     18        8           0.000224588   -0.000496167   -0.000277302
     19        1          -0.000080558    0.000429703    0.000200051
     20        8          -0.000200167   -0.000017253   -0.000049334
     21        1           0.000023811   -0.000072191    0.000094298
     22        8          -0.000017991   -0.000001027   -0.000024755
     23        1           0.000019414   -0.000013074   -0.000039844
     24        8           0.000350356    0.000346008   -0.000214417
     25        1          -0.000077493   -0.000036773    0.000012006
     26        1          -0.000085645   -0.000034011    0.000003774
     27        1          -0.000265256   -0.000367199    0.000235179
     28        8           0.000094789    0.000212968    0.000099043
     29        1          -0.000018007   -0.000039000   -0.000008557
     30        1          -0.000087506   -0.000332985   -0.000084970
 -------------------------------------------------------------------
 Cartesian Forces:  Max     0.000496167 RMS     0.000150549

 GradGradGradGradGradGradGradGradGradGradGradGradGradGradGradGradGradGrad
 Berny optimization.
 Search for a saddle point.
 Step number   1 out of a maximum of  180
 All quantities printed in internal units (Hartrees-Bohrs-Radians)
 Swapping is turned off.
 Second derivative matrix not updated -- analytic derivatives used.
 ITU=  0
     Eigenvalues ---   -0.10161   0.00034   0.00039   0.00125   0.00214
     Eigenvalues ---    0.00221   0.00310   0.00409   0.00448   0.00631
     Eigenvalues ---    0.00665   0.00765   0.00958   0.01159   0.01288
     Eigenvalues ---    0.01565   0.01740   0.01783   0.02055   0.02366
     Eigenvalues ---    0.02716   0.02934   0.03061   0.03546   0.03672
     Eigenvalues ---    0.03916   0.04262   0.04473   0.05095   0.05411
     Eigenvalues ---    0.05774   0.06161   0.06588   0.06860   0.07049
     Eigenvalues ---    0.07515   0.08145   0.08225   0.08505   0.08717
     Eigenvalues ---    0.09458   0.09969   0.11289   0.11538   0.12040
     Eigenvalues ---    0.14120   0.14684   0.15216   0.15948   0.16990
     Eigenvalues ---    0.18400   0.19784   0.20397   0.21670   0.21996
     Eigenvalues ---    0.23233   0.26388   0.27987   0.31544   0.32176
     Eigenvalues ---    0.34977   0.37798   0.42253   0.49857   0.55021
     Eigenvalues ---    0.59025   0.64013   0.64256   0.67228   0.69960
     Eigenvalues ---    0.72257   0.76415   0.80737   0.82598   0.85254
     Eigenvalues ---    0.88504   0.93093   0.97081   1.01194   1.03083
     Eigenvalues ---    1.04567   1.05311   1.07192   1.10719
 Eigenvectors required to have negative eigenvalues:
                          X29       Z25       X26       Z1        Y5
   1                    0.52703  -0.50053  -0.46872  -0.18231   0.18135
                          Z5        X15       Z24       Y25       X28
   1                    0.18094   0.16374   0.14407  -0.13762  -0.13157
 RFO step:  Lambda0=9.744775174D-09 Lambda=-1.92721335D-05.
 Linear search not attempted -- option 19 set.
 B after Tr=    -0.000499    0.000526   -0.000729
         Rot=    1.000000    0.000008    0.000019   -0.000024 Ang=   0.00 deg.
 Variable       Old X    -DE/DX   Delta X   Delta X   Delta X     New X
                                 (Linear)    (Quad)   (Total)
    X1       -1.15916  -0.00001   0.00000  -0.00102  -0.00147  -1.16063
    Y1        0.38416   0.00014   0.00000   0.00729   0.00773   0.39189
    Z1       -1.86929  -0.00002   0.00000  -0.00251  -0.00329  -1.87258
    X2        2.34297   0.00005   0.00000  -0.00052  -0.00097   2.34200
    Y2       -1.54518  -0.00001   0.00000   0.00074   0.00138  -1.54380
    Z2        0.45126  -0.00007   0.00000  -0.00624  -0.00686   0.44440
    X3        2.11637   0.00003   0.00000   0.00411   0.00345   2.11982
    Y3        3.22392   0.00032   0.00000   0.00270   0.00333   3.22725
    Z3        0.22376   0.00008   0.00000  -0.00014  -0.00084   0.22292
    X4        3.72265   0.00030   0.00000   0.00260   0.00207   3.72473
    Y4        0.87298  -0.00002   0.00000   0.00044   0.00114   0.87412
    Z4       -0.31420  -0.00011   0.00000  -0.00006  -0.00067  -0.31487
    X5       -0.74573  -0.00003   0.00000   0.00191   0.00127  -0.74447
    Y5        2.68375  -0.00018   0.00000   0.00733   0.00783   2.69158
    Z5        0.34688   0.00017   0.00000  -0.00314  -0.00394   0.34294
    X6        0.03395  -0.00003   0.00000  -0.00518  -0.00554   0.02842
    Y6       -1.97883  -0.00013   0.00000   0.00536   0.00586  -1.97297
    Z6       -1.26356  -0.00009   0.00000  -0.00116  -0.00185  -1.26541
    X7        4.06648   0.00002   0.00000   0.00853   0.00808   4.07456
    Y7        0.81985   0.00000   0.00000   0.00325   0.00393   0.82378
    Z7       -2.36720   0.00003   0.00000   0.00100   0.00041  -2.36680
    X8        0.75886  -0.00002   0.00000  -0.01215  -0.01240   0.74646
    Y8       -2.75487   0.00002   0.00000   0.00025   0.00077  -2.75410
    Z8       -3.05110   0.00006   0.00000  -0.00152  -0.00218  -3.05328
    X9        1.74338  -0.00001   0.00000   0.00318   0.00266   1.74604
    Y9       -1.37353  -0.00005   0.00000  -0.00360  -0.00295  -1.37649
    Z9        2.42775   0.00006   0.00000  -0.00445  -0.00510   2.42265
   X10       -1.83034  -0.00007   0.00000   0.00570   0.00504  -1.82530
   Y10        4.09967   0.00007   0.00000   0.00946   0.00989   4.10957
   Z10       -0.73144  -0.00002   0.00000  -0.00481  -0.00567  -0.73712
   X11       -1.83079  -0.00016   0.00000  -0.00443  -0.00475  -1.83554
   Y11       -3.86131  -0.00010   0.00000   0.01102   0.01146  -3.84985
   Z11       -0.08140  -0.00027   0.00000   0.00951   0.00877  -0.07263
   X12       -2.52750  -0.00002   0.00000   0.00857   0.00815  -2.51935
   Y12       -3.10286   0.00012   0.00000   0.01387   0.01430  -3.08856
   Z12        1.70789   0.00024   0.00000   0.01415   0.01337   1.72127
   X13       -3.46234   0.00013   0.00000  -0.01212  -0.01237  -3.47471
   Y13       -4.17197   0.00007   0.00000   0.01415   0.01448  -4.15748
   Z13       -1.33469   0.00012   0.00000   0.01989   0.01910  -1.31560
   X14        2.64207  -0.00003   0.00000   0.00257   0.00181   2.64388
   Y14        3.90786  -0.00006   0.00000  -0.00051   0.00018   3.90804
   Z14        2.11075  -0.00000   0.00000   0.00122   0.00052   2.11127
   X15       -1.62646  -0.00008   0.00000  -0.00108  -0.00177  -1.62823
   Y15        1.94992   0.00016   0.00000   0.00977   0.01026   1.96018
   Z15        2.50983  -0.00012   0.00000  -0.00382  -0.00464   2.50519
   X16       -0.62444   0.00005   0.00000  -0.00559  -0.00582  -0.63025
   Y16       -6.20847   0.00000   0.00000   0.00871   0.00922  -6.19926
   Z16        0.50457   0.00002   0.00000   0.00286   0.00220   0.50677
   X17       -0.25449   0.00001   0.00000  -0.01100  -0.01113  -0.26562
   Y17       -7.05454   0.00006   0.00000   0.01162   0.01212  -7.04243
   Z17       -1.08107  -0.00001   0.00000   0.00001  -0.00061  -1.08169
   X18        2.68948   0.00022   0.00000   0.01069   0.01001   2.69949
   Y18        5.03925  -0.00050   0.00000   0.00271   0.00334   5.04259
   Z18       -1.67470  -0.00028   0.00000   0.00167   0.00096  -1.67374
   X19        2.21645  -0.00008   0.00000   0.03048   0.02970   2.24615
   Y19        6.69014   0.00043   0.00000   0.00625   0.00686   6.69700
   Z19       -1.04080   0.00020   0.00000   0.00978   0.00903  -1.03177
   X20        6.03069  -0.00020   0.00000  -0.00169  -0.00228   6.02842
   Y20        1.08448  -0.00002   0.00000  -0.00534  -0.00451   1.07996
   Z20        1.02865  -0.00005   0.00000   0.00777   0.00725   1.03590
   X21        6.77892   0.00002   0.00000  -0.00708  -0.00759   6.77133
   Y21       -0.59422  -0.00007   0.00000  -0.00817  -0.00731  -0.60153
   Z21        0.96778   0.00009   0.00000   0.01402   0.01355   0.98134
   X22        4.09746  -0.00002   0.00000  -0.00288  -0.00322   4.09424
   Y22       -3.57719  -0.00000   0.00000  -0.00065   0.00007  -3.57712
   Z22        0.18134  -0.00002   0.00000  -0.01330  -0.01382   0.16752
   X23        3.27168   0.00002   0.00000  -0.00236  -0.00265   3.26903
   Y23       -5.04092  -0.00001   0.00000  -0.00101  -0.00031  -5.04124
   Z23        0.92674  -0.00004   0.00000  -0.01347  -0.01399   0.91274
   X24       -6.21044   0.00035   0.00000  -0.00129  -0.00196  -6.21240
   Y24        1.88402   0.00035   0.00000  -0.01704  -0.01678   1.86724
   Z24        2.12619  -0.00021   0.00000  -0.00211  -0.00310   2.12309
   X25       -6.20137  -0.00008   0.00000  -0.00322  -0.00376  -6.20513
   Y25        1.10473  -0.00004   0.00000  -0.01845  -0.01823   1.08651
   Z25       -0.16554   0.00001   0.00000  -0.00075  -0.00173  -0.16727
   X26       -4.08296  -0.00009   0.00000  -0.00285  -0.00354  -4.08649
   Y26        1.99436  -0.00003   0.00000  -0.00433  -0.00396   1.99040
   Z26        2.48901   0.00000   0.00000  -0.00427  -0.00518   2.48383
   X27       -6.87628  -0.00027   0.00000   0.00331   0.00266  -6.87362
   Y27        0.62518  -0.00037   0.00000  -0.02005  -0.01980   0.60538
   Z27        3.27755   0.00024   0.00000  -0.00124  -0.00223   3.27531
   X28       -5.70769   0.00009   0.00000  -0.00398  -0.00442  -5.71211
   Y28        0.58184   0.00021   0.00000  -0.01899  -0.01877   0.56307
   Z28       -2.22827   0.00010   0.00000  -0.00173  -0.00268  -2.23095
   X29       -3.42084  -0.00002   0.00000  -0.00225  -0.00268  -3.42352
   Y29        0.32097  -0.00004   0.00000   0.00096   0.00129   0.32225
   Z29       -2.19542  -0.00001   0.00000  -0.00245  -0.00331  -2.19873
   X30       -6.57373  -0.00009   0.00000   0.01375   0.01340  -6.56033
   Y30       -0.94585  -0.00033   0.00000  -0.03299  -0.03282  -0.97867
   Z30       -2.74328  -0.00008   0.00000   0.00749   0.00653  -2.73675
         Item               Value     Threshold  Converged?
 Maximum Force            0.000496     0.000450     NO 
 RMS     Force            0.000151     0.000300     YES
 Maximum Displacement     0.032816     0.001800     NO 
 RMS     Displacement     0.009052     0.001200     NO 
 Predicted change in Energy=-9.712272D-06
 GradGradGradGradGradGradGradGradGradGradGradGradGradGradGradGradGradGrad

                          Input orientation:                          
 ---------------------------------------------------------------------
 Center     Atomic      Atomic             Coordinates (Angstroms)
 Number     Number       Type             X           Y           Z
 ---------------------------------------------------------------------
      1          8           0       -0.614181    0.207379   -0.990924
      2          6           0        1.239336   -0.816945    0.235165
      3          6           0        1.121762    1.707786    0.117964
      4          6           0        1.971042    0.462565   -0.166620
      5          6           0       -0.393955    1.424323    0.181477
      6          6           0        0.015037   -1.044051   -0.669628
      7          1           0        2.156165    0.435924   -1.252455
      8          1           0        0.395009   -1.457409   -1.615725
      9          1           0        0.923962   -0.728406    1.282011
     10          1           0       -0.965907    2.174688   -0.390066
     11          6           0       -0.971324   -2.037250   -0.038432
     12          1           0       -1.333184   -1.634394    0.910854
     13          1           0       -1.838735   -2.200046   -0.696183
     14          1           0        1.399081    2.068044    1.117238
     15          8           0       -0.861624    1.037282    1.325689
     16          8           0       -0.333514   -3.280506    0.268173
     17          1           0       -0.140559   -3.726691   -0.572404
     18          8           0        1.428508    2.668424   -0.885705
     19          1           0        1.188612    3.543901   -0.545987
     20          8           0        3.190101    0.571493    0.548176
     21          1           0        3.583233   -0.318315    0.519301
     22          8           0        2.166580   -1.892928    0.088649
     23          1           0        1.729898   -2.667708    0.483004
     24          8           0       -3.287462    0.988100    1.123490
     25          1           0       -3.283614    0.574954   -0.088514
     26          1           0       -2.162480    1.053275    1.314385
     27          1           0       -3.637365    0.320354    1.733222
     28          8           0       -3.022720    0.297966   -1.180566
     29          1           0       -1.811651    0.170530   -1.163516
     30          1           0       -3.471577   -0.517890   -1.448226
 ---------------------------------------------------------------------
                    Distance matrix (angstroms):
                    1          2          3          4          5
     1  O    0.000000
     2  C    2.447051   0.000000
     3  C    2.548401   2.530182   0.000000
     4  C    2.725432   1.527733   1.533897   0.000000
     5  C    1.704106   2.773770   1.543302   2.576695   0.000000
     6  C    1.437089   1.539199   3.068834   2.519695   2.642825
     7  H    2.792033   2.150179   2.136743   1.101825   3.088075
     8  H    2.044593   2.132809   3.681345   2.875775   3.486657
     9  H    2.899623   1.096899   2.707242   2.147864   2.753602
    10  H    2.086875   3.768803   2.198739   3.406899   1.103104
    11  C    2.464377   2.539885   4.293106   3.863033   3.516277
    12  H    2.743329   2.782559   4.222037   4.059076   3.281752
    13  H    2.717002   3.500700   4.969761   4.678070   3.999216
    14  H    3.458272   3.021048   1.097834   2.133774   2.122499
    15  O    2.473189   3.006897   2.417022   3.252888   1.295275
    16  O    3.718796   2.923026   5.198408   4.417081   4.706016
    17  H    3.984518   3.320076   5.621708   4.708862   5.212053
    18  O    3.200062   3.666051   1.422769   2.382696   2.451130
    19  H    3.818430   4.430547   1.953617   3.201679   2.743416
    20  O    4.119948   2.414792   2.398806   1.417358   3.702329
    21  H    4.491706   2.413135   3.213254   1.918182   4.355334
    22  O    3.648205   1.427931   3.749352   2.377339   4.191552
    23  H    3.991654   1.930648   4.432610   3.206052   4.620216
    24  O    3.496670   4.953706   4.579332   5.439893   3.074095
    25  H    2.841711   4.743334   4.553380   5.256438   3.023980
    26  H    2.902967   4.029241   3.556129   4.430386   2.132801
    27  H    4.071040   5.226837   5.213761   5.923162   3.761166
    28  O    2.417691   4.627358   4.566235   5.098317   3.167689
    29  H    1.210404   3.498561   3.551092   3.922735   2.321824
    30  H    2.983261   5.011580   5.339039   5.676786   3.987465
                    6          7          8          9         10
     6  C    0.000000
     7  H    2.667292   0.000000
     8  H    1.100156   2.611196   0.000000
     9  H    2.175930   3.049181   3.034487   0.000000
    10  H    3.376490   3.676186   4.067734   3.846479   0.000000
    11  C    1.535500   4.167929   2.165857   2.654949   4.226595
    12  H    2.159659   4.598009   3.066200   2.460342   4.041831
    13  H    2.184834   4.818403   2.527189   3.702901   4.471447
    14  H    3.846245   2.975304   4.572315   2.841306   2.806511
    15  O    3.013598   4.014413   4.056418   2.511549   2.061161
    16  O    2.450038   4.724687   2.720938   3.020320   5.531035
    17  H    2.688907   4.802580   2.554407   3.682632   5.961604
    18  O    3.978324   2.376562   4.315501   4.061036   2.494525
    19  H    4.737285   3.330882   5.175639   4.654484   2.557539
    20  O    3.764845   2.080787   4.075714   2.713602   4.552245
    21  H    3.830440   2.396773   4.002579   2.796716   5.266563
    22  O    2.434073   2.687419   2.496603   2.079501   5.156272
    23  H    2.627846   3.581349   2.766119   2.246963   5.610564
    24  O    4.272166   5.965156   5.200424   4.550562   3.014708
    25  H    3.720210   5.564646   4.471593   4.613110   2.832287
    26  H    3.616167   5.061668   4.629236   3.563925   2.365271
    27  H    4.579882   6.518635   5.534973   4.702041   3.883760
    28  O    3.360064   5.181221   3.866727   4.763825   2.894384
    29  H    2.248537   3.977676   2.779213   3.777865   2.308714
    30  H    3.611030   5.711354   3.982617   5.178733   3.827279
                   11         12         13         14         15
    11  C    0.000000
    12  H    1.092877   0.000000
    13  H    1.100700   1.777108   0.000000
    14  H    4.879327   4.606073   5.655841   0.000000
    15  O    3.365355   2.744506   3.939925   2.493333   0.000000
    16  O    1.430557   2.030286   2.088796   5.685928   4.476666
    17  H    1.956912   2.828447   2.286869   6.229312   5.178623
    18  O    5.349808   5.419300   5.866242   2.091196   3.577093
    19  H    6.006012   5.941092   6.494637   2.233555   3.740291
    20  O    4.946424   5.045551   5.875291   2.402343   4.151863
    21  H    4.899979   5.104560   5.866520   3.289796   4.716424
    22  O    3.143790   3.604332   4.093022   4.163694   4.391630
    23  H    2.822406   3.260869   3.787392   4.789472   4.599246
    24  O    3.983378   3.277483   3.946428   4.809366   2.434747
    25  H    3.488955   3.111934   3.187093   5.060710   2.842491
    26  H    3.577752   2.841502   3.838137   3.708550   1.301004
    27  H    3.975528   3.131546   3.935669   5.366530   2.895653
    28  O    3.311485   3.310980   2.806512   5.288232   3.390906
    29  H    2.616535   2.791002   2.416353   4.371635   2.801777
    30  H    3.247651   3.374102   2.461989   6.082102   4.114003
                   16         17         18         19         20
    16  O    0.000000
    17  H    0.971021   0.000000
    18  O    6.310779   6.592240   0.000000
    19  H    7.039336   7.391137   0.969236   0.000000
    20  O    5.228017   5.551881   3.091334   3.746780   0.000000
    21  H    4.917169   5.164830   3.941763   4.667522   0.973214
    22  O    2.864973   3.020359   4.722293   5.560422   2.707790
    23  H    2.163179   2.394565   5.517111   6.319486   3.553711
    24  O    5.261024   5.916782   5.394509   5.417980   6.516393
    25  H    4.867739   5.349494   5.217492   5.387460   6.504950
    26  H    4.818852   5.522337   4.510466   4.570997   5.428565
    27  H    5.101763   5.824271   6.167275   6.235070   6.934097
    28  O    4.704905   4.987442   5.051678   5.354820   6.454650
    29  H    4.017993   4.281389   4.100644   4.556594   5.301715
    30  H    4.519459   4.707350   5.871955   6.247362   7.039199
                   21         22         23         24         25
    21  H    0.000000
    22  O    2.161428   0.000000
    23  H    2.992627   0.972878   0.000000
    24  O    7.019844   6.254421   6.240919   0.000000
    25  H    6.951328   5.985519   5.998066   1.280491   0.000000
    26  H    5.960422   5.378038   5.448626   1.142923   1.858456
    27  H    7.349730   6.425652   6.268898   0.969582   1.873148
    28  O    6.848939   5.774059   5.843806   2.419721   1.156445
    29  H    5.672355   4.653181   4.827960   2.841977   1.867046
    30  H    7.326755   6.003459   5.950354   2.985904   1.754552
                   26         27         28         29         30
    26  H    0.000000
    27  H    1.699377   0.000000
    28  O    2.745048   2.977994   0.000000
    29  H    2.653735   3.427356   1.217875   0.000000
    30  H    3.437195   3.294199   0.968883   1.819433   0.000000
 Stoichiometry    C6H16O8
 Framework group  C1[X(C6H16O8)]
 Deg. of freedom    84
 Full point group                 C1      NOp   1
 Largest Abelian subgroup         C1      NOp   1
 Largest concise Abelian subgroup C1      NOp   1
                         Standard orientation:                         
 ---------------------------------------------------------------------
 Center     Atomic      Atomic             Coordinates (Angstroms)
 Number     Number       Type             X           Y           Z
 ---------------------------------------------------------------------
      1          8           0        0.612233   -0.211364   -0.990255
      2          6           0       -1.233900    0.826208    0.235834
      3          6           0       -1.134411   -1.699299    0.118633
      4          6           0       -1.974751   -0.448028   -0.165950
      5          6           0        0.383297   -1.426699    0.182147
      6          6           0       -0.008007    1.044541   -0.668958
      7          1           0       -2.159679   -0.420062   -1.251786
      8          1           0       -0.385009    1.460609   -1.615056
      9          1           0       -0.919169    0.735413    1.282681
     10          1           0        0.949860   -2.181141   -0.389397
     11          6           0        0.985442    2.030651   -0.037762
     12          1           0        1.344407    1.625213    0.911524
     13          1           0        1.853997    2.187230   -0.695514
     14          1           0       -1.414303   -2.057562    1.117907
     15          8           0        0.853726   -1.043017    1.326359
     16          8           0        0.356552    3.278442    0.268842
     17          1           0        0.166798    3.725998   -0.571735
     18          8           0       -1.448029   -2.657716   -0.885036
     19          1           0       -1.214409   -3.534889   -0.545317
     20          8           0       -3.194560   -0.548222    0.548845
     21          1           0       -3.581309    0.344378    0.519971
     22          8           0       -2.153415    1.908805    0.089318
     23          1           0       -1.711196    2.680438    0.483673
     24          8           0        3.279854   -1.011210    1.124159
     25          1           0        3.278965   -0.598047   -0.087845
     26          1           0        2.154434   -1.068326    1.315054
     27          1           0        3.634530   -0.345987    1.733891
     28          8           0        3.020061   -0.319197   -1.179897
     29          1           0        1.809936   -0.183091   -1.162846
     30          1           0        3.474750    0.493423   -1.447556
 ---------------------------------------------------------------------
 Rotational constants (GHZ):      0.7204913      0.5567495      0.3745046
 Standard basis: 6-31G(d) (6D, 7F)
 There are   242 symmetry adapted cartesian basis functions of A   symmetry.
 There are   242 symmetry adapted basis functions of A   symmetry.
   242 basis functions,   456 primitive gaussians,   242 cartesian basis functions
    58 alpha electrons       58 beta electrons
       nuclear repulsion energy      1117.8562825723 Hartrees.
 NAtoms=   30 NActive=   30 NUniq=   30 SFac= 1.00D+00 NAtFMM=   60 NAOKFM=F Big=F
 Integral buffers will be    131072 words long.
 Raffenetti 2 integral format.
 Two-electron integral symmetry is turned on.
 One-electron integrals computed using PRISM.
 NBasis=   242 RedAO= T EigKep=  1.30D-03  NBF=   242
 NBsUse=   242 1.00D-06 EigRej= -1.00D+00 NBFU=   242
 Initial guess from the checkpoint file:  "/scratch/10452745.yak.local/Gau-16217.chk"
 B after Tr=     0.000000   -0.000000    0.000000
         Rot=    0.999994   -0.000005   -0.000046    0.003535 Ang=  -0.41 deg.
 ExpMin= 1.61D-01 ExpMax= 5.48D+03 ExpMxC= 8.25D+02 IAcc=1 IRadAn=         1 AccDes= 0.00D+00
 Harris functional with IExCor=  402 and IRadAn=       1 diagonalized for initial guess.
 HarFok:  IExCor=  402 AccDes= 0.00D+00 IRadAn=         1 IDoV= 1 UseB2=F ITyADJ=14
 ICtDFT=  3500011 ScaDFX=  1.000000  1.000000  1.000000  1.000000
 FoFCou: FMM=F IPFlag=           0 FMFlag=      100000 FMFlg1=           0
         NFxFlg=           0 DoJE=T BraDBF=F KetDBF=T FulRan=T
         wScrn=  0.000000 ICntrl=     500 IOpCl=  0 I1Cent=   200000004 NGrid=           0
         NMat0=    1 NMatS0=      1 NMatT0=    0 NMatD0=    1 NMtDS0=    0 NMtDT0=    0
 Petite list used in FoFCou.
 Requested convergence on RMS density matrix=1.00D-08 within 128 cycles.
 Requested convergence on MAX density matrix=1.00D-06.
 Requested convergence on             energy=1.00D-06.
 No special actions if energy rises.
 Integral accuracy reduced to 1.0D-05 until final iterations.
 Initial convergence to 1.0D-05 achieved.  Increase integral accuracy.
 SCF Done:  E(RB3LYP) =  -839.954485260     A.U. after   10 cycles
            NFock= 10  Conv=0.54D-08     -V/T= 2.0086
 Calling FoFJK, ICntrl=      2127 FMM=F ISym2X=0 I1Cent= 0 IOpClX= 0 NMat=1 NMatS=1 NMatT=0.
 ***** Axes restored to original set *****
 -------------------------------------------------------------------
 Center     Atomic                   Forces (Hartrees/Bohr)
 Number     Number              X              Y              Z
 -------------------------------------------------------------------
      1        8          -0.000008636    0.000009050   -0.000002236
      2        6           0.000022123    0.000004105    0.000008653
      3        6          -0.000019861    0.000011772   -0.000001957
      4        6           0.000007018   -0.000004237   -0.000005258
      5        6           0.000009502   -0.000018144    0.000002499
      6        6          -0.000016296   -0.000008407    0.000000601
      7        1           0.000002386   -0.000000502    0.000003687
      8        1          -0.000005407    0.000000346    0.000003666
      9        1          -0.000000879   -0.000002371   -0.000003302
     10        1          -0.000001419    0.000000208    0.000003481
     11        6          -0.000001423   -0.000002351    0.000007928
     12        1           0.000004293   -0.000004990   -0.000016083
     13        1           0.000014146    0.000002078    0.000010624
     14        1          -0.000002227    0.000000902   -0.000000826
     15        8          -0.000004629    0.000004692   -0.000001637
     16        8           0.000005009   -0.000001479   -0.000003448
     17        1           0.000001326    0.000002156    0.000008043
     18        8          -0.000013744    0.000059065    0.000021088
     19        1           0.000010878   -0.000058829   -0.000024096
     20        8          -0.000005033   -0.000001402   -0.000004141
     21        1          -0.000002853    0.000009685    0.000001669
     22        8          -0.000000305    0.000004764    0.000000846
     23        1          -0.000001238    0.000006591   -0.000001873
     24        8           0.000007060   -0.000004002    0.000000505
     25        1           0.000002502   -0.000001565   -0.000002326
     26        1          -0.000003679    0.000001053   -0.000001932
     27        1           0.000000803    0.000001795   -0.000002388
     28        8          -0.000029566   -0.000068494   -0.000020458
     29        1          -0.000005606   -0.000011057   -0.000001988
     30        1           0.000035757    0.000069565    0.000020660
 -------------------------------------------------------------------
 Cartesian Forces:  Max     0.000069565 RMS     0.000016459

 GradGradGradGradGradGradGradGradGradGradGradGradGradGradGradGradGradGrad
 Berny optimization.
 Search for a saddle point.
 Step number   2 out of a maximum of  180
 All quantities printed in internal units (Hartrees-Bohrs-Radians)
 Swapping is turned off.
 Update second derivatives using D2CorN and points    1    2
 ITU=  0  0
     Eigenvalues ---   -0.10161   0.00034   0.00039   0.00128   0.00216
     Eigenvalues ---    0.00224   0.00310   0.00409   0.00448   0.00631
     Eigenvalues ---    0.00665   0.00765   0.00958   0.01159   0.01288
     Eigenvalues ---    0.01565   0.01740   0.01783   0.02055   0.02366
     Eigenvalues ---    0.02716   0.02934   0.03061   0.03546   0.03673
     Eigenvalues ---    0.03916   0.04261   0.04473   0.05095   0.05411
     Eigenvalues ---    0.05774   0.06160   0.06586   0.06859   0.07049
     Eigenvalues ---    0.07514   0.08146   0.08225   0.08505   0.08717
     Eigenvalues ---    0.09458   0.09969   0.11289   0.11538   0.12040
     Eigenvalues ---    0.14120   0.14684   0.15216   0.15949   0.16989
     Eigenvalues ---    0.18399   0.19782   0.20396   0.21670   0.21996
     Eigenvalues ---    0.23233   0.26387   0.27986   0.31546   0.32176
     Eigenvalues ---    0.34978   0.37797   0.42254   0.49856   0.55023
     Eigenvalues ---    0.59026   0.64011   0.64256   0.67228   0.69961
     Eigenvalues ---    0.72256   0.76415   0.80737   0.82598   0.85254
     Eigenvalues ---    0.88505   0.93092   0.97083   1.01191   1.03078
     Eigenvalues ---    1.04567   1.05316   1.07193   1.10719
 Eigenvectors required to have negative eigenvalues:
                          X29       Z25       X26       Z1        Y5
   1                    0.52705  -0.50051  -0.46869  -0.18232   0.18133
                          Z5        X15       Z24       Y25       X28
   1                    0.18094   0.16374   0.14410  -0.13763  -0.13154
 RFO step:  Lambda0=7.295024307D-11 Lambda=-8.16395889D-08.
 Linear search not attempted -- option 19 set.
 B after Tr=     0.000056   -0.000033    0.000023
         Rot=    1.000000   -0.000004    0.000001    0.000000 Ang=  -0.00 deg.
 Variable       Old X    -DE/DX   Delta X   Delta X   Delta X     New X
                                 (Linear)    (Quad)   (Total)
    X1       -1.16063  -0.00001   0.00000  -0.00003   0.00003  -1.16061
    Y1        0.39189   0.00001   0.00000  -0.00025  -0.00027   0.39162
    Z1       -1.87258  -0.00000   0.00000   0.00023   0.00026  -1.87232
    X2        2.34200   0.00002   0.00000   0.00042   0.00047   2.34248
    Y2       -1.54380   0.00000   0.00000  -0.00021  -0.00025  -1.54405
    Z2        0.44440   0.00001   0.00000  -0.00024  -0.00023   0.44417
    X3        2.11982  -0.00002   0.00000  -0.00029  -0.00023   2.11959
    Y3        3.22725   0.00001   0.00000  -0.00024  -0.00027   3.22698
    Z3        0.22292  -0.00000   0.00000   0.00015   0.00020   0.22312
    X4        3.72473   0.00001   0.00000   0.00009   0.00014   3.72487
    Y4        0.87412  -0.00000   0.00000   0.00002  -0.00002   0.87411
    Z4       -0.31487  -0.00001   0.00000  -0.00001   0.00002  -0.31484
    X5       -0.74447   0.00001   0.00000  -0.00015  -0.00010  -0.74456
    Y5        2.69158  -0.00002   0.00000  -0.00070  -0.00073   2.69085
    Z5        0.34294   0.00000   0.00000   0.00031   0.00035   0.34329
    X6        0.02842  -0.00002   0.00000   0.00002   0.00008   0.02849
    Y6       -1.97297  -0.00001   0.00000  -0.00027  -0.00029  -1.97326
    Z6       -1.26541   0.00000   0.00000   0.00019   0.00020  -1.26522
    X7        4.07456   0.00000   0.00000   0.00023   0.00029   4.07485
    Y7        0.82378  -0.00000   0.00000   0.00022   0.00021   0.82399
    Z7       -2.36680   0.00000   0.00000   0.00002   0.00006  -2.36674
    X8        0.74646  -0.00001   0.00000  -0.00043  -0.00037   0.74609
    Y8       -2.75410   0.00000   0.00000  -0.00036  -0.00037  -2.75448
    Z8       -3.05328   0.00000   0.00000   0.00007   0.00008  -3.05320
    X9        1.74604  -0.00000   0.00000   0.00073   0.00078   1.74681
    Y9       -1.37649  -0.00000   0.00000  -0.00060  -0.00066  -1.37714
    Z9        2.42265  -0.00000   0.00000  -0.00013  -0.00011   2.42254
   X10       -1.82530  -0.00000   0.00000  -0.00039  -0.00033  -1.82563
   Y10        4.10957   0.00000   0.00000  -0.00056  -0.00059   4.10898
   Z10       -0.73712   0.00000   0.00000   0.00069   0.00074  -0.73637
   X11       -1.83554  -0.00000   0.00000   0.00030   0.00036  -1.83518
   Y11       -3.84985  -0.00000   0.00000  -0.00017  -0.00020  -3.85005
   Z11       -0.07263   0.00001   0.00000   0.00071   0.00070  -0.07192
   X12       -2.51935   0.00000   0.00000   0.00077   0.00082  -2.51853
   Y12       -3.08856  -0.00000   0.00000  -0.00009  -0.00013  -3.08869
   Z12        1.72127  -0.00002   0.00000   0.00079   0.00079   1.72206
[...]
 92803,-0.00063081,-0.00010752,-0.00004336,-0.00001930,0.00002954,-0.00
 021052,0.00009098,0.00010707,0.00008737,0.00002862,-0.00003396,0.00018
 593,0.00027363,0.00008700,-0.00012680,-0.00007051,-0.00000937,0.000359
 86,0.00022476,0.00024199,-0.00030245,-0.00005645,-0.00009568,0.1304932
 1,0.30097890,0.01318944,0.00386749,0.00718445,-0.00022892,-0.00052951,
 -0.00098591,-0.00012137,0.00015095,0.00173018,-0.00012392,-0.00057102,
 -0.00016933,-0.00304759,-0.00294027,-0.01543827,-0.00017237,0.00204208
 ,0.00048555,-0.00011194,0.00005849,0.00014038,-0.00009236,0.00005073,-
 0.00000633,0.00015199,-0.00010978,0.00028763,-0.00012422,-0.00083005,0
 .00155179,-0.00157200,0.00016371,-0.00165689,0.00011385,-0.00028840,-0
 .00005144,0.00060495,0.00064982,0.00071571,0.00047617,0.00016245,0.000
 12679,-0.01645593,-0.00380329,0.02389548,0.00094143,-0.00069402,0.0006
 0900,-0.00022097,0.00012251,0.00000067,-0.00057089,-0.00052818,0.00072
 386,-0.00004092,0.00008702,-0.00012432,0.00014573,0.00035455,0.0002261
 8,-0.00014206,-0.00006726,-0.00007244,0.00062140,0.00018035,0.00058047
 ,-0.00026228,-0.00004585,-0.00021203,-0.09535990,-0.19576223,0.3378844
 6,0.00067279,-0.00007163,-0.00151722,-0.00023097,0.00010896,-0.0001928
 6,-0.00007125,-0.00062388,0.00032331,-0.00015029,0.00000237,-0.0000177
 7,-0.00300838,-0.00102746,-0.00230860,-0.00095634,0.00094818,0.0000110
 0,0.00000432,-0.00001230,0.00001445,0.00009331,-0.00014558,-0.00006197
 ,0.00000666,0.00000616,0.00001033,0.00019035,-0.00042210,0.00042553,-0
 .00047967,0.00050733,0.00004370,-0.00002223,0.00014480,-0.00028824,0.0
 0009234,0.00018324,0.00011934,0.00010514,0.00004106,-0.00000575,-0.003
 83393,0.00106896,0.00347824,0.00033043,-0.00061815,0.00008165,0.000031
 75,0.00007439,0.00001783,0.00007782,0.00013756,-0.00003859,-0.00007241
 ,-0.00007312,0.00000491,0.00030304,0.00003080,0.00009596,-0.00007399,-
 0.00001792,-0.00001366,0.00030328,-0.00012454,0.00010947,-0.00011863,0
 .00003380,-0.00006890,-0.04065589,-0.01121366,-0.00339097,0.09294633,-
 0.00795861,-0.00231655,-0.00319932,0.00021235,0.00023596,0.00055459,0.
 00011754,-0.00043184,-0.00038199,0.00015477,0.00046339,0.00006823,-0.0
 0131181,0.00398035,0.00640235,0.00026808,-0.00099101,-0.00058153,0.000
 05665,-0.00004565,-0.00006925,-0.00000761,-0.00009825,0.00007234,-0.00
 007749,0.00007562,-0.00012345,-0.00029617,-0.00050478,0.00014666,0.001
 33562,-0.00055584,0.00068187,0.00012881,0.00012469,0.00035038,-0.00035
 979,-0.00037601,-0.00063099,-0.00016399,-0.00008460,-0.00010343,0.0073
 1879,-0.00041446,-0.00370193,-0.00088834,0.00065053,-0.00025262,0.0001
 1192,-0.00006132,-0.00002463,0.00017843,-0.00002412,-0.00015282,-0.000
 08041,-0.00003983,0.00001886,-0.00015250,-0.00030532,-0.00010457,0.000
 13846,0.00006341,0.00002132,-0.00047086,-0.00011689,-0.00028782,0.0002
 4510,0.00002583,0.00012136,-0.00820350,-0.03903567,-0.00488244,0.02024
 210,0.07213852,-0.02424864,-0.00652927,-0.01258069,0.00035004,0.000927
 88,0.00149293,0.00029459,-0.00062161,-0.00163368,0.00027777,0.00073684
 ,0.00027979,-0.00322312,0.00535517,0.02572019,0.00011306,-0.00409876,-
 0.00066988,0.00019040,-0.00008098,-0.00021471,0.00025384,0.00002037,-0
 .00004394,-0.00029599,0.00019539,-0.00048575,-0.00065050,0.00067214,-0
 .00117211,0.00246281,0.00011096,0.00349790,-0.00065372,0.00067442,-0.0
 0063057,-0.00096591,-0.00118957,-0.00100010,-0.00065459,-0.00025691,-0
 .00038597,0.02805670,0.00275841,-0.01454520,-0.00119235,0.00095646,-0.
 00124906,0.00038400,-0.00029525,0.00002722,0.00056699,0.00045694,-0.00
 088394,-0.00000581,-0.00010150,0.00017914,-0.00026107,-0.00046238,-0.0
 0035564,0.00020078,0.00008915,0.00009880,-0.00102075,-0.00014493,-0.00
 093317,0.00032261,0.00003091,0.00031517,0.01913313,0.00972021,0.012740
 51,-0.00679634,-0.00614533,0.04236602,-0.01176331,-0.01485515,-0.01751
 782,-0.00097011,0.00156629,0.00203198,0.00112788,-0.00173716,-0.005007
 12,-0.00227399,0.00222717,0.00021414,-0.01233197,-0.00256128,0.0645027
 5,-0.00261020,0.00400066,-0.00110837,0.00037934,-0.00032493,-0.0002810
 6,0.00032292,-0.00152853,0.00007336,-0.00045577,0.00100039,-0.00099203
 ,-0.00029517,0.00425516,-0.00812483,0.00247439,0.00050163,0.00018126,0
 .00143348,0.00067958,0.00028526,-0.00079731,-0.00067156,-0.00099802,-0
 .00104053,-0.00029326,-0.00065264,0.02977703,0.00671090,-0.03121717,-0
 .00179719,-0.00156216,0.00030750,0.00051559,0.00056655,-0.00001325,0.0
 0425316,0.00370034,-0.00347430,-0.00049754,-0.00105454,0.00023657,0.00
 226105,-0.00117565,0.00037802,-0.00009923,0.00013898,-0.00000729,0.001
 16839,-0.00259204,-0.00076900,0.00035131,0.00067211,-0.00006308,-0.062
 82884,-0.00033463,0.01597162,0.00865762,-0.01216356,-0.05031148,0.0408
 2624,-0.00082560,-0.00118134,-0.00027509,0.00019496,-0.00014720,0.0005
 5751,-0.00092079,0.00201808,0.00207369,-0.00049589,0.00004902,0.000070
 11,-0.00811819,0.00031139,0.00400212,0.00054118,0.00013504,-0.00025752
 ,0.00002258,0.00000329,-0.00000527,-0.00011814,-0.00018052,0.00011290,
 0.00003092,0.00017302,-0.00027856,-0.00154115,-0.00063529,-0.00092701,
 0.00065684,-0.00067950,-0.00109773,0.00028573,-0.00068638,0.00050001,-
 0.00011438,-0.00004824,0.00002958,0.00019653,-0.00013536,0.00013223,0.
 01446997,-0.02731901,0.00138808,-0.00054368,0.00046414,0.00028918,-0.0
 0002447,0.00007008,-0.00002468,0.00006232,-0.00025268,0.00011510,-0.00
 014762,-0.00006293,0.00002327,-0.00011823,-0.00010236,-0.00003301,0.00
 002902,0.00003135,-0.00000848,-0.00008909,-0.00027817,-0.00024775,0.00
 020941,0.00008294,0.00003985,0.01637178,-0.03617622,0.01705425,-0.0055
 4819,-0.00057186,-0.00504162,0.00765271,0.06746107,-0.00161288,-0.0006
 3230,-0.00091404,0.00015403,0.00012769,0.00018276,-0.00111155,0.001011
 76,-0.00174107,-0.00001950,0.00013375,0.00006497,0.02477268,0.00130485
 ,-0.00091242,0.00049160,-0.00073227,-0.00014475,-0.00001054,0.00000765
 ,-0.00001820,-0.00004743,0.00007326,0.00003642,0.00005670,-0.00012163,
 -0.00000733,0.00012243,0.00027906,-0.00144497,0.00016783,-0.00025496,0
 .00004445,0.00011182,-0.00007762,0.00029423,-0.00005700,-0.00010002,-0
 .00015175,-0.00003576,0.00002233,0.00020291,-0.01480496,0.00411575,-0.
 03640280,-0.00020825,0.00030916,-0.00005872,0.00000543,-0.00001668,-0.
 00001498,0.00060707,0.00062281,-0.00039640,0.00010904,-0.00001823,0.00
 002718,-0.00010909,-0.00009803,-0.00006985,0.00004940,0.00002366,0.000
 03093,-0.00023022,-0.00000157,-0.00011199,0.00007800,-0.00000656,0.000
 06657,-0.02320756,0.00894695,-0.05965445,-0.01746763,-0.00163695,-0.00
 253417,0.00522130,-0.01418367,0.10047922,0.00020761,0.00007156,-0.0002
 3231,-0.00016039,0.00013252,-0.00000974,0.00000521,-0.00042263,-0.0000
 4067,-0.00005027,-0.00000818,-0.00001249,0.00079713,0.00046753,-0.0005
 0872,-0.00020395,-0.00015574,0.00001389,0.00001556,-0.00000057,-0.0000
 1247,0.00008491,0.00004670,-0.00007382,-0.00003246,-0.00002593,-0.0000
 1379,0.00045607,0.00000720,-0.00003748,-0.00022829,0.00052160,0.000716
 41,-0.00027588,0.00021808,-0.00021902,0.00001706,0.00000032,-0.0000798
 0,0.00001624,0.00001986,0.00000865,-0.00586774,0.00345912,-0.00297151,
 0.00022981,-0.00042208,-0.00014677,0.00006941,0.00002150,0.00000743,0.
 00005704,0.00014566,-0.00008610,-0.00002465,-0.00003479,0.00001407,0.0
 0017942,0.00003451,0.00002062,-0.00005862,-0.00001784,0.00000870,0.000
 16159,-0.00005747,-0.00000516,-0.00010029,0.00002444,-0.00000887,-0.08
 900411,-0.11360703,0.08831303,-0.00066355,0.00399305,0.00400413,-0.002
 12712,-0.02365863,0.02301442,0.09581580,0.00019486,-0.00026698,0.00001
 759,0.00005456,-0.00005888,0.00006339,-0.00002432,0.00004811,-0.000000
 13,0.00003638,0.00007914,-0.00000791,0.00024457,0.00007289,0.00006986,
 0.00000586,0.00040543,-0.00006421,-0.00000447,-0.00000672,-0.00000168,
 -0.00006520,-0.00007794,0.00005086,0.00001723,0.00002274,0.00001783,0.
 00011329,-0.00002537,-0.00008282,0.00019741,-0.00031944,-0.00036756,0.
 00032414,-0.00002686,0.00018725,-0.00002309,-0.00001117,-0.00009982,-0
 .00000992,-0.00000442,-0.00000934,0.00108302,0.00020082,-0.00017593,-0
 .00027987,0.00016419,0.00010443,0.00000538,0.00001529,-0.00000914,-0.0
 0001829,-0.00005339,0.00000834,0.00001488,0.00001333,0.00000757,-0.000
 08966,-0.00006785,-0.00002440,0.00004396,0.00002224,0.00000210,-0.0000
 9248,-0.00004710,-0.00000950,0.00010299,0.00001411,0.00001774,-0.13699
 899,-0.24698792,0.21495391,0.00407721,0.00812971,0.00310334,0.00055467
 ,-0.00277123,0.00147960,0.13063048,0.24480020,-0.00021702,-0.00000853,
 0.00017602,0.00007362,-0.00007270,0.00010673,0.00007017,0.00008260,0.0
 0007713,0.00011002,0.00000870,-0.00000580,0.00030332,0.00044103,-0.001
 10227,0.00014638,0.00002825,-0.00009798,-0.00000578,0.00000573,-0.0000
 0747,-0.00005516,-0.00001131,0.00003587,0.00001916,-0.00001542,0.00002
 129,0.00016314,-0.00011391,0.00003327,0.00020682,-0.00027226,-0.000181
 13,0.00026709,-0.00008756,0.00034069,-0.00004268,-0.00005827,-0.000174
 87,-0.00001272,-0.00001636,0.00000828,-0.00443678,0.00025746,-0.000116
 20,-0.00028543,0.00030077,0.00001831,-0.00000277,-0.00000023,-0.000015
 32,-0.00014362,-0.00012792,0.00007863,0.00003357,0.00003326,0.00000823
 ,-0.00014856,-0.00002278,-0.00006200,0.00003633,0.00001002,0.00001640,
 -0.00014297,0.00004226,-0.00004649,0.00008264,-0.00000335,0.00005272,0
 .10278105,0.20376046,-0.21822076,0.00683635,0.01907468,-0.00144185,0.0
 0366618,-0.00457923,0.00559364,-0.10878877,-0.21306126,0.22044486,-0.0
 9671173,0.00039279,-0.02033547,0.00134854,0.00256936,0.00143828,0.0013
 1214,-0.00054482,-0.00250491,0.00215603,0.00044196,0.00053110,-0.00382
 992,0.01435892,0.02148890,-0.00040930,-0.01726767,-0.00000429,0.000161
 16,0.00001667,-0.00019639,-0.00052869,0.00142413,0.00015387,-0.0003487
 3,-0.00008333,-0.00044606,-0.00057527,-0.00163264,-0.00062912,-0.00116
 868,-0.00055551,0.00067799,-0.00014640,0.00014168,-0.00030650,-0.00011
 224,0.00103140,-0.00013038,-0.00095085,-0.00055526,-0.00026238,0.01229
 167,0.00015352,-0.01151871,0.00051767,0.00269106,-0.00094009,-0.000367
 73,-0.00071518,-0.00006703,-0.00070347,-0.00110946,0.00075377,0.000139
 16,0.00031523,-0.00016584,-0.00146906,-0.00028965,-0.00054709,0.000495
 43,0.00010745,0.00004986,-0.00317637,0.00159428,-0.00143615,0.00014901
 ,-0.00050848,0.00037380,0.02463057,0.01024549,0.02242192,-0.05485476,-
 0.02560902,-0.00848348,-0.01919993,0.00013691,0.00236666,0.00024373,0.
 00032023,-0.00147177,0.28354887,0.00330174,0.01841024,0.00397908,-0.00
 018552,0.00047422,-0.00056538,-0.00024726,0.00076320,0.00092639,-0.000
 29896,-0.00043586,0.00003081,0.00263870,-0.00454054,-0.00449152,-0.003
 15954,-0.00047387,0.00053665,-0.00002582,0.00003307,0.00005038,-0.0000
 4909,0.00032222,-0.00008290,0.00002344,-0.00009878,0.00003813,-0.00005
 427,0.00106483,-0.00017272,-0.00379272,-0.00083741,-0.00243479,0.00000
 064,-0.00021501,-0.00029402,0.00215399,0.00025679,0.00213430,0.0002695
 2,0.00014482,0.00005965,-0.00466450,0.00083187,0.00233529,0.00239921,-
 0.00107373,0.00070554,-0.00029379,0.00012571,0.00010010,-0.00014819,0.
 00022415,-0.00020791,0.00012101,0.00001254,0.00006479,0.00024772,0.000
 35527,0.00006754,-0.00018836,-0.00007692,-0.00001053,0.00031678,0.0002
 7734,0.00007121,-0.00045840,-0.00009169,-0.00013001,0.00219015,0.00634
 425,-0.02995487,-0.00991330,-0.03390166,-0.00321700,0.00757720,-0.0000
 3276,0.00029700,-0.00089474,-0.00332494,-0.00540843,0.18625987,0.42683
 589,0.00175994,0.00592184,0.01722828,0.00000259,-0.00067660,-0.0006304
 7,-0.00008197,0.00108653,0.00096537,-0.00003926,-0.00031629,-0.0002432
 4,0.00346795,-0.00244836,-0.01290955,0.00057974,0.00099922,0.00062137,
 -0.00009972,0.00005358,0.00011741,-0.00047603,0.00031307,0.00008304,0.
 00015510,-0.00008935,0.00029420,0.00028582,-0.00025928,0.00040641,-0.0
 0034639,-0.00018789,-0.00158328,0.00063133,-0.00011490,0.00084984,0.00
 029348,0.00050557,-0.00035247,0.00039082,0.00011353,0.00022458,-0.0149
 5373,-0.00185518,0.00755975,-0.00023524,0.00010818,0.00067311,-0.00026
 659,0.00012199,-0.00012121,-0.00035098,-0.00048801,0.00067008,0.000034
 36,0.00010643,-0.00015630,-0.00013689,0.00017083,0.00017212,-0.0000228
 4,-0.00001493,-0.00007592,0.00021576,0.00017059,0.00046502,0.00000514,
 -0.00002059,-0.00014050,-0.00335067,-0.02725680,-0.08188411,0.02003331
 ,0.01488527,-0.06145770,0.02511720,0.00191548,-0.00076612,-0.00298019,
 -0.00478680,-0.00306238,0.03692602,0.15688642,0.23348623,-0.01422054,-
 0.00241075,0.01554034,-0.00209869,-0.00441211,-0.00191556,-0.00219367,
 0.00158503,0.00441917,-0.00365706,-0.00063626,-0.00090723,0.00611281,-
 0.02926769,-0.03683892,-0.00284330,0.02913672,0.00131475,-0.00019820,-
 0.00005252,0.00031768,0.00076900,-0.00261123,-0.00079876,0.00051351,0.
 00024934,0.00073344,0.00098578,0.00363772,0.00066781,0.00879689,0.0015
 5310,0.00095825,0.00035315,0.00012540,0.00079101,-0.00205426,-0.001931
 77,-0.00216825,0.00175386,0.00093702,0.00043641,-0.01779545,-0.0002415
 2,0.01833302,-0.00384661,-0.00437964,0.00136684,0.00091465,0.00116925,
 0.00006755,0.00129474,0.00195174,-0.00145053,-0.00018576,-0.00053613,0
 .00031975,0.00232980,0.00036455,0.00085589,-0.00073665,-0.00012186,-0.
 00006606,0.00521739,-0.00299107,0.00230186,0.00009229,0.00095655,-0.00
 055929,-0.01368757,-0.00863991,-0.02546899,-0.00419286,0.01709355,0.04
 878302,0.02576116,0.00163488,0.00177915,-0.00014250,-0.00050071,0.0002
 7048,-0.00690868,-0.00030925,-0.01719400,0.01583667,-0.01645384,-0.051
 61244,-0.00857968,-0.00021256,-0.00292086,-0.00061366,0.00069246,-0.00
 220720,-0.00248084,0.00039265,-0.00012730,-0.00007703,-0.01208087,0.00
 435798,0.00138827,0.01939367,0.00260465,0.00360053,0.00003201,0.000001
 54,-0.00003610,0.00047686,-0.00099841,-0.00001206,0.00006321,0.0001373
 2,0.00015640,0.00003529,-0.00211393,-0.00000373,0.00295214,-0.00066706
 ,0.00181797,-0.00029532,-0.00004088,0.00019462,-0.00108191,-0.00134807
 ,-0.00031550,-0.00069365,-0.00030162,-0.00002569,0.00165512,-0.0004287
 1,-0.00018334,-0.00150701,0.00108498,-0.00064069,0.00022049,-0.0000356
 8,-0.00007448,0.00003355,-0.00022541,0.00060948,-0.00016032,0.00001173
 ,-0.00011733,-0.00006284,-0.00002730,0.00000774,0.00001666,-0.00005397
 ,0.00000432,0.00119172,-0.00047572,0.00068987,0.00031556,0.00021422,-0
 .00002626,-0.00001158,-0.00064713,-0.00030399,0.00416901,0.00017145,0.
 00164469,-0.00042088,0.00049623,-0.00088201,-0.00023173,0.00014030,0.0
 0014617,0.02098046,-0.04728923,-0.01429536,0.00393496,0.09824579,0.010
 53010,-0.00437039,-0.02397211,-0.00074225,0.00129469,-0.00044375,-0.00
 002021,-0.00175575,-0.00087735,-0.00011320,-0.00010389,-0.00008698,-0.
 01154749,-0.00459059,-0.00178636,-0.00579203,0.00342802,-0.00414816,-0
 .00007964,-0.00001673,0.00013943,0.00091239,-0.00135090,0.00001709,-0.
 00003789,-0.00003252,-0.00010046,0.00031017,0.00069690,0.00040441,-0.0
 0025559,0.00138946,0.00062366,-0.00014252,0.00031810,-0.00062992,-0.00
 036580,0.00018177,0.00000668,-0.00021861,0.00001045,-0.00006759,0.0011
 2225,0.00209924,0.00050924,0.00018803,-0.00129510,0.00003465,0.0001938
 4,0.00006354,0.00011748,-0.00005478,0.00023964,-0.00014184,-0.00003114
 ,-0.00006076,0.00009029,0.00041965,0.00006116,0.00013416,-0.00008935,-
 0.00000345,0.00002234,0.00019250,-0.00015164,0.00001096,-0.00017230,0.
 00001094,-0.00002062,-0.00359873,-0.00086420,-0.00429080,0.01771181,0.
 00084806,0.00937373,0.00236047,-0.00126004,-0.00199063,0.00019527,-0.0
 0015418,-0.00021708,0.00272065,-0.01315897,-0.04025600,-0.00742307,0.0
 1588458,0.06883296,-0.00672204,0.00480581,-0.00000509,-0.00003568,0.00
 057160,-0.00008409,-0.00005200,-0.00000870,0.00022945,-0.00004455,-0.0
 0013004,0.00006831,0.00055310,-0.00017142,0.00030288,-0.00147309,-0.00
 146422,0.00012424,0.00001703,0.00000397,-0.00000101,-0.00014135,0.0002
 2991,-0.00001781,-0.00000247,-0.00003054,-0.00002834,-0.00009440,0.000
 05053,-0.00007477,-0.00222622,-0.00018629,-0.00140298,0.00014368,0.000
 02412,0.00003780,0.00082860,0.00105771,0.00054995,0.00004508,0.0000184
 0,-0.00000786,0.00017418,0.00033740,-0.00011526,0.00133470,-0.00072387
 ,0.00054855,-0.00018818,0.00012094,0.00002597,0.00004462,0.00012533,-0
 .00009562,-0.00001495,-0.00002385,0.00001143,0.00019464,0.00012039,0.0
 0003074,-0.00008327,-0.00002327,-0.00000687,0.00002282,0.00011492,-0.0
 0006507,-0.00024241,-0.00004527,-0.00005455,-0.00140194,0.00046719,0.0
 0455607,0.00556996,0.00614843,-0.00663014,-0.00022131,-0.00023171,-0.0
 0018521,0.00058325,0.00008587,0.00068767,-0.13553219,-0.18281627,-0.04
 936406,0.00403010,-0.02334332,-0.00617254,0.13493431,0.00568451,-0.000
 95604,0.00045013,0.00001331,-0.00022199,0.00026297,-0.00007145,0.00010
 411,-0.00001903,-0.00003349,0.00008529,-0.00009847,-0.00004597,-0.0005
 1771,-0.00018574,-0.00016589,0.00114555,-0.00065103,-0.00001382,-0.000
 00632,0.00001288,0.00000811,-0.00012865,0.00002061,0.00001703,0.000025
 57,0.00001197,-0.00003041,0.00007005,-0.00004277,0.00148784,-0.0002999
 6,0.00105995,-0.00014513,0.00001419,-0.00004978,-0.00000915,-0.0005907
 5,-0.00026040,0.00001303,0.00000511,0.00000841,0.00024136,-0.00001291,
 0.00010462,-0.00076313,0.00023989,-0.00021368,0.00021106,0.00000028,-0
 .00001603,0.00004125,-0.00005121,0.00003481,-0.00000528,-0.00000043,-0
 .00000876,-0.00006656,-0.00010004,0.00001424,0.00005023,0.00003371,-0.
 00000519,-0.00005620,-0.00011329,0.00001804,0.00015092,0.00003594,0.00
 003121,0.00091933,0.00147653,0.00141286,-0.00196411,-0.00618380,0.0007
 3186,-0.00052903,-0.00003459,0.00000722,-0.00025679,-0.00007828,-0.000
 33190,-0.19431040,-0.36408400,-0.13054819,-0.00528738,0.00405472,0.002
 64256,0.19491622,0.36608907,0.00207658,-0.00030223,0.00041907,-0.00007
 057,0.00008056,-0.00020503,-0.00007697,-0.00018795,0.00013235,-0.00009
 350,-0.00006929,0.00009353,-0.00002675,-0.00021304,-0.00030996,-0.0000
 9728,0.00008280,0.00067654,0.00001625,-0.00000148,-0.00002074,0.000201
 77,-0.00003531,-0.00012909,-0.00002413,-0.00000763,-0.00003088,-0.0000
 7705,-0.00009615,-0.00005829,-0.00075545,0.00008579,-0.00062304,-0.000
 25437,-0.00004051,-0.00035490,-0.00000303,0.00063621,0.00075264,0.0000
 3198,0.00002306,-0.00000561,0.00010046,0.00021874,0.00007678,0.0007534
 2,-0.00055816,0.00011965,-0.00000165,0.00003069,0.00009621,0.00008303,
 0.00016480,-0.00014163,-0.00002843,-0.00003849,0.00002471,0.00019154,0
 .00007253,0.00000070,-0.00007130,-0.00002694,0.00001346,0.00025769,-0.
 00005961,0.00001506,-0.00015483,0.00000284,-0.00002178,0.00305511,0.00
 254298,-0.00611603,-0.01714869,-0.02096692,0.00612673,-0.00001014,-0.0
 0008370,0.00031138,-0.00008895,-0.00122910,-0.00226048,-0.04045717,-0.
 10815424,-0.06017756,-0.00446578,0.00252312,-0.00128745,0.05713820,0.1
 2560664,0.06288364\\-0.00000067,0.00000237,0.00000021,0.00000008,-0.00
 000096,-0.00000038,0.00000092,-0.00000096,0.00000171,0.00000055,-0.000
 00238,0.00000043,0.00000245,-0.00000067,0.00000132,-0.00000158,0.00000
 048,-0.00000083,0.00000039,-0.00000072,-0.00000013,-0.00000054,0.00000
 009,-0.00000121,-0.00000067,-0.00000098,0.00000028,0.00000110,0.000000
 57,0.00000095,-0.00000172,0.00000054,-0.00000165,-0.00000123,0.0000008
 3,0.00000071,-0.00000174,0.00000078,-0.00000144,0.00000083,-0.00000108
 ,0.00000076,0.00000075,0.00000010,0.00000073,-0.00000410,0.00000027,-0
 .00000231,-0.00000148,-0.00000023,-0.00000187,0.00000186,0.00000946,0.
 00000688,0.00000372,-0.00001095,-0.00000314,0.00000101,-0.00000521,0.0
 0000085,-0.00000035,-0.00000132,0.00000021,-0.00000211,-0.00000356,-0.
 00000181,-0.00000131,-0.00000067,-0.00000100,0.00000232,0.00000238,0.0
 0000172,0.00000045,0.00000148,-0.00000012,-0.00000015,0.00000051,0.000
 00010,0.00000047,0.00000192,-0.00000081,-0.00000231,-0.00000289,-0.000
 00177,-0.00000021,0.00000049,-0.00000012,0.00000330,0.00001029,0.00000
 174\\\@


 THE THINKER DIES, BUT HIS THOUGHTS ARE BEYOND THE 
 REACH OF DESTRUCTION.  MEN ARE MORTAL; BUT IDEAS 
 ARE IMMORTAL.
                              -- WALTER LIPPMANN
 Job cpu time:       0 days  0 hours 35 minutes  5.5 seconds.
 File lengths (MBytes):  RWF=    220 Int=      0 D2E=      0 Chk=      6 Scr=      1
 Normal termination of Gaussian 09 at Wed Jan 11 23:25:34 2017.
