 Entering Gaussian System, Link 0=g09
 Initial command:
 /global/software/gaussian/g09.e01/l1.exe "/scratch/10452970.yak.local/Gau-11581.inp" -scrdir="/scratch/10452970.yak.local/"
 Entering Link 1 = /global/software/gaussian/g09.e01/l1.exe PID=     11582.
  
 Copyright (c) 1988,1990,1992,1993,1995,1998,2003,2009,2015,
            Gaussian, Inc.  All Rights Reserved.
  
 This is part of the Gaussian(R) 09 program.  It is based on
 the Gaussian(R) 03 system (copyright 2003, Gaussian, Inc.),
 the Gaussian(R) 98 system (copyright 1998, Gaussian, Inc.),
 the Gaussian(R) 94 system (copyright 1995, Gaussian, Inc.),
 the Gaussian 92(TM) system (copyright 1992, Gaussian, Inc.),
 the Gaussian 90(TM) system (copyright 1990, Gaussian, Inc.),
 the Gaussian 88(TM) system (copyright 1988, Gaussian, Inc.),
 the Gaussian 86(TM) system (copyright 1986, Carnegie Mellon
 University), and the Gaussian 82(TM) system (copyright 1983,
 Carnegie Mellon University). Gaussian is a federally registered
 trademark of Gaussian, Inc.
  
 This software contains proprietary and confidential information,
 including trade secrets, belonging to Gaussian, Inc.
  
 This software is provided under written license and may be
 used, copied, transmitted, or stored only in accord with that
 written license.
  
 The following legend is applicable only to US Government
 contracts under FAR:
  
                    RESTRICTED RIGHTS LEGEND
  
 Use, reproduction and disclosure by the US Government is
 subject to restrictions as set forth in subparagraphs (a)
 and (c) of the Commercial Computer Software - Restricted
 Rights clause in FAR 52.227-19.
  
 Gaussian, Inc.
 340 Quinnipiac St., Bldg. 40, Wallingford CT 06492
  
  
 ---------------------------------------------------------------
 Warning -- This program may not be used in any manner that
 competes with the business of Gaussian, Inc. or will provide
 assistance to any competitor of Gaussian, Inc.  The licensee
 of this program is prohibited from giving any competitor of
 Gaussian, Inc. access to this program.  By using this program,
 the user acknowledges that Gaussian, Inc. is engaged in the
 business of creating and licensing software in the field of
 computational chemistry and represents and warrants to the
 licensee that it is not a competitor of Gaussian, Inc. and that
 it will not use this program in any manner prohibited above.
 ---------------------------------------------------------------
  

 Cite this work as:
 Gaussian 09, Revision E.01,
 M. J. Frisch, G. W. Trucks, H. B. Schlegel, G. E. Scuseria, 
 M. A. Robb, J. R. Cheeseman, G. Scalmani, V. Barone, B. Mennucci, 
 G. A. Petersson, H. Nakatsuji, M. Caricato, X. Li, H. P. Hratchian, 
 A. F. Izmaylov, J. Bloino, G. Zheng, J. L. Sonnenberg, M. Hada, 
 M. Ehara, K. Toyota, R. Fukuda, J. Hasegawa, M. Ishida, T. Nakajima, 
 Y. Honda, O. Kitao, H. Nakai, T. Vreven, J. A. Montgomery, Jr., 
 J. E. Peralta, F. Ogliaro, M. Bearpark, J. J. Heyd, E. Brothers, 
 K. N. Kudin, V. N. Staroverov, T. Keith, R. Kobayashi, J. Normand, 
 K. Raghavachari, A. Rendell, J. C. Burant, S. S. Iyengar, J. Tomasi, 
 M. Cossi, N. Rega, J. M. Millam, M. Klene, J. E. Knox, J. B. Cross, 
 V. Bakken, C. Adamo, J. Jaramillo, R. Gomperts, R. E. Stratmann, 
 O. Yazyev, A. J. Austin, R. Cammi, C. Pomelli, J. W. Ochterski, 
 R. L. Martin, K. Morokuma, V. G. Zakrzewski, G. A. Voth, 
 P. Salvador, J. J. Dannenberg, S. Dapprich, A. D. Daniels, 
 O. Farkas, J. B. Foresman, J. V. Ortiz, J. Cioslowski, 
 and D. J. Fox, Gaussian, Inc., Wallingford CT, 2013.
 
 ******************************************
 Gaussian 09:  ES64L-G09RevE.01 30-Nov-2015
                11-Jan-2017 
 ******************************************
 %NPROCS=4
 Will use up to    4 processors via shared memory.
 ----------------------------------------------------------------------
 # opt=(calcfc,ts,noeigentest,maxcycle=1000,cartesian) b3lyp 6-31g(d) f
 req
 ----------------------------------------------------------------------
 1/5=1,6=1000,10=4,11=1,14=-1,18=10,26=3,38=1/1,3;
 2/12=2,17=6,18=5,29=2,40=1/2;
 3/5=1,6=6,7=1,11=2,16=1,25=1,30=1,71=2,74=-5,140=1/1,2,3;
 4//1;
 5/5=2,38=5/2;
 8/6=4,10=90,11=11/1;
 11/6=1,8=1,9=11,15=111,16=1/1,2,10;
 10/6=1,13=1/2;
 6/7=2,8=2,9=2,10=2,28=1/1;
 7/7=1,10=1,18=20,25=1/1,2,3,16;
 1/5=1,6=1000,10=4,11=1,14=-1,18=10,26=3/3(2);
 2/29=1/2;
 99/12=1/99;
 2/29=1/2;
 3/5=1,6=6,7=1,11=2,16=1,25=1,30=1,71=1,74=-5/1,2,3;
 4/5=5,16=3,69=1/1;
 5/5=2,38=5/2;
 7/7=1/1,2,3,16;
 1/5=1,6=1000,11=1,14=-1,18=10,26=3/3(-5);
 2/29=1/2;
 6/7=2,8=2,9=2,10=2,19=2,28=1/1;
 99/9=1,12=1/99;
 ------------------------
 boat4_Beta_B3LYP_6-31G_d
 ------------------------
 Symbolic Z-matrix:
 Charge =  0 Multiplicity = 1
 8                    0     1.71628   0.40458  -0.35199 
 6                    0    -0.68718   0.34169   0.10487 
 6                    0     0.39716  -1.76978  -0.89788 
 6                    0    -0.90494  -1.09711  -0.41906 
 6                    0     1.62026  -1.38397  -0.08197 
 6                    0     0.47687   1.06757  -0.59745 
 1                    0    -1.53385  -1.00351  -1.31955 
 1                    0     0.29512   1.05103  -1.68042 
 1                    0    -0.45843   0.2718    1.17859 
 1                    0     2.57601  -1.52881  -0.61833 
 6                    0     0.64794   2.52713  -0.14127 
 1                    0     0.75179   2.57429   0.94779 
 1                    0     1.56317   2.93926  -0.585 
 1                    0     0.25517  -2.85349  -0.76816 
 8                    0     1.59423  -1.58679   1.1857 
 8                    0    -0.48779   3.34825  -0.44343 
 1                    0    -0.5548    3.41994  -1.40932 
 8                    0     0.56151  -1.42817  -2.27212 
 1                    0     1.46414  -1.66047  -2.54132 
 8                    0    -1.48982  -1.94004   0.54301 
 1                    0    -2.36549  -1.56588   0.79557 
 8                    0    -1.91822   1.05639  -0.09869 
 1                    0    -1.72454   2.01312  -0.02524 
 8                    0     2.75505   0.39282   1.81012 
 1                    0     2.23826   0.62928   0.74488 
 1                    0     2.33024  -0.69438   1.70848 
 1                    0     2.25845   0.81721   2.52944 
 8                    0    -3.80614  -0.51081   1.12699 
 1                    0    -4.50185  -0.6618    0.47253 
 1                    0    -3.2949    0.24946   0.7699 
 

 GradGradGradGradGradGradGradGradGradGradGradGradGradGradGradGradGradGrad
 Berny optimization.
 Initialization pass.
 No Z-matrix variables, so optimization will use Cartesian coordinates.
 Trust Radius=3.00D-01 FncErr=1.00D-07 GrdErr=1.00D-06
 Number of steps in this run=    180 maximum allowed number of steps=    180.
 Search for a saddle point of order  1.
 GradGradGradGradGradGradGradGradGradGradGradGradGradGradGradGradGradGrad

 ---------------------------------------------------------------------------------------------------
                            Z-MATRIX (ANGSTROMS AND DEGREES)
   CD    Cent   Atom    N1       Length/X        N2       Alpha/Y        N3        Beta/Z          J
 ---------------------------------------------------------------------------------------------------
      1      1  O        0   1.716275          0.404583         -0.351992
      2      2  C        0  -0.687183          0.341686          0.104867
      3      3  C        0   0.397163         -1.769779         -0.897875
      4      4  C        0  -0.904938         -1.097112         -0.419057
      5      5  C        0   1.620264         -1.383972         -0.081972
      6      6  C        0   0.476874          1.067567         -0.597445
      7      7  H        0  -1.533849         -1.003509         -1.319549
      8      8  H        0   0.295121          1.051026         -1.680418
      9      9  H        0  -0.458431          0.271804          1.178589
     10     10  H        0   2.576006         -1.528814         -0.618331
     11     11  C        0   0.647938          2.527127         -0.141271
     12     12  H        0   0.751787          2.574293          0.947792
     13     13  H        0   1.563172          2.939262         -0.585000
     14     14  H        0   0.255169         -2.853491         -0.768162
     15     15  O        0   1.594233         -1.586787          1.185701
     16     16  O        0  -0.487791          3.348249         -0.443434
     17     17  H        0  -0.554795          3.419940         -1.409315
     18     18  O        0   0.561513         -1.428166         -2.272125
     19     19  H        0   1.464144         -1.660465         -2.541324
     20     20  O        0  -1.489816         -1.940043          0.543012
     21     21  H        0  -2.365490         -1.565875          0.795567
     22     22  O        0  -1.918222          1.056389         -0.098685
     23     23  H        0  -1.724537          2.013121         -0.025244
     24     24  O        0   2.755049          0.392818          1.810119
     25     25  H        0   2.238258          0.629275          0.744878
     26     26  H        0   2.330238         -0.694382          1.708483
     27     27  H        0   2.258450          0.817208          2.529439
     28     28  O        0  -3.806141         -0.510814          1.126989
     29     29  H        0  -4.501851         -0.661795          0.472526
     30     30  H        0  -3.294897          0.249462          0.769903
 ---------------------------------------------------------------------------------------------------
                         Z-Matrix orientation:                         
 ---------------------------------------------------------------------
 Center     Atomic      Atomic             Coordinates (Angstroms)
 Number     Number       Type             X           Y           Z
 ---------------------------------------------------------------------
      1          8           0        1.716275    0.404583   -0.351992
      2          6           0       -0.687183    0.341686    0.104867
      3          6           0        0.397163   -1.769779   -0.897875
      4          6           0       -0.904938   -1.097112   -0.419057
      5          6           0        1.620264   -1.383972   -0.081972
      6          6           0        0.476874    1.067567   -0.597445
      7          1           0       -1.533849   -1.003509   -1.319549
      8          1           0        0.295121    1.051026   -1.680418
      9          1           0       -0.458431    0.271804    1.178589
     10          1           0        2.576006   -1.528814   -0.618331
     11          6           0        0.647938    2.527127   -0.141271
     12          1           0        0.751787    2.574293    0.947792
     13          1           0        1.563172    2.939262   -0.585000
     14          1           0        0.255169   -2.853491   -0.768162
     15          8           0        1.594233   -1.586787    1.185701
     16          8           0       -0.487791    3.348249   -0.443434
     17          1           0       -0.554795    3.419940   -1.409315
     18          8           0        0.561513   -1.428166   -2.272125
     19          1           0        1.464144   -1.660465   -2.541324
     20          8           0       -1.489816   -1.940043    0.543012
     21          1           0       -2.365490   -1.565875    0.795567
     22          8           0       -1.918222    1.056389   -0.098685
     23          1           0       -1.724537    2.013121   -0.025244
     24          8           0        2.755049    0.392818    1.810119
     25          1           0        2.238258    0.629275    0.744878
     26          1           0        2.330238   -0.694382    1.708483
     27          1           0        2.258450    0.817208    2.529439
     28          8           0       -3.806141   -0.510814    1.126989
     29          1           0       -4.501851   -0.661795    0.472526
     30          1           0       -3.294897    0.249462    0.769903
 ---------------------------------------------------------------------
                    Distance matrix (angstroms):
                    1          2          3          4          5
     1  O    0.000000
     2  C    2.447302   0.000000
     3  C    2.601133   2.576739   0.000000
     4  C    3.021646   1.546626   1.541822   0.000000
     5  C    1.811369   2.887406   1.520040   2.563700   0.000000
     6  C    1.426853   1.541160   2.854320   2.574308   2.753742
     7  H    3.671811   2.134327   2.119855   1.102350   3.409513
     8  H    2.049947   2.157621   2.929117   2.765080   3.200039
     9  H    2.662641   1.100041   3.035096   2.150761   2.941357
    10  H    2.132627   3.830168   2.209879   3.513267   1.105488
    11  C    2.385569   2.572797   4.370210   3.952682   4.030587
    12  H    2.706902   2.786699   4.733203   4.253496   4.181211
    13  H    2.549967   3.505341   4.861331   4.734070   4.352775
    14  H    3.594868   3.443743   1.100645   2.133680   2.119865
    15  O    2.518918   3.176802   2.409928   3.010130   1.284059
    16  O    3.678510   3.062648   5.213815   4.464957   5.193117
    17  H    3.920213   3.433063   5.301036   4.637561   5.437857
    18  O    2.894712   3.215853   1.425578   2.386197   2.433039
    19  H    3.020127   3.954636   1.962479   3.230160   2.479765
    20  O    4.071526   2.458145   2.380301   1.406482   3.220624
    21  H    4.675511   2.632977   3.246779   1.956595   4.085266
    22  O    3.701160   1.437947   3.739911   2.401447   4.298433
    23  H    3.812263   1.971478   4.424187   3.240429   4.767720
    24  O    2.398732   3.841804   4.191621   4.537028   2.832795
    25  H    1.235345   3.008409   3.441472   3.770257   2.262468
    26  H    2.414587   3.570693   3.418532   3.892940   2.045807
    27  H    2.960888   3.844662   4.680104   4.729194   3.474470
    28  O    5.789854   3.391075   4.832477   3.339309   5.627598
    29  H    6.362553   3.961545   5.206339   3.731247   6.189451
    30  H    5.137563   2.692759   4.526602   2.989781   5.249058
                    6          7          8          9         10
     6  C    0.000000
     7  H    2.975533   0.000000
     8  H    1.098243   2.774252   0.000000
     9  H    2.159243   3.003938   3.057605   0.000000
    10  H    3.338860   4.202209   3.603615   3.959666   0.000000
    11  C    1.538724   4.314386   2.161557   2.837704   4.516159
    12  H    2.175674   4.813069   3.071868   2.611389   4.755629
    13  H    2.164126   5.067203   2.524545   3.783181   4.581555
    14  H    3.931030   2.631928   4.009870   3.750538   2.676472
    15  O    3.387284   4.049863   4.106140   2.769087   2.054695
    16  O    2.481090   4.560659   2.724025   3.477979   5.762220
    17  H    2.693907   4.531391   2.531325   4.076431   5.909123
    18  O    3.006726   2.340572   2.562708   3.979650   2.608323
    19  H    3.492209   3.303375   3.075704   4.611693   2.225190
    20  O    3.770176   2.085226   4.132328   2.521900   4.248380
    21  H    4.117588   2.341281   4.478563   2.675938   5.139928
    22  O    2.446502   2.425166   2.720440   2.092365   5.210700
    23  H    2.463270   3.288106   2.782849   2.466662   5.602832
    24  O    3.382563   5.489918   4.320687   3.277183   3.101950
    25  H    2.257522   4.599634   3.136195   2.754637   2.574832
    26  H    3.443360   4.918913   4.321204   2.998496   2.484098
    27  H    3.607506   5.701864   4.651046   3.082808   3.938669
    28  O    4.879465   3.375146   5.209724   3.438359   6.694346
    29  H    5.378032   3.483868   5.529906   4.209439   7.213720
    30  H    4.094532   3.006166   4.419820   2.865844   6.289433
                   11         12         13         14         15
    11  C    0.000000
    12  H    1.095019   0.000000
    13  H    1.097453   1.772286   0.000000
    14  H    5.431235   5.714190   5.941415   0.000000
    15  O    4.424999   4.252164   4.860192   2.686115   0.000000
    16  O    1.433675   2.017690   2.096130   6.254520   5.598525
    17  H    1.962554   2.824576   2.323000   6.357913   6.034877
    18  O    4.493590   5.140403   4.787916   2.094589   3.612234
    19  H    4.895138   5.533042   4.999450   2.455409   3.730022
    20  O    4.999384   5.056467   5.865216   2.366123   3.170047
    21  H    5.168276   5.184745   6.134868   3.312259   3.978951
    22  O    2.958050   3.244703   3.987708   4.523161   4.579669
    23  H    2.430288   2.719171   3.461227   5.306136   5.043804
    24  O    3.578144   3.084720   3.693446   4.841018   2.378282
    25  H    2.629871   2.456393   2.749610   4.283876   2.349473
    26  H    4.077970   3.708692   4.364839   3.886056   1.269406
    27  H    3.556721   2.803389   3.832265   5.325536   2.833021
    28  O    5.538627   5.506787   6.607833   5.057071   5.506833
    29  H    6.088210   6.188607   7.132354   5.382572   6.206969
    30  H    4.643699   4.670346   5.715909   4.959529   5.239112
                   16         17         18         19         20
    16  O    0.000000
    17  H    0.970853   0.000000
    18  O    5.221043   5.049229   0.000000
    19  H    5.770477   5.582837   0.970141   0.000000
    20  O    5.472035   5.780594   3.520648   4.279857   0.000000
    21  H    5.404581   5.744430   4.242292   5.080343   0.985186
    22  O    2.723528   3.027054   4.128673   4.978773   3.094174
    23  H    1.867348   2.294142   4.702867   5.476639   4.000689
    24  O    4.932452   5.521167   4.979187   4.981713   5.006664
    25  H    4.029423   4.497722   4.018314   4.079373   4.532183
    26  H    5.377258   5.913690   4.417247   4.443455   4.183636
    27  H    4.773466   5.495666   5.565637   5.699335   5.059429
    28  O    5.326354   5.696922   5.609983   6.523352   2.783718
    29  H    5.747357   5.981734   5.810171   6.758234   3.272803
    30  H    4.353678   4.723249   5.190402   6.104139   2.846705
                   21         22         23         24         25
    21  H    0.000000
    22  O    2.806422   0.000000
    23  H    3.727434   0.978899   0.000000
    24  O    5.575456   5.091495   5.104961   0.000000
    25  H    5.100564   4.262669   4.267536   1.207362   0.000000
    26  H    4.862384   4.937658   5.174706   1.171665   1.639836
    27  H    5.483267   4.940530   4.880656   0.971668   1.794543
    28  O    1.816169   2.742743   3.468568   6.658260   6.162838
    29  H    2.342169   3.154929   3.887985   7.454124   6.868050
    30  H    2.039584   1.816813   2.491743   6.140395   5.546232
                   26         27         28         29         30
    26  H    0.000000
    27  H    1.721635   0.000000
    28  O    6.166602   6.364729   0.000000
    29  H    6.943061   7.219419   0.967021   0.000000
    30  H    5.780477   5.853030   0.983311   1.541285   0.000000
 Stoichiometry    C6H16O8
 Framework group  C1[X(C6H16O8)]
 Deg. of freedom    84
 Full point group                 C1      NOp   1
 Largest Abelian subgroup         C1      NOp   1
 Largest concise Abelian subgroup C1      NOp   1
                         Standard orientation:                         
 ---------------------------------------------------------------------
 Center     Atomic      Atomic             Coordinates (Angstroms)
 Number     Number       Type             X           Y           Z
 ---------------------------------------------------------------------
      1          8           0       -1.716275    0.404584    0.351992
      2          6           0        0.687183    0.341686   -0.104867
      3          6           0       -0.397164   -1.769779    0.897875
      4          6           0        0.904938   -1.097112    0.419057
      5          6           0       -1.620265   -1.383971    0.081972
      6          6           0       -0.476874    1.067567    0.597445
      7          1           0        1.533849   -1.003510    1.319549
      8          1           0       -0.295121    1.051026    1.680418
      9          1           0        0.458431    0.271804   -1.178589
     10          1           0       -2.576007   -1.528813    0.618331
     11          6           0       -0.647937    2.527127    0.141271
     12          1           0       -0.751786    2.574293   -0.947792
     13          1           0       -1.563171    2.939263    0.585000
     14          1           0       -0.255170   -2.853491    0.768162
     15          8           0       -1.594234   -1.586786   -1.185701
     16          8           0        0.487792    3.348249    0.443434
     17          1           0        0.554796    3.419940    1.409315
     18          8           0       -0.561514   -1.428166    2.272125
     19          1           0       -1.464145   -1.660464    2.541324
     20          8           0        1.489815   -1.940044   -0.543012
     21          1           0        2.365489   -1.565876   -0.795567
     22          8           0        1.918222    1.056388    0.098685
     23          1           0        1.724538    2.013120    0.025244
     24          8           0       -2.755049    0.392819   -1.810119
     25          1           0       -2.238258    0.629276   -0.744878
     26          1           0       -2.330238   -0.694381   -1.708483
     27          1           0       -2.258450    0.817209   -2.529439
     28          8           0        3.806141   -0.510816   -1.126989
     29          1           0        4.501851   -0.661797   -0.472526
     30          1           0        3.294897    0.249461   -0.769903
 ---------------------------------------------------------------------
 Rotational constants (GHZ):      0.6398253      0.5591384      0.4112514
 Standard basis: 6-31G(d) (6D, 7F)
 There are   242 symmetry adapted cartesian basis functions of A   symmetry.
 There are   242 symmetry adapted basis functions of A   symmetry.
   242 basis functions,   456 primitive gaussians,   242 cartesian basis functions
    58 alpha electrons       58 beta electrons
       nuclear repulsion energy      1117.9175050036 Hartrees.
 NAtoms=   30 NActive=   30 NUniq=   30 SFac= 1.00D+00 NAtFMM=   60 NAOKFM=F Big=F
 Integral buffers will be    131072 words long.
 Raffenetti 2 integral format.
 Two-electron integral symmetry is turned on.
 One-electron integrals computed using PRISM.
 NBasis=   242 RedAO= T EigKep=  1.37D-03  NBF=   242
 NBsUse=   242 1.00D-06 EigRej= -1.00D+00 NBFU=   242
 ExpMin= 1.61D-01 ExpMax= 5.48D+03 ExpMxC= 8.25D+02 IAcc=1 IRadAn=         1 AccDes= 0.00D+00
 Harris functional with IExCor=  402 and IRadAn=       1 diagonalized for initial guess.
 HarFok:  IExCor=  402 AccDes= 0.00D+00 IRadAn=         1 IDoV= 1 UseB2=F ITyADJ=14
 ICtDFT=  3500011 ScaDFX=  1.000000  1.000000  1.000000  1.000000
 FoFCou: FMM=F IPFlag=           0 FMFlag=      100000 FMFlg1=           0
         NFxFlg=           0 DoJE=T BraDBF=F KetDBF=T FulRan=T
         wScrn=  0.000000 ICntrl=     500 IOpCl=  0 I1Cent=   200000004 NGrid=           0
         NMat0=    1 NMatS0=      1 NMatT0=    0 NMatD0=    1 NMtDS0=    0 NMtDT0=    0
 Petite list used in FoFCou.
 Requested convergence on RMS density matrix=1.00D-08 within 128 cycles.
 Requested convergence on MAX density matrix=1.00D-06.
 Requested convergence on             energy=1.00D-06.
 No special actions if energy rises.
 Integral accuracy reduced to 1.0D-05 until final iterations.
 Initial convergence to 1.0D-05 achieved.  Increase integral accuracy.
 SCF Done:  E(RB3LYP) =  -839.950782479     A.U. after   14 cycles
            NFock= 14  Conv=0.73D-08     -V/T= 2.0086
 DoSCS=F DFT=T ScalE2(SS,OS)=  1.000000  1.000000
 Range of M.O.s used for correlation:     1   242
 NBasis=   242 NAE=    58 NBE=    58 NFC=     0 NFV=     0
 NROrb=    242 NOA=    58 NOB=    58 NVA=   184 NVB=   184
 Symmetrizing basis deriv contribution to polar:
 IMax=3 JMax=2 DiffMx= 0.00D+00
 G2DrvN: will do    31 centers at a time, making    1 passes.
 Calling FoFCou, ICntrl=  3107 FMM=F I1Cent=   0 AccDes= 0.00D+00.
 End of G2Drv F.D. properties file   721 does not exist.
 End of G2Drv F.D. properties file   722 does not exist.
 End of G2Drv F.D. properties file   788 does not exist.
          IDoAtm=111111111111111111111111111111
          Differentiating once with respect to nuclear coordinates.
          There are    93 degrees of freedom in the 1st order CPHF.  IDoFFX=6 NUNeed=     0.
     87 vectors produced by pass  0 Test12= 1.15D-14 1.08D-09 XBig12= 1.26D-01 7.37D-02.
 AX will form    87 AO Fock derivatives at one time.
     87 vectors produced by pass  1 Test12= 1.15D-14 1.08D-09 XBig12= 1.03D-02 1.40D-02.
     87 vectors produced by pass  2 Test12= 1.15D-14 1.08D-09 XBig12= 1.45D-04 2.44D-03.
     87 vectors produced by pass  3 Test12= 1.15D-14 1.08D-09 XBig12= 3.54D-07 5.84D-05.
     87 vectors produced by pass  4 Test12= 1.15D-14 1.08D-09 XBig12= 6.38D-10 2.44D-06.
     68 vectors produced by pass  5 Test12= 1.15D-14 1.08D-09 XBig12= 5.27D-13 5.46D-08.
      2 vectors produced by pass  6 Test12= 1.15D-14 1.08D-09 XBig12= 4.50D-16 1.89D-09.
 InvSVY:  IOpt=1 It=  1 EMax= 5.55D-16
 Solved reduced A of dimension   505 with    93 vectors.
 End of Minotr F.D. properties file   721 does not exist.
 End of Minotr F.D. properties file   722 does not exist.
 End of Minotr F.D. properties file   788 does not exist.

 **********************************************************************

            Population analysis using the SCF density.

 **********************************************************************

 Orbital symmetries:
       Occupied  (A) (A) (A) (A) (A) (A) (A) (A) (A) (A) (A) (A)
                 (A) (A) (A) (A) (A) (A) (A) (A) (A) (A) (A) (A)
                 (A) (A) (A) (A) (A) (A) (A) (A) (A) (A) (A) (A)
                 (A) (A) (A) (A) (A) (A) (A) (A) (A) (A) (A) (A)
                 (A) (A) (A) (A) (A) (A) (A) (A) (A) (A)
       Virtual   (A) (A) (A) (A) (A) (A) (A) (A) (A) (A) (A) (A)
                 (A) (A) (A) (A) (A) (A) (A) (A) (A) (A) (A) (A)
                 (A) (A) (A) (A) (A) (A) (A) (A) (A) (A) (A) (A)
                 (A) (A) (A) (A) (A) (A) (A) (A) (A) (A) (A) (A)
                 (A) (A) (A) (A) (A) (A) (A) (A) (A) (A) (A) (A)
                 (A) (A) (A) (A) (A) (A) (A) (A) (A) (A) (A) (A)
                 (A) (A) (A) (A) (A) (A) (A) (A) (A) (A) (A) (A)
                 (A) (A) (A) (A) (A) (A) (A) (A) (A) (A) (A) (A)
                 (A) (A) (A) (A) (A) (A) (A) (A) (A) (A) (A) (A)
                 (A) (A) (A) (A) (A) (A) (A) (A) (A) (A) (A) (A)
                 (A) (A) (A) (A) (A) (A) (A) (A) (A) (A) (A) (A)
                 (A) (A) (A) (A) (A) (A) (A) (A) (A) (A) (A) (A)
                 (A) (A) (A) (A) (A) (A) (A) (A) (A) (A) (A) (A)
                 (A) (A) (A) (A) (A) (A) (A) (A) (A) (A) (A) (A)
                 (A) (A) (A) (A) (A) (A) (A) (A) (A) (A) (A) (A)
                 (A) (A) (A) (A)
 The electronic state is 1-A.
 Alpha  occ. eigenvalues --  -19.19103 -19.16912 -19.16625 -19.16054 -19.15605
 Alpha  occ. eigenvalues --  -19.14013 -19.12746 -19.11380 -10.29340 -10.26061
 Alpha  occ. eigenvalues --  -10.25199 -10.24153 -10.24061 -10.23167  -1.06551
 Alpha  occ. eigenvalues --   -1.05787  -1.03321  -1.02830  -1.00482  -1.00215
 Alpha  occ. eigenvalues --   -0.99939  -0.98921  -0.77616  -0.75564  -0.70062
 Alpha  occ. eigenvalues --   -0.64402  -0.63316  -0.57002  -0.55828  -0.55234
 Alpha  occ. eigenvalues --   -0.54425  -0.52180  -0.51608  -0.50885  -0.49348
 Alpha  occ. eigenvalues --   -0.47676  -0.45706  -0.45067  -0.44362  -0.43225
 Alpha  occ. eigenvalues --   -0.41642  -0.40809  -0.39664  -0.39225  -0.38875
 Alpha  occ. eigenvalues --   -0.37366  -0.36202  -0.35692  -0.34439  -0.33054
 Alpha  occ. eigenvalues --   -0.31058  -0.29890  -0.29382  -0.28768  -0.27561
 Alpha  occ. eigenvalues --   -0.26933  -0.25559  -0.24197
 Alpha virt. eigenvalues --    0.01685   0.03854   0.04990   0.06482   0.07830
 Alpha virt. eigenvalues --    0.10111   0.11789   0.12653   0.13597   0.14462
 Alpha virt. eigenvalues --    0.15558   0.16183   0.17329   0.17776   0.19122
 Alpha virt. eigenvalues --    0.20536   0.21356   0.22220   0.23232   0.23754
 Alpha virt. eigenvalues --    0.25496   0.26098   0.26747   0.28973   0.29787
 Alpha virt. eigenvalues --    0.31383   0.32748   0.34964   0.51222   0.52312
 Alpha virt. eigenvalues --    0.54545   0.54973   0.55421   0.57355   0.59873
 Alpha virt. eigenvalues --    0.60386   0.61956   0.62615   0.65072   0.66018
 Alpha virt. eigenvalues --    0.68521   0.69651   0.71018   0.71183   0.74129
 Alpha virt. eigenvalues --    0.76400   0.77460   0.77846   0.79223   0.80512
 Alpha virt. eigenvalues --    0.81719   0.82346   0.83487   0.84271   0.85306
 Alpha virt. eigenvalues --    0.85876   0.86592   0.88297   0.88970   0.90152
 Alpha virt. eigenvalues --    0.91116   0.92097   0.92688   0.93379   0.94284
 Alpha virt. eigenvalues --    0.97221   0.98982   1.00822   1.01446   1.02120
 Alpha virt. eigenvalues --    1.03653   1.05231   1.06560   1.07493   1.09228
 Alpha virt. eigenvalues --    1.10078   1.10887   1.11755   1.12564   1.15336
 Alpha virt. eigenvalues --    1.17581   1.20693   1.23286   1.24189   1.25944
 Alpha virt. eigenvalues --    1.29115   1.32548   1.33098   1.37472   1.38772
 Alpha virt. eigenvalues --    1.41678   1.43509   1.46172   1.47901   1.50105
 Alpha virt. eigenvalues --    1.51099   1.54719   1.55297   1.57947   1.59224
 Alpha virt. eigenvalues --    1.59957   1.62794   1.64589   1.66964   1.67136
 Alpha virt. eigenvalues --    1.70666   1.70939   1.72682   1.73250   1.74264
 Alpha virt. eigenvalues --    1.74770   1.76372   1.77242   1.79773   1.80862
 Alpha virt. eigenvalues --    1.81809   1.83024   1.84798   1.86762   1.88045
 Alpha virt. eigenvalues --    1.89259   1.91042   1.91326   1.93824   1.96666
 Alpha virt. eigenvalues --    1.97797   1.99470   2.00848   2.03024   2.04711
 Alpha virt. eigenvalues --    2.05711   2.08038   2.09245   2.10866   2.13467
 Alpha virt. eigenvalues --    2.16841   2.19124   2.22025   2.22377   2.27798
 Alpha virt. eigenvalues --    2.29924   2.31084   2.33611   2.36739   2.41231
 Alpha virt. eigenvalues --    2.42987   2.45260   2.47334   2.49189   2.50320
 Alpha virt. eigenvalues --    2.53513   2.54389   2.57808   2.59912   2.60176
 Alpha virt. eigenvalues --    2.62318   2.64470   2.66006   2.67646   2.69007
 Alpha virt. eigenvalues --    2.71560   2.75420   2.79691   2.83822   2.87981
 Alpha virt. eigenvalues --    2.91820   2.96827   2.99960   3.03800   3.12931
 Alpha virt. eigenvalues --    3.74211   3.76860   3.79901   3.86033   3.90369
 Alpha virt. eigenvalues --    4.01132   4.05857   4.10590   4.24712   4.31536
 Alpha virt. eigenvalues --    4.48937   4.53784   4.63604   4.82773
          Condensed to atoms (all electrons):
               1          2          3          4          5          6
     1  O    8.588090  -0.036152  -0.005857  -0.009640   0.069460   0.159983
     2  C   -0.036152   5.050234  -0.032177   0.333840  -0.008768   0.280219
     3  C   -0.005857  -0.032177   5.095520   0.294296   0.291118  -0.009008
     4  C   -0.009640   0.333840   0.294296   4.846793  -0.019243  -0.018831
     5  C    0.069460  -0.008768   0.291118  -0.019243   4.805387  -0.013344
     6  C    0.159983   0.280219  -0.009008  -0.018831  -0.013344   5.000167
     7  H    0.000193  -0.058626  -0.056637   0.352592   0.005089  -0.001471
     8  H   -0.033284  -0.056404  -0.000868  -0.008399  -0.001669   0.358984
     9  H    0.001647   0.335533  -0.004355  -0.046776   0.002115  -0.043733
    10  H   -0.039340   0.000600  -0.085196   0.005045   0.352574   0.002475
    11  C   -0.034132  -0.026838   0.000285   0.003390   0.001000   0.322330
    12  H    0.000428  -0.008271   0.000017  -0.000018  -0.000076  -0.038800
    13  H    0.005095   0.005011   0.000002  -0.000101  -0.000070  -0.044636
    14  H    0.001943   0.005151   0.356064  -0.040647  -0.048872   0.000357
    15  O   -0.043670   0.000573  -0.055418   0.003971   0.322304   0.000256
    16  O    0.001453  -0.001351   0.000010  -0.000064  -0.000015  -0.034669
    17  H   -0.000006  -0.001236   0.000002  -0.000000  -0.000001  -0.001483
    18  O    0.000082  -0.000299   0.185120  -0.039655  -0.026830   0.001011
    19  H    0.000057  -0.000277  -0.031739   0.006878  -0.003571   0.000174
    20  O    0.000028  -0.043897  -0.043471   0.249641  -0.000550   0.003759
    21  H   -0.000002  -0.001463   0.005226  -0.020908  -0.000052   0.000052
    22  O    0.001321   0.185186   0.002978  -0.043053   0.000144  -0.023362
    23  H    0.000047  -0.018906  -0.000210   0.004056  -0.000001  -0.010324
    24  O   -0.097546  -0.001364  -0.000619   0.000035   0.012676   0.008183
    25  H    0.115714   0.001152   0.001357  -0.000080  -0.011434  -0.013742
    26  H    0.007927   0.000143   0.003941  -0.000246  -0.022728  -0.000760
    27  H    0.004430  -0.000016  -0.000004  -0.000005  -0.000449  -0.000552
    28  O    0.000000   0.001123   0.000049   0.003524  -0.000000  -0.000003
    29  H   -0.000000  -0.000318   0.000011   0.000404  -0.000000  -0.000003
    30  H   -0.000005  -0.004189   0.000034  -0.000326  -0.000002   0.000562
               7          8          9         10         11         12
     1  O    0.000193  -0.033284   0.001647  -0.039340  -0.034132   0.000428
     2  C   -0.058626  -0.056404   0.335533   0.000600  -0.026838  -0.008271
     3  C   -0.056637  -0.000868  -0.004355  -0.085196   0.000285   0.000017
     4  C    0.352592  -0.008399  -0.046776   0.005045   0.003390  -0.000018
     5  C    0.005089  -0.001669   0.002115   0.352574   0.001000  -0.000076
     6  C   -0.001471   0.358984  -0.043733   0.002475   0.322330  -0.038800
     7  H    0.644324   0.003702   0.007556  -0.000226  -0.000340   0.000005
     8  H    0.003702   0.612626   0.006950  -0.000086  -0.052704   0.005712
     9  H    0.007556   0.006950   0.642286   0.000222  -0.012874   0.005675
    10  H   -0.000226  -0.000086   0.000222   0.679460  -0.000129  -0.000006
    11  C   -0.000340  -0.052704  -0.012874  -0.000129   4.978255   0.362589
    12  H    0.000005   0.005712   0.005675  -0.000006   0.362589   0.586852
    13  H    0.000007  -0.006016  -0.000155   0.000004   0.365693  -0.039607
    14  H   -0.002358   0.000117  -0.000232   0.000043   0.000015  -0.000000
    15  O   -0.000023  -0.000092   0.006334  -0.045154  -0.000035  -0.000026
    16  O   -0.000002   0.000525   0.000095   0.000000   0.214415  -0.035238
    17  H    0.000004   0.005593   0.000098  -0.000000  -0.028979   0.007206
    18  O    0.005799   0.010557   0.000098   0.000881   0.000291  -0.000006
    19  H   -0.000015  -0.000347   0.000027   0.010428  -0.000028   0.000000
    20  O   -0.035974   0.000024   0.003762  -0.000098  -0.000045  -0.000002
    21  H   -0.003517   0.000002   0.000104   0.000007  -0.000001   0.000000
    22  O    0.001975   0.004329  -0.038095   0.000002   0.001211   0.000268
    23  H   -0.000023  -0.000224  -0.000856  -0.000000  -0.004919  -0.001311
    24  O   -0.000001  -0.000153   0.001393   0.001125  -0.000431   0.001204
    25  H    0.000005   0.001997   0.001373   0.001486  -0.003853   0.003947
    26  H    0.000011   0.000034   0.000032  -0.003750  -0.000002  -0.000066
    27  H    0.000000   0.000033   0.000957  -0.000031  -0.000170   0.001811
    28  O    0.000638   0.000000   0.000270  -0.000000  -0.000001   0.000000
    29  H    0.000112   0.000000  -0.000002   0.000000   0.000000  -0.000000
    30  H    0.000103  -0.000028  -0.000892   0.000000  -0.000003  -0.000008
              13         14         15         16         17         18
     1  O    0.005095   0.001943  -0.043670   0.001453  -0.000006   0.000082
     2  C    0.005011   0.005151   0.000573  -0.001351  -0.001236  -0.000299
     3  C    0.000002   0.356064  -0.055418   0.000010   0.000002   0.185120
     4  C   -0.000101  -0.040647   0.003971  -0.000064  -0.000000  -0.039655
     5  C   -0.000070  -0.048872   0.322304  -0.000015  -0.000001  -0.026830
     6  C   -0.044636   0.000357   0.000256  -0.034669  -0.001483   0.001011
     7  H    0.000007  -0.002358  -0.000023  -0.000002   0.000004   0.005799
     8  H   -0.006016   0.000117  -0.000092   0.000525   0.005593   0.010557
     9  H   -0.000155  -0.000232   0.006334   0.000095   0.000098   0.000098
    10  H    0.000004   0.000043  -0.045154   0.000000  -0.000000   0.000881
    11  C    0.365693   0.000015  -0.000035   0.214415  -0.028979   0.000291
    12  H   -0.039607  -0.000000  -0.000026  -0.035238   0.007206  -0.000006
    13  H    0.583579  -0.000000   0.000010  -0.027317  -0.006733   0.000002
    14  H   -0.000000   0.580841   0.002462  -0.000000  -0.000000  -0.031343
    15  O    0.000010   0.002462   8.351472   0.000000  -0.000000   0.001874
    16  O   -0.027317  -0.000000   0.000000   8.226551   0.236244  -0.000000
    17  H   -0.006733  -0.000000  -0.000000   0.236244   0.381913  -0.000004
    18  O    0.000002  -0.031343   0.001874  -0.000000  -0.000004   8.294626
    19  H    0.000002  -0.001754   0.000088   0.000000   0.000000   0.232378
    20  O    0.000000   0.008063   0.000451   0.000000  -0.000000   0.001025
    21  H   -0.000000   0.000031   0.000069   0.000000  -0.000000  -0.000084
    22  O   -0.000193  -0.000058   0.000024  -0.021288   0.002552  -0.000043
    23  H    0.001031   0.000005   0.000000   0.059939  -0.004035   0.000003
    24  O   -0.000047   0.000007  -0.098610   0.000002  -0.000001   0.000002
    25  H    0.000672  -0.000075   0.012905   0.000104   0.000016   0.000052
    26  H    0.000008  -0.000115   0.128305  -0.000000   0.000000  -0.000051
    27  H   -0.000024  -0.000001   0.005353   0.000003   0.000001  -0.000000
    28  O   -0.000000   0.000001  -0.000000  -0.000000   0.000000   0.000000
    29  H    0.000000  -0.000000   0.000000   0.000000  -0.000000  -0.000000
    30  H    0.000001  -0.000004   0.000000   0.000030  -0.000006  -0.000000
              19         20         21         22         23         24
     1  O    0.000057   0.000028  -0.000002   0.001321   0.000047  -0.097546
     2  C   -0.000277  -0.043897  -0.001463   0.185186  -0.018906  -0.001364
     3  C   -0.031739  -0.043471   0.005226   0.002978  -0.000210  -0.000619
     4  C    0.006878   0.249641  -0.020908  -0.043053   0.004056   0.000035
     5  C   -0.003571  -0.000550  -0.000052   0.000144  -0.000001   0.012676
     6  C    0.000174   0.003759   0.000052  -0.023362  -0.010324   0.008183
     7  H   -0.000015  -0.035974  -0.003517   0.001975  -0.000023  -0.000001
     8  H   -0.000347   0.000024   0.000002   0.004329  -0.000224  -0.000153
     9  H    0.000027   0.003762   0.000104  -0.038095  -0.000856   0.001393
    10  H    0.010428  -0.000098   0.000007   0.000002  -0.000000   0.001125
    11  C   -0.000028  -0.000045  -0.000001   0.001211  -0.004919  -0.000431
    12  H    0.000000  -0.000002   0.000000   0.000268  -0.001311   0.001204
    13  H    0.000002   0.000000  -0.000000  -0.000193   0.001031  -0.000047
    14  H   -0.001754   0.008063   0.000031  -0.000058   0.000005   0.000007
    15  O    0.000088   0.000451   0.000069   0.000024   0.000000  -0.098610
    16  O    0.000000   0.000000   0.000000  -0.021288   0.059939   0.000002
    17  H    0.000000  -0.000000  -0.000000   0.002552  -0.004035  -0.000001
    18  O    0.232378   0.001025  -0.000084  -0.000043   0.000003   0.000002
    19  H    0.392268  -0.000119   0.000007   0.000004  -0.000001   0.000003
    20  O   -0.000119   8.341832   0.204957   0.000501  -0.000114  -0.000000
    21  H    0.000007   0.204957   0.324579   0.001316  -0.000026   0.000000
    22  O    0.000004   0.000501   0.001316   8.372623   0.213081   0.000001
    23  H   -0.000001  -0.000114  -0.000026   0.213081   0.336213  -0.000000
    24  O    0.000003  -0.000000   0.000000   0.000001  -0.000000   8.516692
    25  H   -0.000003  -0.000002  -0.000000  -0.000023   0.000003   0.123476
    26  H   -0.000016   0.000045  -0.000003  -0.000003  -0.000000   0.133150
    27  H   -0.000000  -0.000000  -0.000000  -0.000001  -0.000000   0.227849
    28  O   -0.000000  -0.025196   0.076032  -0.022315   0.000432   0.000000
    29  H    0.000000   0.001222  -0.003626   0.001150  -0.000020  -0.000000
    30  H    0.000000   0.004315  -0.009002   0.056506  -0.000940  -0.000000
              25         26         27         28         29         30
     1  O    0.115714   0.007927   0.004430   0.000000  -0.000000  -0.000005
     2  C    0.001152   0.000143  -0.000016   0.001123  -0.000318  -0.004189
     3  C    0.001357   0.003941  -0.000004   0.000049   0.000011   0.000034
     4  C   -0.000080  -0.000246  -0.000005   0.003524   0.000404  -0.000326
     5  C   -0.011434  -0.022728  -0.000449  -0.000000  -0.000000  -0.000002
     6  C   -0.013742  -0.000760  -0.000552  -0.000003  -0.000003   0.000562
     7  H    0.000005   0.000011   0.000000   0.000638   0.000112   0.000103
     8  H    0.001997   0.000034   0.000033   0.000000   0.000000  -0.000028
     9  H    0.001373   0.000032   0.000957   0.000270  -0.000002  -0.000892
    10  H    0.001486  -0.003750  -0.000031  -0.000000   0.000000   0.000000
    11  C   -0.003853  -0.000002  -0.000170  -0.000001   0.000000  -0.000003
    12  H    0.003947  -0.000066   0.001811   0.000000  -0.000000  -0.000008
    13  H    0.000672   0.000008  -0.000024  -0.000000   0.000000   0.000001
    14  H   -0.000075  -0.000115  -0.000001   0.000001  -0.000000  -0.000004
    15  O    0.012905   0.128305   0.005353  -0.000000   0.000000   0.000000
    16  O    0.000104  -0.000000   0.000003  -0.000000   0.000000   0.000030
    17  H    0.000016   0.000000   0.000001   0.000000  -0.000000  -0.000006
    18  O    0.000052  -0.000051  -0.000000   0.000000  -0.000000  -0.000000
    19  H   -0.000003  -0.000016  -0.000000  -0.000000   0.000000   0.000000
    20  O   -0.000002   0.000045  -0.000000  -0.025196   0.001222   0.004315
    21  H   -0.000000  -0.000003  -0.000000   0.076032  -0.003626  -0.009002
    22  O   -0.000023  -0.000003  -0.000001  -0.022315   0.001150   0.056506
    23  H    0.000003  -0.000000  -0.000000   0.000432  -0.000020  -0.000940
    24  O    0.123476   0.133150   0.227849   0.000000  -0.000000  -0.000000
    25  H    0.318448  -0.019858  -0.004366  -0.000000   0.000000   0.000000
    26  H   -0.019858   0.311765  -0.005882   0.000000  -0.000000  -0.000000
    27  H   -0.004366  -0.005882   0.364406  -0.000000   0.000000   0.000000
    28  O   -0.000000   0.000000  -0.000000   8.318993   0.240776   0.211761
    29  H    0.000000  -0.000000   0.000000   0.240776   0.383100  -0.015777
    30  H    0.000000  -0.000000   0.000000   0.211761  -0.015777   0.329589
 Mulliken charges:
               1
     1  O   -0.658264
     2  C    0.101785
     3  C    0.089529
     4  C    0.143525
     5  C    0.295809
     6  C    0.116212
     7  H    0.137099
     8  H    0.149089
     9  H    0.131445
    10  H    0.119662
    11  C   -0.083988
    12  H    0.147722
    13  H    0.163786
    14  H    0.170362
    15  O   -0.593423
    16  O   -0.619425
    17  H    0.408857
    18  O   -0.635486
    19  H    0.395554
    20  O   -0.670158
    21  H    0.426301
    22  O   -0.696739
    23  H    0.427100
    24  O   -0.827027
    25  H    0.470728
    26  H    0.468122
    27  H    0.406656
    28  O   -0.806083
    29  H    0.392971
    30  H    0.428278
 Sum of Mulliken charges =  -0.00000
 Mulliken charges with hydrogens summed into heavy atoms:
               1
     1  O   -0.658264
     2  C    0.233230
     3  C    0.259891
     4  C    0.280624
     5  C    0.415471
     6  C    0.265301
    11  C    0.227520
    15  O   -0.593423
    16  O   -0.210568
    18  O   -0.239932
    20  O   -0.243858
    22  O   -0.269639
    24  O    0.518480
    28  O    0.015166
 APT charges:
               1
     1  O   -0.443068
     2  C   -0.104117
     3  C   -0.342176
     4  C   -0.350022
     5  C   -0.328741
     6  C   -0.231448
     7  H    0.389109
     8  H    0.366365
     9  H    0.277098
    10  H    0.492646
    11  C   -0.707212
    12  H    0.336923
    13  H    0.542065
    14  H    0.541718
    15  O   -0.367385
    16  O   -0.766722
    17  H    0.677847
    18  O   -0.860653
    19  H    0.752010
    20  O   -0.701521
    21  H    0.560343
    22  O   -0.815368
    23  H    0.587325
    24  O   -0.906172
    25  H    0.390354
    26  H    0.353589
    27  H    0.585004
    28  O   -0.952054
    29  H    0.850066
    30  H    0.174198
 Sum of APT charges =  -0.00000
 APT charges with hydrogens summed into heavy atoms:
               1
     1  O   -0.443068
     2  C    0.172981
     3  C    0.199543
     4  C    0.039087
     5  C    0.163904
     6  C    0.134917
    11  C    0.171775
    15  O   -0.367385
    16  O   -0.088876
    18  O   -0.108643
    20  O   -0.141178
    22  O   -0.228042
    24  O    0.422776
    28  O    0.072209
 Electronic spatial extent (au):  <R**2>=           3058.2439
 Charge=             -0.0000 electrons
 Dipole moment (field-independent basis, Debye):
    X=             -0.7067    Y=              3.7711    Z=              2.7184  Tot=              4.7022
 Quadrupole moment (field-independent basis, Debye-Ang):
   XX=            -82.8797   YY=            -83.4775   ZZ=            -81.7901
   XY=              3.0441   XZ=              2.5595   YZ=             -3.7330
 Traceless Quadrupole moment (field-independent basis, Debye-Ang):
   XX=             -0.1640   YY=             -0.7617   ZZ=              0.9256
   XY=              3.0441   XZ=              2.5595   YZ=             -3.7330
 Octapole moment (field-independent basis, Debye-Ang**2):
  XXX=             61.7716  YYY=             12.0522  ZZZ=            -13.4747  XYY=            -10.2633
  XXY=             -8.4331  XXZ=             36.3603  XZZ=            -21.0337  YZZ=             23.5897
  YYZ=             27.9392  XYZ=             10.3344
 Hexadecapole moment (field-independent basis, Debye-Ang**3):
 XXXX=          -1447.8139 YYYY=          -1420.7477 ZZZZ=           -547.3522 XXXY=              1.7651
 XXXZ=             34.9799 YYYX=             10.0849 YYYZ=             35.9889 ZZZX=             22.6668
 ZZZY=             -1.3274 XXYY=           -467.3897 XXZZ=           -396.6905 YYZZ=           -285.3656
 XXYZ=            -31.7576 YYXZ=             -5.3633 ZZXY=             18.1774
 N-N= 1.117917505004D+03 E-N=-4.208277633367D+03  KE= 8.328062861977D+02
  Exact polarizability:   0.000   0.000   0.000   0.000   0.000   0.000
 Approx polarizability: 133.650   1.349 140.278   2.462   8.086 139.956
 Calling FoFJK, ICntrl=    100147 FMM=F ISym2X=0 I1Cent= 0 IOpClX= 0 NMat=1 NMatS=1 NMatT=0.
 ***** Axes restored to original set *****
 -------------------------------------------------------------------
 Center     Atomic                   Forces (Hartrees/Bohr)
 Number     Number              X              Y              Z
 -------------------------------------------------------------------
      1        8           0.000167937   -0.000032428    0.000122776
      2        6          -0.000026813   -0.000014148    0.000024711
      3        6          -0.000032636    0.000126931   -0.000091665
      4        6           0.000070292   -0.000003575   -0.000123297
      5        6           0.000121123    0.000006956   -0.000096538
      6        6          -0.000071519   -0.000025159    0.000005454
      7        1           0.000003517   -0.000086238    0.000085005
      8        1           0.000024536   -0.000068420   -0.000074773
      9        1          -0.000016301    0.000023814    0.000022563
     10        1          -0.000072006   -0.000017144    0.000118356
     11        6          -0.000035056   -0.000122719   -0.000139348
     12        1           0.000129755   -0.000014386    0.000305018
     13        1           0.000094376    0.000056869   -0.000174753
     14        1           0.000052878    0.000069618   -0.000027090
     15        8           0.000107999    0.000084108   -0.000101470
     16        8          -0.000164949    0.000029629    0.000616415
     17        1          -0.000056603    0.000144744   -0.000378918
     18        8          -0.000150176    0.000357369    0.000106070
     19        1           0.000123348   -0.000451869    0.000065350
     20        8          -0.000010752    0.000014263   -0.000024386
     21        1          -0.000099564   -0.000057011    0.000020496
     22        8          -0.000037525   -0.000209513    0.000072233
     23        1          -0.000000302    0.000128358   -0.000010679
     24        8          -0.000145595    0.000060758    0.000092740
     25        1          -0.000003068   -0.000026537   -0.000037629
     26        1           0.000026228    0.000038984    0.000023161
     27        1           0.000288274   -0.000123677   -0.000273839
     28        8           0.000879112    0.000920690    0.001611338
     29        1          -0.001183215   -0.000772177   -0.001540587
     30        1           0.000016709   -0.000038089   -0.000196715
 -------------------------------------------------------------------
 Cartesian Forces:  Max     0.001611338 RMS     0.000337886

 GradGradGradGradGradGradGradGradGradGradGradGradGradGradGradGradGradGrad
 Berny optimization.
 Search for a saddle point.
 Step number   1 out of a maximum of  180
 All quantities printed in internal units (Hartrees-Bohrs-Radians)
 Swapping is turned off.
 Second derivative matrix not updated -- analytic derivatives used.
 ITU=  0
     Eigenvalues ---   -0.13359   0.00005   0.00061   0.00114   0.00125
     Eigenvalues ---    0.00173   0.00249   0.00294   0.00378   0.00487
     Eigenvalues ---    0.00581   0.00939   0.01063   0.01110   0.01300
     Eigenvalues ---    0.01582   0.01715   0.01972   0.02129   0.02328
     Eigenvalues ---    0.02730   0.02761   0.03185   0.03421   0.03686
     Eigenvalues ---    0.03937   0.04126   0.04553   0.04670   0.05086
     Eigenvalues ---    0.05344   0.05427   0.05769   0.06170   0.07097
     Eigenvalues ---    0.07141   0.07692   0.08213   0.08788   0.09392
     Eigenvalues ---    0.09895   0.10462   0.10894   0.11242   0.12518
     Eigenvalues ---    0.13227   0.13487   0.15603   0.16884   0.17364
     Eigenvalues ---    0.17391   0.19352   0.20150   0.21258   0.23045
     Eigenvalues ---    0.24359   0.27656   0.29074   0.31160   0.33095
     Eigenvalues ---    0.37595   0.40501   0.49735   0.55886   0.58323
     Eigenvalues ---    0.62185   0.63130   0.66093   0.67542   0.71142
     Eigenvalues ---    0.76463   0.78421   0.81105   0.83037   0.84232
     Eigenvalues ---    0.86501   0.92199   0.95157   0.97167   0.99957
     Eigenvalues ---    1.03895   1.05350   1.09953   1.16137
 Eigenvectors required to have negative eigenvalues:
                          Z25       Y26       Y5        X25       X26
   1                    0.53919  -0.47472   0.32461   0.27361  -0.27194
                          Y1        Z26       Y15       Y24       Z24
   1                   -0.25298  -0.21626   0.15538   0.15089  -0.10611
 RFO step:  Lambda0=8.353546174D-09 Lambda=-3.78485223D-04.
 Linear search not attempted -- option 19 set.
 Maximum step size (   0.300) exceeded in Quadratic search.
    -- Step size scaled by   0.427
 B after Tr=    -0.001315    0.001758    0.002679
         Rot=    1.000000   -0.000053   -0.000074    0.000103 Ang=  -0.02 deg.
 Variable       Old X    -DE/DX   Delta X   Delta X   Delta X     New X
                                 (Linear)    (Quad)   (Total)
    X1        3.24329   0.00017   0.00000  -0.00090  -0.00216   3.24113
    Y1        0.76455  -0.00003   0.00000  -0.00009   0.00107   0.76562
    Z1       -0.66517   0.00012   0.00000  -0.01108  -0.00879  -0.67396
    X2       -1.29859  -0.00003   0.00000   0.00227   0.00112  -1.29746
    Y2        0.64569  -0.00001   0.00000   0.00574   0.00774   0.65344
    Z2        0.19817   0.00002   0.00000   0.01710   0.02004   0.21821
    X3        0.75053  -0.00003   0.00000  -0.00917  -0.01142   0.73911
    Y3       -3.34440   0.00013   0.00000  -0.00180  -0.00002  -3.34441
    Z3       -1.69674  -0.00009   0.00000   0.01899   0.02121  -1.67553
    X4       -1.71008   0.00007   0.00000  -0.00328  -0.00513  -1.71522
    Y4       -2.07324  -0.00000   0.00000   0.00431   0.00650  -2.06674
    Z4       -0.79190  -0.00012   0.00000   0.02520   0.02791  -0.76399
    X5        3.06186   0.00012   0.00000   0.00146  -0.00041   3.06144
    Y5       -2.61533   0.00001   0.00000   0.00516   0.00630  -2.60902
    Z5       -0.15490  -0.00010   0.00000   0.00044   0.00239  -0.15251
    X6        0.90116  -0.00007   0.00000  -0.00309  -0.00416   0.89700
    Y6        2.01741  -0.00003   0.00000   0.00254   0.00423   2.02164
    Z6       -1.12901   0.00001   0.00000   0.00463   0.00740  -1.12161
    X7       -2.89855   0.00000   0.00000  -0.00871  -0.01078  -2.90934
    Y7       -1.89636  -0.00009   0.00000   0.00048   0.00310  -1.89325
    Z7       -2.49359   0.00009   0.00000   0.02874   0.03164  -2.46195
    X8        0.55770   0.00002   0.00000  -0.01553  -0.01691   0.54079
    Y8        1.98615  -0.00007   0.00000   0.00364   0.00563   1.99178
    Z8       -3.17553  -0.00007   0.00000   0.00667   0.00948  -3.16605
    X9       -0.86631  -0.00002   0.00000   0.00882   0.00794  -0.85837
    Y9        0.51364   0.00002   0.00000   0.01016   0.01186   0.52549
    Z9        2.22721   0.00002   0.00000   0.01589   0.01875   2.24596
   X10        4.86795  -0.00007   0.00000  -0.00595  -0.00803   4.85992
   Y10       -2.88904  -0.00002   0.00000  -0.00004   0.00084  -2.88820
   Z10       -1.16848   0.00012   0.00000  -0.01057  -0.00892  -1.17740
   X11        1.22443  -0.00004   0.00000   0.00796   0.00759   1.23202
   Y11        4.77558  -0.00012   0.00000   0.00103   0.00257   4.77814
   Z11       -0.26696  -0.00014   0.00000   0.00649   0.00950  -0.25746
   X12        1.42067   0.00013   0.00000   0.03785   0.03780   1.45847
   Y12        4.86471  -0.00001   0.00000  -0.00604  -0.00477   4.85994
   Z12        1.79107   0.00031   0.00000   0.00426   0.00724   1.79831
   X13        2.95397   0.00009   0.00000  -0.00382  -0.00416   2.94981
   Y13        5.55440   0.00006   0.00000   0.00339   0.00466   5.55906
   Z13       -1.10549  -0.00017   0.00000  -0.01601  -0.01317  -1.11866
   X14        0.48220   0.00005   0.00000  -0.00910  -0.01173   0.47047
   Y14       -5.39232   0.00007   0.00000  -0.00014   0.00167  -5.39064
   Z14       -1.45162  -0.00003   0.00000   0.03167   0.03371  -1.41791
   X15        3.01266   0.00011   0.00000   0.01706   0.01546   3.02812
   Y15       -2.99859   0.00008   0.00000   0.01317   0.01406  -2.98453
   Z15        2.24065  -0.00010   0.00000   0.00250   0.00441   2.24506
   X16       -0.92179  -0.00016   0.00000   0.00063   0.00050  -0.92129
   Y16        6.32727   0.00003   0.00000   0.00470   0.00673   6.33400
   Z16       -0.83797   0.00062   0.00000   0.04313   0.04662  -0.79135
   X17       -1.04841  -0.00006   0.00000  -0.01757  -0.01793  -1.06634
   Y17        6.46275   0.00014   0.00000   0.02402   0.02628   6.48903
   Z17       -2.66322  -0.00038   0.00000   0.04551   0.04904  -2.61418
   X18        1.06111  -0.00015   0.00000  -0.02393  -0.02643   1.03467
   Y18       -2.69884   0.00036   0.00000  -0.01475  -0.01275  -2.71159
   Z18       -4.29369   0.00011   0.00000   0.01407   0.01630  -4.27739
   X19        2.76683   0.00012   0.00000  -0.04861  -0.05130   2.71553
   Y19       -3.13782  -0.00045   0.00000  -0.08354  -0.08183  -3.21965
   Z19       -4.80241   0.00007   0.00000  -0.00989  -0.00795  -4.81036
   X20       -2.81534  -0.00001   0.00000  -0.00176  -0.00367  -2.81902
   Y20       -3.66615   0.00001   0.00000   0.01239   0.01462  -3.65153
   Z20        1.02614  -0.00002   0.00000   0.03398   0.03668   1.06283
   X21       -4.47013  -0.00010   0.00000  -0.00718  -0.00888  -4.47901
   Y21       -2.95907  -0.00006   0.00000   0.00929   0.01180  -2.94727
   Z21        1.50340   0.00002   0.00000   0.02060   0.02363   1.52703
   X22       -3.62491  -0.00004   0.00000   0.00142   0.00049  -3.62443
   Y22        1.99629  -0.00021   0.00000   0.00452   0.00704   2.00332
   Z22       -0.18649   0.00007   0.00000   0.02000   0.02343  -0.16306
   X23       -3.25890  -0.00000   0.00000  -0.00116  -0.00170  -3.26060
   Y23        3.80425   0.00013   0.00000   0.00389   0.00632   3.81057
   Z23       -0.04770  -0.00001   0.00000   0.03557   0.03914  -0.00857
   X24        5.20629  -0.00015   0.00000   0.04713   0.04647   5.25276
   Y24        0.74232   0.00006   0.00000   0.00739   0.00770   0.75002
   Z24        3.42063   0.00009   0.00000  -0.03505  -0.03306   3.38757
   X25        4.22969  -0.00000   0.00000   0.02172   0.02085   4.25054
   Y25        1.18916  -0.00003   0.00000   0.00472   0.00546   1.19462
   Z25        1.40762  -0.00004   0.00000  -0.02629  -0.02411   1.38351
   X26        4.40351   0.00003   0.00000   0.03400   0.03289   4.43640
   Y26       -1.31219   0.00004   0.00000   0.01103   0.01154  -1.30066
   Z26        3.22856   0.00002   0.00000  -0.01672  -0.01483   3.21373
   X27        4.26785   0.00029   0.00000   0.07170   0.07140   4.33925
   Y27        1.54430  -0.00012   0.00000   0.01811   0.01847   1.56277
   Z27        4.77995  -0.00027   0.00000  -0.02492  -0.02271   4.75724
   X28       -7.19256   0.00088   0.00000  -0.05750  -0.05871  -7.25127
   Y28       -0.96530   0.00092   0.00000  -0.01183  -0.00880  -0.97410
   Z28        2.12970   0.00161   0.00000  -0.08096  -0.07732   2.05238
   X29       -8.50727  -0.00118   0.00000   0.04197   0.04049  -8.46678
   Y29       -1.25061  -0.00077   0.00000  -0.07428  -0.07086  -1.32147
   Z29        0.89294  -0.00154   0.00000  -0.17492  -0.17113   0.72181
   X30       -6.22645   0.00002   0.00000  -0.03846  -0.03947  -6.26592
   Y30        0.47141  -0.00004   0.00000  -0.01006  -0.00716   0.46425
   Z30        1.45491  -0.00020   0.00000  -0.05016  -0.04651   1.40839
         Item               Value     Threshold  Converged?
 Maximum Force            0.001611     0.000450     NO 
 RMS     Force            0.000338     0.000300     NO 
 Maximum Displacement     0.171134     0.001800     NO 
 RMS     Displacement     0.031551     0.001200     NO 
 Predicted change in Energy=-1.441111D-04
 GradGradGradGradGradGradGradGradGradGradGradGradGradGradGradGradGradGrad

                          Input orientation:                          
 ---------------------------------------------------------------------
 Center     Atomic      Atomic             Coordinates (Angstroms)
 Number     Number       Type             X           Y           Z
 ---------------------------------------------------------------------
      1          8           0        1.715131    0.405148   -0.356644
      2          6           0       -0.686588    0.345784    0.115469
      3          6           0        0.391119   -1.769788   -0.886653
      4          6           0       -0.907655   -1.093672   -0.404288
      5          6           0        1.620045   -1.380636   -0.080706
      6          6           0        0.474673    1.069806   -0.593532
      7          1           0       -1.539554   -1.001867   -1.302806
      8          1           0        0.286175    1.054004   -1.675402
      9          1           0       -0.454230    0.278080    1.188513
     10          1           0        2.571757   -1.528370   -0.623051
     11          6           0        0.651955    2.528484   -0.136243
     12          1           0        0.771788    2.571767    0.951623
     13          1           0        1.560972    2.941726   -0.591969
     14          1           0        0.248961   -2.852606   -0.750324
     15          8           0        1.602413   -1.579346    1.188037
     16          8           0       -0.487526    3.351810   -0.418763
     17          1           0       -0.564285    3.433848   -1.383364
     18          8           0        0.547525   -1.434914   -2.263499
     19          1           0        1.436999   -1.703768   -2.545533
     20          8           0       -1.491760   -1.932308    0.562423
     21          1           0       -2.370190   -1.559628    0.808070
     22          8           0       -1.917963    1.060113   -0.086288
     23          1           0       -1.725434    2.016467   -0.004534
     24          8           0        2.779639    0.396893    1.792624
     25          1           0        2.249291    0.632164    0.732120
     26          1           0        2.347640   -0.688277    1.700633
     27          1           0        2.296234    0.826980    2.517422
     28          8           0       -3.837209   -0.515469    1.086075
     29          1           0       -4.480425   -0.699290    0.381966
     30          1           0       -3.315783    0.245671    0.745289
 ---------------------------------------------------------------------
                    Distance matrix (angstroms):
                    1          2          3          4          5
     1  O    0.000000
     2  C    2.448402   0.000000
     3  C    2.600820   2.577081   0.000000
     4  C    3.021215   1.546302   1.541630   0.000000
     5  C    1.809478   2.887831   1.520279   2.564434   0.000000
     6  C    1.427102   1.541239   2.855904   2.574350   2.753095
     7  H    3.669863   2.134296   2.119052   1.102297   3.408821
     8  H    2.049890   2.157560   2.933758   2.766491   3.201521
     9  H    2.666419   1.099999   3.035571   2.150421   2.943616
    10  H    2.131496   3.830754   2.209740   3.513279   1.105314
    11  C    2.384843   2.572788   4.371075   3.952752   4.027593
    12  H    2.701055   2.789447   4.730039   4.253759   4.172138
    13  H    2.552130   3.505840   4.863513   4.734319   4.352895
    14  H    3.594107   3.443044   1.100586   2.133390   2.120131
    15  O    2.517333   3.177429   2.409945   3.011946   1.284331
    16  O    3.679452   3.059611   5.217441   4.465313   5.191549
    17  H    3.927201   3.434763   5.313882   4.644881   5.444949
    18  O    2.895725   3.217671   1.425590   2.385510   2.432659
    19  H    3.052231   3.973816   1.962169   3.233349   2.492647
    20  O    4.073394   2.457188   2.381484   1.406776   3.225103
    21  H    4.680465   2.635300   3.246702   1.956000   4.091935
    22  O    3.701546   1.437796   3.739088   2.400132   4.298231
    23  H    3.815471   1.970985   4.426472   3.240606   4.768474
    24  O    2.398457   3.850999   4.192619   4.543605   2.830836
    25  H    1.233803   3.013579   3.441308   3.773094   2.260089
    26  H    2.414133   3.576111   3.419311   3.897690   2.044975
    27  H    2.962412   3.859813   4.686192   4.742384   3.475784
    28  O    5.810117   3.407381   4.831535   3.337333   5.647258
    29  H    6.336422   3.944160   5.146581   3.679459   6.155813
    30  H    5.152649   2.705432   4.523984   2.985707   5.262086
                    6          7          8          9         10
     6  C    0.000000
     7  H    2.975233   0.000000
     8  H    1.098282   2.774657   0.000000
     9  H    2.159948   3.003808   3.058148   0.000000
    10  H    3.339034   4.200256   3.605549   3.962527   0.000000
    11  C    1.538924   4.315897   2.162614   2.836009   4.514498
    12  H    2.175240   4.816183   3.072570   2.611559   4.746642
    13  H    2.164286   5.066605   2.522385   3.784993   4.583057
    14  H    3.932028   2.632348   4.014817   3.748968   2.676786
    15  O    3.385822   4.050893   4.106859   2.771247   2.054815
    16  O    2.482723   4.565391   2.730873   3.468755   5.763428
    17  H    2.700364   4.542379   2.544056   4.072534   5.919159
    18  O    3.011265   2.338025   2.570773   3.981739   2.607167
    19  H    3.525491   3.301046   3.112367   4.631152   2.239281
    20  O    3.770381   2.084966   4.133639   2.520768   4.252138
    21  H    4.119667   2.335989   4.478278   2.681941   5.145087
    22  O    2.445833   2.423813   2.717268   2.092656   5.210177
    23  H    2.466487   3.290958   2.786522   2.461973   5.604845
    24  O    3.385176   5.494875   4.321615   3.291957   3.096019
    25  H    2.257908   4.600688   3.134953   2.764543   2.570677
    26  H    3.444133   4.922323   4.322360   3.007755   2.481026
    27  H    3.613182   5.714201   4.655282   3.103602   3.935246
    28  O    4.891473   3.350008   5.204930   3.476314   6.709838
    29  H    5.351102   3.402753   5.479715   4.220902   7.171520
    30  H    4.103559   2.984298   4.414437   2.895856   6.299421
                   11         12         13         14         15
    11  C    0.000000
    12  H    1.095302   0.000000
    13  H    1.097619   1.772670   0.000000
    14  H    5.430988   5.709098   5.943125   0.000000
    15  O    4.419430   4.239997   4.859036   2.685194   0.000000
    16  O    1.433910   2.017993   2.096310   6.256766   5.591596
    17  H    1.963220   2.824967   2.320605   6.370369   6.036455
    18  O    4.499405   5.142061   4.793335   2.094920   3.612028
    19  H    4.932842   5.563525   5.041070   2.440089   3.739303
    20  O    4.998231   5.055870   5.865833   2.366509   3.176457
    21  H    5.170856   5.192404   6.138105   3.310639   3.990781
    22  O    2.960252   3.255322   3.987377   4.521712   4.580797
    23  H    2.435465   2.731065   3.464340   5.306817   5.042486
    24  O    3.576485   3.077146   3.694266   4.840472   2.378426
    25  H    2.627083   2.448113   2.749740   4.282825   2.348849
    26  H    4.073944   3.697596   4.364836   3.885353   1.269694
    27  H    3.555378   2.796417   3.831589   5.329995   2.835324
    28  O    5.559884   5.549050   6.626341   5.052856   5.543620
    29  H    6.085096   6.213700   7.120676   5.318453   6.198803
    30  H    4.661682   4.707604   5.730595   4.954148   5.264539
                   16         17         18         19         20
    16  O    0.000000
    17  H    0.971122   0.000000
    18  O    5.233269   5.071055   0.000000
    19  H    5.812556   5.634790   0.971076   0.000000
    20  O    5.467459   5.782899   3.520216   4.276593   0.000000
    21  H    5.401089   5.744430   4.238295   5.075639   0.985328
    22  O    2.721868   3.024809   4.128442   4.994266   3.091449
    23  H    1.867389   2.293122   4.709702   5.504344   3.996107
    24  O    4.929110   5.521939   4.978954   5.003505   5.018309
    25  H    4.026309   4.498990   4.017779   4.106020   4.538808
    26  H    5.371434   5.914580   4.417264   4.459867   4.193343
    27  H    4.769200   5.494949   5.570579   5.725075   5.077853
    28  O    5.332988   5.692738   5.593829   6.512902   2.789763
    29  H    5.744199   5.961155   5.728866   6.677958   3.238058
    30  H    4.359146   4.718726   5.177096   6.100718   2.846769
                   21         22         23         24         25
    21  H    0.000000
    22  O    2.804894   0.000000
    23  H    3.723505   0.978961   0.000000
    24  O    5.596254   5.102709   5.113559   0.000000
    25  H    5.113641   4.268365   4.272867   1.208838   0.000000
    26  H    4.879943   4.944222   5.178144   1.171615   1.640505
    27  H    5.513012   4.959145   4.893768   0.971591   1.796514
    28  O    1.822005   2.745979   3.472711   6.716718   6.203857
    29  H    2.318370   3.143401   3.887762   7.476637   6.869094
    30  H    2.038920   1.818993   2.495428   6.186595   5.578495
                   26         27         28         29         30
    26  H    0.000000
    27  H    1.722147   0.000000
    28  O    6.217709   6.439725   0.000000
    29  H    6.954242   7.267241   0.971229   0.000000
    30  H    5.818875   5.913807   0.983542   1.543161   0.000000
 Stoichiometry    C6H16O8
 Framework group  C1[X(C6H16O8)]
 Deg. of freedom    84
 Full point group                 C1      NOp   1
 Largest Abelian subgroup         C1      NOp   1
 Largest concise Abelian subgroup C1      NOp   1
                         Standard orientation:                         
 ---------------------------------------------------------------------
 Center     Atomic      Atomic             Coordinates (Angstroms)
 Number     Number       Type             X           Y           Z
 ---------------------------------------------------------------------
      1          8           0       -1.718973    0.382040    0.369596
      2          6           0        0.680750    0.352650   -0.115312
      3          6           0       -0.366963   -1.779502    0.883472
      4          6           0        0.921292   -1.086284    0.397190
      5          6           0       -1.604569   -1.401349    0.085613
      6          6           0       -0.485102    1.060121    0.602805
      7          1           0        1.556812   -0.990865    1.292773
      8          1           0       -0.290727    1.042009    1.683599
      9          1           0        0.443538    0.286715   -1.187404
     10          1           0       -2.551623   -1.562429    0.632295
     11          6           0       -0.681756    2.518528    0.152623
     12          1           0       -0.807822    2.564945   -0.934409
     13          1           0       -1.593104    2.919239    0.614838
     14          1           0       -0.212935   -2.860011    0.741824
     15          8           0       -1.591320   -1.594550   -1.184033
     16          8           0        0.449541    3.353898    0.432663
     17          1           0        0.530428    3.432803    1.397188
     18          8           0       -0.519989   -1.452216    2.262521
     19          1           0       -1.404773   -1.732596    2.548061
     20          8           0        1.510009   -1.914016   -0.576100
     21          1           0        2.382734   -1.530099   -0.824756
     22          8           0        1.904776    1.080440    0.083026
     23          1           0        1.700703    2.034817    0.006326
     24          8           0       -2.794637    0.370333   -1.774095
     25          1           0       -2.261475    0.607349   -0.715392
     26          1           0       -2.349560   -0.710101   -1.688954
     27          1           0       -2.320101    0.809044   -2.499585
     28          8           0        3.836016   -0.467757   -1.106006
     29          1           0        4.485033   -0.647000   -0.406052
     30          1           0        3.307573    0.285825   -0.759283
 ---------------------------------------------------------------------
 Rotational constants (GHZ):      0.6424790      0.5575083      0.4090029
 Standard basis: 6-31G(d) (6D, 7F)
 There are   242 symmetry adapted cartesian basis functions of A   symmetry.
 There are   242 symmetry adapted basis functions of A   symmetry.
   242 basis functions,   456 primitive gaussians,   242 cartesian basis functions
    58 alpha electrons       58 beta electrons
       nuclear repulsion energy      1117.4812728860 Hartrees.
 NAtoms=   30 NActive=   30 NUniq=   30 SFac= 1.00D+00 NAtFMM=   60 NAOKFM=F Big=F
 Integral buffers will be    131072 words long.
 Raffenetti 2 integral format.
 Two-electron integral symmetry is turned on.
 One-electron integrals computed using PRISM.
 NBasis=   242 RedAO= T EigKep=  1.37D-03  NBF=   242
 NBsUse=   242 1.00D-06 EigRej= -1.00D+00 NBFU=   242
 Initial guess from the checkpoint file:  "/scratch/10452970.yak.local/Gau-11582.chk"
 B after Tr=     0.000000    0.000000   -0.000000
         Rot=    0.999976   -0.001975   -0.002754   -0.006001 Ang=  -0.79 deg.
 ExpMin= 1.61D-01 ExpMax= 5.48D+03 ExpMxC= 8.25D+02 IAcc=1 IRadAn=         1 AccDes= 0.00D+00
 Harris functional with IExCor=  402 and IRadAn=       1 diagonalized for initial guess.
 HarFok:  IExCor=  402 AccDes= 0.00D+00 IRadAn=         1 IDoV= 1 UseB2=F ITyADJ=14
 ICtDFT=  3500011 ScaDFX=  1.000000  1.000000  1.000000  1.000000
 FoFCou: FMM=F IPFlag=           0 FMFlag=      100000 FMFlg1=           0
         NFxFlg=           0 DoJE=T BraDBF=F KetDBF=T FulRan=T
         wScrn=  0.000000 ICntrl=     500 IOpCl=  0 I1Cent=   200000004 NGrid=           0
         NMat0=    1 NMatS0=      1 NMatT0=    0 NMatD0=    1 NMtDS0=    0 NMtDT0=    0
 Petite list used in FoFCou.
 Requested convergence on RMS density matrix=1.00D-08 within 128 cycles.
 Requested convergence on MAX density matrix=1.00D-06.
 Requested convergence on             energy=1.00D-06.
 No special actions if energy rises.
 Integral accuracy reduced to 1.0D-05 until final iterations.
 Initial convergence to 1.0D-05 achieved.  Increase integral accuracy.
 SCF Done:  E(RB3LYP) =  -839.950912693     A.U. after   11 cycles
            NFock= 11  Conv=0.52D-08     -V/T= 2.0086
 Calling FoFJK, ICntrl=      2127 FMM=F ISym2X=0 I1Cent= 0 IOpClX= 0 NMat=1 NMatS=1 NMatT=0.
 ***** Axes restored to original set *****
 -------------------------------------------------------------------
 Center     Atomic                   Forces (Hartrees/Bohr)
 Number     Number              X              Y              Z
 -------------------------------------------------------------------
      1        8           0.000077978    0.000006843    0.000076855
      2        6          -0.000005350    0.000024907    0.000024081
      3        6           0.000014231    0.000076753   -0.000045569
      4        6           0.000038234    0.000023242   -0.000060829
      5        6           0.000085065   -0.000014334   -0.000032903
      6        6          -0.000038949   -0.000051231    0.000011555
      7        1           0.000000260   -0.000049167    0.000071631
      8        1           0.000007085   -0.000027922   -0.000026855
      9        1          -0.000006849    0.000008894    0.000014480
     10        1          -0.000063418   -0.000013361    0.000079628
     11        6          -0.000009152   -0.000030912   -0.000052515
     12        1           0.000063656    0.000001374    0.000098938
     13        1          -0.000002189    0.000029860   -0.000082661
     14        1           0.000033546    0.000057915   -0.000009737
     15        8           0.000093443    0.000077535   -0.000078241
     16        8          -0.000035377   -0.000010797    0.000305483
     17        1          -0.000025446    0.000073390   -0.000106937
     18        8           0.000625948   -0.000039911   -0.000170560
     19        1          -0.000676822   -0.000058143    0.000287706
     20        8          -0.000085254    0.000041953    0.000012248
     21        1          -0.000033428   -0.000057984    0.000010301
     22        8          -0.000017959   -0.000107021    0.000063166
     23        1          -0.000004735    0.000038523    0.000004125
     24        8          -0.000146542    0.000058842    0.000083129
     25        1          -0.000015620   -0.000011069   -0.000026295
     26        1           0.000025299    0.000037466   -0.000001014
     27        1           0.000246861   -0.000110536   -0.000250484
     28        8          -0.001427893   -0.000039063   -0.001391976
     29        1           0.001387874    0.000191504    0.001336967
     30        1          -0.000104498   -0.000127546   -0.000143717
 -------------------------------------------------------------------
 Cartesian Forces:  Max     0.001427893 RMS     0.000319161

 GradGradGradGradGradGradGradGradGradGradGradGradGradGradGradGradGradGrad
 Berny optimization.
 Search for a saddle point.
 Step number   2 out of a maximum of  180
 All quantities printed in internal units (Hartrees-Bohrs-Radians)
 Swapping is turned off.
 Update second derivatives using D2CorN and points    1    2
 ITU=  0  0
     Eigenvalues ---   -0.13359   0.00025   0.00064   0.00112   0.00128
     Eigenvalues ---    0.00174   0.00248   0.00313   0.00379   0.00487
     Eigenvalues ---    0.00582   0.00940   0.01065   0.01111   0.01300
     Eigenvalues ---    0.01583   0.01715   0.01972   0.02129   0.02328
     Eigenvalues ---    0.02730   0.02761   0.03187   0.03420   0.03686
     Eigenvalues ---    0.03937   0.04126   0.04553   0.04668   0.05086
     Eigenvalues ---    0.05346   0.05427   0.05770   0.06170   0.07097
     Eigenvalues ---    0.07142   0.07693   0.08212   0.08786   0.09392
     Eigenvalues ---    0.09896   0.10464   0.10893   0.11242   0.12518
     Eigenvalues ---    0.13229   0.13486   0.15602   0.16879   0.17368
     Eigenvalues ---    0.17391   0.19352   0.20148   0.21260   0.23055
     Eigenvalues ---    0.24361   0.27662   0.29075   0.31151   0.33096
     Eigenvalues ---    0.37597   0.40503   0.49736   0.55887   0.58323
     Eigenvalues ---    0.62190   0.63128   0.66093   0.67544   0.71140
     Eigenvalues ---    0.76446   0.78358   0.81101   0.83035   0.84234
     Eigenvalues ---    0.86498   0.92190   0.95178   0.97159   0.99964
     Eigenvalues ---    1.03884   1.05357   1.09972   1.16136
 Eigenvectors required to have negative eigenvalues:
                          Z25       Y26       Y5        X25       X26
   1                    0.53929  -0.47470   0.32459   0.27364  -0.27193
                          Y1        Z26       Y15       Y24       Z24
   1                   -0.25296  -0.21613   0.15539   0.15093  -0.10591
 RFO step:  Lambda0=4.960769615D-09 Lambda=-1.41581289D-04.
 Linear search not attempted -- option 19 set.
 Maximum step size (   0.300) exceeded in Quadratic search.
    -- Step size scaled by   0.630
 B after Tr=    -0.000403    0.000537    0.001743
         Rot=    1.000000   -0.000044    0.000075   -0.000039 Ang=  -0.01 deg.
 Variable       Old X    -DE/DX   Delta X   Delta X   Delta X     New X
                                 (Linear)    (Quad)   (Total)
    X1        3.24113   0.00008   0.00000  -0.00114  -0.00150   3.23963
    Y1        0.76562   0.00001   0.00000  -0.00190  -0.00105   0.76457
    Z1       -0.67396   0.00008   0.00000  -0.01933  -0.01703  -0.69099
    X2       -1.29746  -0.00001   0.00000   0.00053   0.00004  -1.29743
    Y2        0.65344   0.00002   0.00000   0.00139   0.00181   0.65524
    Z2        0.21821   0.00002   0.00000   0.01412   0.01572   0.23393
    X3        0.73911   0.00001   0.00000  -0.00629  -0.00618   0.73292
    Y3       -3.34441   0.00008   0.00000  -0.00671  -0.00597  -3.35039
    Z3       -1.67553  -0.00005   0.00000   0.02404   0.02560  -1.64993
    X4       -1.71522   0.00004   0.00000  -0.00367  -0.00380  -1.71902
    Y4       -2.06674   0.00002   0.00000   0.00026   0.00073  -2.06601
    Z4       -0.76399  -0.00006   0.00000   0.02049   0.02179  -0.74220
    X5        3.06144   0.00009   0.00000   0.00012  -0.00005   3.06139
    Y5       -2.60902  -0.00001   0.00000   0.00639   0.00718  -2.60184
    Z5       -0.15251  -0.00003   0.00000   0.00820   0.01017  -0.14234
    X6        0.89700  -0.00004   0.00000  -0.00481  -0.00520   0.89180
    Y6        2.02164  -0.00005   0.00000   0.00121   0.00192   2.02356
    Z6       -1.12161   0.00001   0.00000   0.00434   0.00640  -1.11522
    X7       -2.90934   0.00000   0.00000  -0.00259  -0.00247  -2.91181
    Y7       -1.89325  -0.00005   0.00000  -0.00304  -0.00252  -1.89577
    Z7       -2.46195   0.00007   0.00000   0.01981   0.02095  -2.44100
    X8        0.54079   0.00001   0.00000  -0.02045  -0.02053   0.52026
    Y8        1.99178  -0.00003   0.00000   0.00918   0.01004   2.00182
    Z8       -3.16605  -0.00003   0.00000   0.00678   0.00878  -3.15727
    X9       -0.85837  -0.00001   0.00000   0.00302   0.00223  -0.85614
    Y9        0.52549   0.00001   0.00000   0.00504   0.00531   0.53080
    Z9        2.24596   0.00001   0.00000   0.01355   0.01521   2.26117
   X10        4.85992  -0.00006   0.00000  -0.00488  -0.00488   4.85504
   Y10       -2.88820  -0.00001   0.00000  -0.00389  -0.00287  -2.89107
   Z10       -1.17740   0.00008   0.00000   0.00274   0.00496  -1.17243
   X11        1.23202  -0.00001   0.00000   0.00773   0.00699   1.23900
   Y11        4.77814  -0.00003   0.00000  -0.00289  -0.00224   4.77591
   Z11       -0.25746  -0.00005   0.00000   0.01496   0.01731  -0.24015
[...]
 812,0.00100456,0.00127919,0.00015506,-0.00025924,0.00009146,-0.0019964
 2,0.00062370,-0.00404183,0.00004441,0.00001170,0.00088077,-0.00134073,
 0.00071262,0.00014634,0.00059604,-0.00037758,-0.00024009,-0.00010017,0
 .00142613,-0.00007199,-0.00058277,-0.00068140,0.00009399,-0.06106528,0
 .27040390,-0.05249030,-0.01104354,-0.06624533,0.00075578,0.00133964,-0
 .00231809,0.00062302,-0.00124635,0.00095426,0.00115474,0.00104301,-0.0
 0031750,0.00034231,0.01942800,-0.01050766,0.00830299,-0.01088033,-0.00
 642185,-0.00007567,-0.00003078,0.00009086,-0.00411175,0.00247602,-0.00
 100696,-0.00039216,-0.00011392,0.00044078,-0.00000485,-0.00174751,0.00
 014663,0.00007861,-0.00207994,-0.00093211,-0.00035824,0.00066080,0.000
 46296,0.00007656,-0.00004336,0.00005053,-0.00066881,-0.00030524,-0.000
 52798,-0.00743890,-0.01222178,0.02045377,-0.00074977,0.00188410,0.0004
 2510,0.00013336,-0.00066853,0.00013317,-0.00057072,-0.00120913,-0.0000
 6508,0.00007676,0.00052437,0.00048883,-0.00090841,-0.00072674,0.000896
 87,0.00049442,-0.00004971,-0.00026536,-0.00244151,0.00003636,0.0013502
 0,0.00040527,-0.00032677,-0.00050530,-0.11997195,0.18484093,0.42685996
 ,-0.01393515,0.02221761,0.02033776,-0.00155603,-0.00066171,0.00002660,
 -0.00109161,0.00163437,-0.00026469,-0.00098769,-0.00137482,0.00006605,
 0.00185752,-0.02798302,0.01248064,-0.01702282,0.00441499,-0.00943400,0
 .00004043,0.00017473,0.00004846,0.00230684,-0.00148628,0.00167719,-0.0
 0022086,-0.00003035,0.00033478,-0.00013062,0.00209992,0.00065664,0.001
 19781,0.00284224,-0.00073591,0.00027418,0.00049533,0.00011975,-0.00007
 402,-0.00017897,0.00054558,0.00068640,0.00043874,0.00036606,-0.0099301
 4,-0.00495409,-0.01909604,0.00048801,-0.00244660,0.00005140,0.00000671
 ,0.00057609,-0.00016816,0.00061360,0.00143274,0.00008366,0.00001349,-0
 .00056630,-0.00044559,0.00075180,0.00081493,-0.00059353,-0.00049309,-0
 .00002129,0.00015726,0.00223901,-0.00017344,-0.00025791,-0.00034819,0.
 00036619,0.00029016,-0.04245242,0.00426045,0.00144563,0.04964229,0.002
 13849,-0.04465592,-0.01649980,-0.00054108,-0.00030344,-0.00024121,0.00
 050889,-0.00245701,-0.00012783,0.00004479,-0.00000550,0.00010449,-0.00
 790436,-0.00837963,-0.01502536,0.00232039,0.00283676,0.01127498,0.0000
 7992,-0.00003546,-0.00001758,0.00272985,-0.00164664,0.00046729,-0.0001
 9436,0.00024882,0.00008643,0.00020116,-0.00057455,0.00021440,0.0034817
 0,0.00007849,0.00301351,0.00051097,-0.00014087,-0.00111569,-0.00032150
 ,-0.00036045,0.00049855,-0.00045959,-0.00015962,-0.00029878,-0.0000292
 6,0.00281640,0.00177426,-0.00131305,-0.00043263,-0.00094905,-0.0001544
 9,0.00029232,-0.00001320,0.00022404,0.00009486,0.00066253,-0.00006983,
 -0.00002612,-0.00013608,0.00019723,0.00005002,0.00003179,-0.00012679,0
 .00003220,0.00002822,0.00053399,-0.00044705,-0.00008101,0.00024953,0.0
 0050228,0.00000596,0.01471169,-0.04796127,0.00825438,-0.01640865,0.109
 47102,0.02003545,0.00676778,-0.02231256,-0.00042682,-0.00339412,0.0050
 0203,-0.00122707,0.00426481,-0.00133651,-0.00169802,-0.00186270,0.0002
 7576,0.00160925,-0.04329672,0.03447306,-0.01156518,0.01942514,0.007654
 25,-0.00000988,0.00005487,-0.00014421,0.00594671,-0.00360246,0.0021361
 5,0.00061179,0.00012924,-0.00116829,0.00072775,0.00263826,-0.00034188,
 0.00012751,0.00399655,0.00414876,0.00076345,-0.00076726,-0.00155436,-0
 .00013924,0.00039487,-0.00019445,0.00145578,0.00094404,0.00079585,-0.0
 1657395,-0.01253886,-0.03783100,0.00121121,-0.00342709,-0.00116172,-0.
 00034180,0.00097783,-0.00032344,0.00035546,0.00178797,-0.00076196,-0.0
 0007276,-0.00074431,-0.00055433,0.00097568,0.00120938,-0.00127742,-0.0
 0059631,0.00000317,0.00029194,0.00435547,0.00021136,-0.00252485,-0.000
 64435,0.00057289,0.00082947,0.00720830,-0.02847421,-0.00427144,-0.0340
 7683,-0.00128787,0.01819588,-0.00712243,-0.01951580,-0.00594615,-0.000
 80246,0.00086779,-0.00075919,0.00088276,-0.00373376,0.00068891,-0.0010
 5389,0.00047829,0.00062333,0.00221578,0.02424058,-0.03861368,-0.002717
 28,-0.00086942,-0.00172760,0.00047169,-0.00014332,0.00003852,-0.000274
 66,-0.00004200,0.00001155,-0.00023115,0.00040028,0.00033619,-0.0005106
 4,0.00021475,0.00339105,0.00148099,0.00084855,0.00200261,0.00044215,-0
 .00012547,-0.00064064,-0.00014929,-0.00008694,0.00020494,-0.00062982,-
 0.00059095,0.00020263,-0.02335731,0.00610671,0.02937247,-0.00021249,-0
 .00135584,-0.00061271,-0.00007691,0.00032412,-0.00012268,0.00143630,-0
 .00040578,0.00294180,0.00001905,-0.00012147,-0.00075622,0.00118737,-0.
 00001982,-0.00029332,-0.00065007,0.00021273,0.00017665,0.00097791,-0.0
 0117385,0.00023126,0.00021936,0.00051985,-0.00000647,-0.04326798,-0.00
 407850,0.00070271,0.01956421,0.00764102,0.02412412,0.04584535,-0.01365
 509,-0.02534042,-0.01609695,-0.00001245,0.00131567,0.00030064,-0.00026
 860,-0.00488574,0.00439474,-0.00213239,0.00222687,0.00031694,0.0081075
 0,0.03931938,-0.05241056,-0.00087663,-0.00294219,-0.00174881,0.0005796
 0,-0.00049433,-0.00005696,-0.00108569,0.00054679,-0.00045327,0.0002331
 3,0.00052989,-0.00017798,-0.00321794,0.00004749,0.00574442,0.00223326,
 0.00041844,0.00329024,0.00059438,-0.00042445,-0.00105174,-0.00021978,-
 0.00015229,0.00018522,-0.00089891,-0.00070949,-0.00034410,0.01662507,-
 0.00261535,0.05072140,-0.00085762,-0.00110476,-0.00104939,-0.00008967,
 0.00027163,-0.00008856,0.00294527,-0.00061560,0.00579069,-0.00016811,-
 0.00011264,-0.00133768,0.00197103,-0.00099151,-0.00037802,-0.00083746,
 0.00053592,0.00037917,-0.00007531,-0.00167496,-0.00012640,0.00057583,0
 .00061029,-0.00002667,-0.00465224,-0.02690346,-0.01896251,0.02439722,-
 0.01268051,0.05770830,-0.02778044,0.04220467,-0.00359917,-0.00999112,-
 0.00449627,-0.00033402,0.00028219,0.00026623,0.00211263,-0.00099089,-0
 .00105924,-0.00079443,0.00043617,0.00026545,-0.01911963,-0.00348983,-0
 .03713260,-0.00216045,0.00009439,-0.00067809,0.00028448,-0.00013471,-0
 .00005718,0.00012004,-0.00013017,0.00004291,0.00005700,0.00016818,0.00
 003785,-0.00062769,0.00078746,0.00163607,0.00090275,0.00060075,0.00120
 538,0.00017997,-0.00007303,-0.00039116,-0.00008715,-0.00002733,0.00010
 334,-0.00021807,-0.00044192,0.00017725,0.01642099,0.01673134,-0.013015
 48,-0.00003120,-0.00087851,-0.00037121,-0.00005796,0.00020570,-0.00007
 516,0.00038933,-0.00017026,0.00096051,-0.00019587,-0.00010158,-0.00047
 366,0.00095115,-0.00008572,-0.00038761,-0.00039694,0.00017047,0.000252
 93,0.00061207,-0.00056582,-0.00019174,0.00006371,0.00024919,0.00008469
 ,0.01508541,0.02924443,-0.05799282,0.01063832,0.02147506,0.01010869,-0
 .01228485,-0.03078325,0.10099381,-0.00437807,0.00064296,-0.00358225,-0
 .00041055,0.00037041,-0.00110214,0.00011286,-0.00002734,-0.00014102,-0
 .00000178,-0.00030082,0.00011007,-0.00019867,0.00010451,-0.00021849,0.
 00013802,-0.00051385,-0.00104737,0.00004456,0.00008760,0.00006454,-0.0
 0026546,0.00014164,0.00005859,-0.00021895,-0.00012178,0.00038177,0.000
 00786,-0.00008824,0.00005102,-0.00021549,0.00006023,-0.00104162,-0.000
 03991,0.00053661,0.00017694,0.00000178,-0.00004909,0.00028541,-0.00001
 434,0.00003563,-0.00000500,-0.00317919,-0.00234409,-0.00002389,0.00004
 789,-0.00020568,0.00028644,0.00006273,0.00006037,-0.00000056,-0.000056
 54,0.00003370,0.00007601,-0.00001277,-0.00001004,-0.00003356,0.0001067
 0,0.00018333,0.00005625,-0.00012566,-0.00004842,-0.00002349,0.00035931
 ,-0.00018924,0.00040806,-0.00003430,0.00011377,-0.00011533,-0.11306494
 ,0.11292447,0.17541932,0.00874410,-0.00806423,-0.00179968,0.00616334,-
 0.00193789,-0.00802012,0.10646720,0.00418575,-0.00011333,0.00404828,-0
 .00021754,0.00002515,-0.00032405,0.00000004,-0.00009824,-0.00016128,-0
 .00005816,0.00002649,0.00003999,0.00005008,0.00002507,0.00052432,-0.00
 057197,0.00097253,0.00009541,0.00004913,0.00000394,0.00002359,0.000189
 83,-0.00033471,0.00007878,-0.00014151,0.00006906,0.00009986,0.00014622
 ,0.00007569,0.00017139,0.00046294,0.00013769,0.00120664,0.00036091,-0.
 00000318,-0.00033241,-0.00006766,-0.00004498,0.00003638,0.00003051,0.0
 0001301,0.00002747,-0.00564343,-0.00277328,0.00117256,-0.00036192,-0.0
 0025142,-0.00040123,-0.00004747,0.00010609,-0.00002038,0.00005663,0.00
 002472,0.00014517,-0.00001076,-0.00002322,-0.00006525,0.00009067,-0.00
 002898,0.00009350,-0.00009766,0.00002926,-0.00002267,0.00031078,-0.000
 33652,0.00007410,0.00014333,0.00025869,-0.00001191,0.09381992,-0.13801
 583,-0.15904750,-0.00969220,0.00388062,-0.00139195,0.01835161,-0.00617
 782,-0.02245443,-0.10136790,0.14256941,-0.00452274,0.00203306,-0.00118
 139,-0.00035461,0.00031732,-0.00044421,-0.00004845,-0.00015379,-0.0000
 9087,-0.00013178,-0.00026871,0.00014535,0.00047352,0.00064097,-0.00138
 854,-0.00040245,-0.00086325,-0.00162515,0.00005097,0.00005773,0.000020
 24,-0.00028170,0.00024398,0.00008723,-0.00013992,-0.00009249,0.0002856
 1,-0.00016649,0.00004894,0.00011054,-0.00036607,-0.00001187,-0.0014252
 5,-0.00035364,0.00048069,0.00067176,0.00003335,0.00002216,0.00003384,0
 .00000753,0.00001195,0.00006098,0.00193369,0.00250187,0.00249210,0.000
 51788,-0.00025040,0.00054801,0.00010342,0.00000079,-0.00001404,0.00010
 892,0.00008390,0.00024467,-0.00001412,-0.00004175,-0.00008335,0.000220
 00,0.00018282,-0.00016678,-0.00012828,-0.00000255,0.00006205,0.0003704
 2,-0.00005331,0.00011145,-0.00015692,-0.00006157,0.00004223,0.15107612
 ,-0.16540819,-0.30133659,0.01569971,-0.01210231,-0.00824087,-0.0032642
 9,-0.00365854,0.00020985,-0.16022196,0.17639128,0.31086794,-0.00132622
 ,-0.00021135,-0.00032628,0.00223217,-0.00177278,0.00110045,0.00017227,
 -0.00055978,-0.00032625,0.00263298,0.00465720,-0.00491208,0.00099761,-
 0.00007323,0.00055942,0.00063009,0.00022213,-0.00075670,0.00014450,-0.
 00059331,0.00040019,-0.00001101,-0.00005011,0.00005015,-0.00018648,0.0
 0021476,-0.00015594,-0.00033230,-0.00006863,0.00004814,0.00012537,0.00
 045590,0.00030668,0.00003297,0.00002752,-0.00005707,-0.00015050,-0.000
 21429,-0.00000245,0.00010532,-0.00016351,-0.00000239,-0.00100063,-0.00
 012361,-0.00075673,-0.00067551,-0.00152177,0.00018397,-0.00007546,0.00
 043851,-0.00014581,-0.00081575,0.00009585,0.00107542,-0.00010349,-0.00
 002654,-0.00000871,-0.01625375,0.00773021,0.00401650,-0.00026427,-0.00
 618107,0.00196626,-0.00710572,-0.01063258,0.00342832,-0.00208123,0.002
 17449,0.00117127,-0.00083326,-0.00052691,-0.00075791,0.00072495,0.0001
 4400,0.00100333,0.00069631,0.00077025,0.00045909,0.00017465,0.00008551
 ,0.00018439,0.33644951,-0.00132553,0.00106067,0.00003386,0.00355464,-0
 .00472761,0.00116479,0.00005352,0.00073162,-0.00018886,-0.00237551,-0.
 00558601,0.00416945,-0.00050801,-0.00165725,0.00006609,0.00003898,0.00
 129680,-0.00037388,-0.00021961,0.00031371,-0.00044115,0.00003151,-0.00
 007677,-0.00004440,-0.00054064,0.00022695,-0.00026968,0.00016238,0.000
 20402,0.00003797,0.00102683,-0.00034544,0.00006319,0.00001426,0.000029
 44,-0.00002751,-0.00013823,0.00010181,0.00003414,-0.00032033,0.0003612
 4,0.00010926,0.00044484,0.00077331,-0.00000289,-0.00131643,-0.00050741
 ,0.00007407,0.00013544,0.00015021,-0.00010802,0.00074975,0.00029074,-0
 .00048826,-0.00000062,-0.00011155,-0.00014942,0.01397953,0.00171765,-0
 .00257678,-0.00774798,-0.00557895,-0.00403944,-0.01302612,-0.00242372,
 0.00292378,-0.00062225,0.00176253,0.00049456,0.00002862,0.00050327,-0.
 00011314,0.00014149,-0.00004612,0.00027626,-0.00023854,-0.00068836,-0.
 00017395,0.00005051,-0.00005586,0.00002715,0.25585581,0.33968541,0.000
 66309,-0.00005834,0.00020853,-0.00059779,0.00118701,-0.00114065,-0.000
 12575,0.00001566,0.00047878,-0.00135018,-0.00005798,-0.00063529,-0.000
 22572,0.00015225,-0.00061401,-0.00011003,-0.00030263,0.00038233,-0.000
 18450,-0.00004737,0.00101030,-0.00006312,-0.00002493,0.00005862,0.0005
 6567,0.00002478,0.00026949,0.00009777,0.00002333,0.00004870,-0.0002220
 7,-0.00007547,-0.00019016,0.00002486,-0.00000186,0.00005727,0.00007045
 ,0.00004667,0.00001373,0.00005517,-0.00004853,-0.00000587,0.00022697,0
 .00000390,0.00058132,0.00048588,0.00059143,-0.00002538,-0.00005972,-0.
 00016588,0.00004378,0.00014034,-0.00000894,-0.00009208,0.00000878,-0.0
 0000922,0.00003253,0.00147301,0.00000626,0.00445333,-0.00029406,-0.001
 03880,-0.00859645,0.00311081,0.00378140,0.00368820,0.00145159,-0.00086
 613,-0.00062079,0.00029662,0.00014628,0.00038460,-0.00031706,-0.000041
 26,-0.00052798,-0.00021897,-0.00025845,-0.00019722,-0.00001830,-0.0000
 0386,-0.00009105,0.15764380,-0.04006901,0.42229024,0.00028502,0.000061
 08,0.00011450,-0.00023332,0.00009843,-0.00024889,-0.00002451,0.0001252
 6,0.00037292,-0.00088017,-0.00033999,-0.00036847,-0.00018739,-0.000062
 07,-0.00029718,-0.00016802,-0.00002823,0.00015686,-0.00016096,-0.00001
 617,0.00057464,-0.00001364,-0.00000953,0.00000958,0.00013994,0.0000541
 2,0.00010257,0.00009761,0.00003554,0.00001745,0.00000616,-0.00010852,-
 0.00006526,-0.00000442,-0.00000308,0.00001572,0.00003250,0.00004953,-0
 .00000104,0.00000144,-0.00001446,0.00000037,0.00020272,0.00004350,0.00
 025965,0.00010444,0.00027060,-0.00003491,-0.00000465,-0.00010645,0.000
 02328,0.00014206,0.00000069,-0.00016136,0.00001536,-0.00001195,0.00002
 946,0.00068054,0.00102807,0.00116526,-0.00237123,-0.00115003,-0.003768
 12,0.00006223,0.00010348,0.00095189,0.00015023,-0.00033169,0.00020100,
 0.00021276,0.00013761,0.00019823,-0.00018613,-0.00003577,-0.00026153,-
 0.00017828,-0.00020424,-0.00011875,-0.00004054,-0.00001993,-0.00004686
 ,-0.16404613,-0.07610184,-0.19540848,0.18049846,0.00014651,-0.00017306
 ,0.00002006,-0.00029238,0.00038387,0.00003223,0.00003090,0.00006547,-0
 .00003696,0.00029639,0.00011719,-0.00001173,0.00001772,0.00020672,0.00
 000237,-0.00010268,-0.00005152,-0.00000279,0.00009024,0.00012910,-0.00
 008628,0.00000444,0.00001676,0.00000841,0.00008432,-0.00006379,-0.0000
 0618,0.00000155,-0.00002123,-0.00001464,-0.00013379,0.00008228,-0.0000
 3023,0.00000395,-0.00000801,0.00000932,0.00002561,-0.00001087,-0.00000
 458,0.00003531,-0.00003029,-0.00000664,0.00000200,-0.00010549,0.000007
 28,0.00019755,-0.00003208,0.00001652,-0.00007285,-0.00001615,0.0000119
 9,-0.00002625,-0.00009437,-0.00003438,0.00002322,0.00003435,0.00000479
 ,0.00079988,-0.00175586,-0.00137262,-0.00029151,0.00316880,0.00369986,
 0.00006002,-0.00070444,0.00136175,-0.00016211,-0.00002944,0.00001330,0
 .00002353,-0.00005401,0.00003155,-0.00003939,0.00000503,-0.00005065,0.
 00000637,0.00006908,0.00000830,-0.00001470,0.00000792,-0.00001018,-0.0
 5712672,-0.05149098,-0.04128553,0.07848251,0.05657497,-0.00003089,-0.0
 0000185,-0.00005534,-0.00011822,0.00019723,-0.00007433,-0.00001663,-0.
 00004032,-0.00004656,0.00015232,-0.00016583,0.00065300,0.00002271,0.00
 002181,0.00010450,0.00003774,-0.00002357,0.00003912,0.00001777,0.00003
 548,-0.00024260,0.00000528,0.00000879,-0.00001452,-0.00002509,-0.00004
 383,-0.00001936,-0.00002013,-0.00001117,-0.00000955,-0.00000419,0.0000
 2113,0.00000628,-0.00000259,-0.00000007,-0.00000696,-0.00000362,-0.000
 00673,0.00000287,-0.00000454,0.00001090,-0.00000252,-0.00003486,-0.000
 00614,-0.00008536,0.00000272,-0.00002192,-0.00000979,0.00001957,0.0000
 2563,0.00000720,-0.00002840,-0.00000123,-0.00004121,0.00000121,0.00000
 585,-0.00000480,0.00109077,-0.00049758,-0.00047229,-0.00106984,0.00086
 273,-0.00003430,0.00092269,0.00033185,-0.00084953,-0.00004045,0.000069
 19,-0.00001047,-0.00005037,-0.00002789,-0.00004982,0.00004497,0.000007
 61,0.00006414,0.00004037,0.00004267,0.00002624,0.00001043,0.00000414,0
 .00001172,-0.23427571,-0.08283462,-0.33721335,0.22315005,0.07425251,0.
 33111138,0.00224824,-0.00073184,0.00028581,-0.00818467,0.00501002,-0.0
 0085015,-0.00024898,-0.00038736,0.00049067,0.00065842,0.00251147,0.000
 09153,-0.00035210,0.00148607,-0.00050936,-0.00070907,-0.00105282,0.000
 82149,-0.00000977,0.00010634,0.00018090,0.00000191,0.00012076,-0.00000
 866,0.00072106,-0.00048989,0.00039582,0.00011216,-0.00011570,-0.000065
 27,-0.00090853,-0.00024062,-0.00034055,-0.00004233,-0.00004707,0.00007
 585,0.00021800,0.00012555,-0.00001756,0.00022754,-0.00026373,-0.000109
 66,0.00040648,-0.00056417,0.00062219,0.00158106,0.00195547,-0.00025884
 ,0.00003058,-0.00054412,0.00021771,-0.00005737,-0.00029009,-0.00036838
 ,0.00005361,0.00009078,0.00015136,-0.00388127,-0.00187422,0.00063001,0
 .00663378,0.00413784,-0.00080638,-0.00114490,0.00247472,-0.00042427,0.
 00272500,-0.00405394,-0.00131461,0.00065464,0.00002197,0.00073125,-0.0
 0072257,-0.00009465,-0.00107786,-0.00036791,-0.00006209,-0.00023062,-0
 .00017383,-0.00003574,-0.00017966,-0.14985702,-0.17178643,0.03288094,-
 0.01413212,-0.02206965,0.01020691,0.16451996,0.00172806,-0.00083404,-0
 .00002035,-0.00239238,0.00683796,-0.00300285,-0.00016924,-0.00040142,-
 0.00018711,0.00332233,0.00288683,-0.00215379,0.00016716,0.00159368,-0.
 00013159,0.00023158,-0.00161972,0.00080142,-0.00008338,-0.00017020,-0.
 00018408,-0.00008719,0.00005763,0.00003751,0.00085552,-0.00028365,0.00
 046306,-0.00010042,-0.00018587,-0.00005742,-0.00086216,0.00011950,-0.0
 0011598,-0.00002004,-0.00002094,0.00003331,0.00014396,-0.00003185,-0.0
 0002257,0.00016210,-0.00023309,-0.00008238,-0.00017135,-0.00061454,0.0
 0019772,0.00101977,0.00047698,-0.00007559,-0.00010026,-0.00021918,0.00
 012758,-0.00038776,-0.00026935,0.00018817,0.00000633,0.00009531,0.0001
 0540,-0.00473356,0.00088044,0.00184158,0.00561299,-0.00871959,0.001222
 07,0.00568745,-0.00949348,-0.00040684,-0.00138595,-0.00226969,0.001047
 37,0.00014883,-0.00031673,0.00029762,-0.00028993,0.00000395,-0.0005245
 0,0.00006925,0.00041774,0.00003889,-0.00006243,0.00003203,-0.00006569,
 -0.19302594,-0.27591335,0.07838518,-0.00194650,-0.00621995,0.00778524,
 0.18666317,0.29441460,-0.00098954,0.00022552,-0.00010519,0.00085128,-0
 .00285675,0.00156728,0.00000997,0.00003096,-0.00034605,-0.00001294,-0.
 00105601,0.00138290,0.00010449,-0.00045764,0.00054593,0.00005197,0.000
 69590,-0.00059801,0.00001176,-0.00015142,-0.00071032,0.00006875,-0.000
 00590,-0.00005875,-0.00100667,0.00016194,-0.00032426,-0.00005664,0.000
 01917,-0.00002860,0.00041367,0.00005172,0.00021116,-0.00003552,0.00000
 408,-0.00006760,-0.00008660,-0.00003295,-0.00002008,-0.00009271,0.0001
 1029,0.00003329,-0.00011684,0.00011496,-0.00051770,-0.00073486,-0.0007
 6592,0.00006300,0.00008485,0.00018548,-0.00006164,-0.00001241,0.000077
 19,0.00003187,-0.00001318,-0.00001214,-0.00004501,0.00095151,-0.000047
 95,-0.00150841,-0.00082820,0.00099494,0.00176561,0.00246903,0.00111914
 ,-0.00695651,-0.00236313,0.00112347,0.00080836,-0.00025819,-0.00006330
 ,-0.00037463,0.00031911,0.00003756,0.00055130,0.00015765,0.00013542,0.
 00014825,0.00000995,0.00000406,0.00008252,0.06888662,0.12242641,-0.084
 05148,-0.02656260,-0.03652686,0.00721621,-0.04122060,-0.08554138,0.081
 36657\\0.00000062,-0.00000376,0.00000242,0.00000019,0.00000120,-0.0000
 0020,-0.00000388,0.00000017,-0.00000045,-0.00000268,0.00000233,-0.0000
 0148,-0.00000319,-0.00000290,0.00000161,0.00000248,-0.00000058,0.00000
 073,-0.00000058,0.00000209,-0.00000103,0.00000124,-0.00000011,0.000001
 10,0.,-0.00000027,0.00000008,-0.00000140,-0.00000226,0.00000130,0.0000
 0475,-0.00000175,0.00000199,0.00000177,-0.00000088,0.00000128,0.000003
 08,-0.00000119,0.00000074,-0.00000263,0.00000008,-0.00000159,-0.000005
 07,-0.00000339,0.00000038,0.00000737,0.00000124,0.00000186,0.00000311,
 0.00000046,0.00000049,0.00000753,-0.00000090,-0.00000327,-0.00000877,0
 .00000256,0.00000198,-0.00000494,0.00000191,-0.00000382,-0.00000198,0.
 00000399,0.00000089,0.00000213,0.00000522,0.00000003,0.00000120,0.0000
 0011,0.00000031,-0.00000165,-0.00000778,0.00000424,0.00000010,-0.00000
 233,0.00000079,-0.00000195,-0.00000198,0.00000090,0.00000143,-0.000004
 04,-0.00000146,0.00001138,0.00001047,-0.00000193,-0.00000719,0.0000007
 9,-0.00000713,-0.00000248,0.00000151,-0.00000077\\\@


 KEEP CLOSE TO NATURES HEART, YOURSELF;
 AND BREAK CLEAR AWAY, ONCE IN A WHILE, AND
 CLIMB A MOUNTAIN OR SPEND A WEEK IN THE
 WOODS.  WASH YOUR SPIRIT CLEAN...
                                         -- JOHN MUIR
 Job cpu time:       0 days  0 hours 33 minutes 25.0 seconds.
 File lengths (MBytes):  RWF=    220 Int=      0 D2E=      0 Chk=      6 Scr=      1
 Normal termination of Gaussian 09 at Thu Jan 12 00:40:24 2017.
