 Entering Gaussian System, Link 0=g09
 Initial command:
 /global/software/gaussian/g09.e01/l1.exe "/scratch/10454694.yak.local/Gau-22582.inp" -scrdir="/scratch/10454694.yak.local/"
 Entering Link 1 = /global/software/gaussian/g09.e01/l1.exe PID=     22583.
  
 Copyright (c) 1988,1990,1992,1993,1995,1998,2003,2009,2015,
            Gaussian, Inc.  All Rights Reserved.
  
 This is part of the Gaussian(R) 09 program.  It is based on
 the Gaussian(R) 03 system (copyright 2003, Gaussian, Inc.),
 the Gaussian(R) 98 system (copyright 1998, Gaussian, Inc.),
 the Gaussian(R) 94 system (copyright 1995, Gaussian, Inc.),
 the Gaussian 92(TM) system (copyright 1992, Gaussian, Inc.),
 the Gaussian 90(TM) system (copyright 1990, Gaussian, Inc.),
 the Gaussian 88(TM) system (copyright 1988, Gaussian, Inc.),
 the Gaussian 86(TM) system (copyright 1986, Carnegie Mellon
 University), and the Gaussian 82(TM) system (copyright 1983,
 Carnegie Mellon University). Gaussian is a federally registered
 trademark of Gaussian, Inc.
  
 This software contains proprietary and confidential information,
 including trade secrets, belonging to Gaussian, Inc.
  
 This software is provided under written license and may be
 used, copied, transmitted, or stored only in accord with that
 written license.
  
 The following legend is applicable only to US Government
 contracts under FAR:
  
                    RESTRICTED RIGHTS LEGEND
  
 Use, reproduction and disclosure by the US Government is
 subject to restrictions as set forth in subparagraphs (a)
 and (c) of the Commercial Computer Software - Restricted
 Rights clause in FAR 52.227-19.
  
 Gaussian, Inc.
 340 Quinnipiac St., Bldg. 40, Wallingford CT 06492
  
  
 ---------------------------------------------------------------
 Warning -- This program may not be used in any manner that
 competes with the business of Gaussian, Inc. or will provide
 assistance to any competitor of Gaussian, Inc.  The licensee
 of this program is prohibited from giving any competitor of
 Gaussian, Inc. access to this program.  By using this program,
 the user acknowledges that Gaussian, Inc. is engaged in the
 business of creating and licensing software in the field of
 computational chemistry and represents and warrants to the
 licensee that it is not a competitor of Gaussian, Inc. and that
 it will not use this program in any manner prohibited above.
 ---------------------------------------------------------------
  

 Cite this work as:
 Gaussian 09, Revision E.01,
 M. J. Frisch, G. W. Trucks, H. B. Schlegel, G. E. Scuseria, 
 M. A. Robb, J. R. Cheeseman, G. Scalmani, V. Barone, B. Mennucci, 
 G. A. Petersson, H. Nakatsuji, M. Caricato, X. Li, H. P. Hratchian, 
 A. F. Izmaylov, J. Bloino, G. Zheng, J. L. Sonnenberg, M. Hada, 
 M. Ehara, K. Toyota, R. Fukuda, J. Hasegawa, M. Ishida, T. Nakajima, 
 Y. Honda, O. Kitao, H. Nakai, T. Vreven, J. A. Montgomery, Jr., 
 J. E. Peralta, F. Ogliaro, M. Bearpark, J. J. Heyd, E. Brothers, 
 K. N. Kudin, V. N. Staroverov, T. Keith, R. Kobayashi, J. Normand, 
 K. Raghavachari, A. Rendell, J. C. Burant, S. S. Iyengar, J. Tomasi, 
 M. Cossi, N. Rega, J. M. Millam, M. Klene, J. E. Knox, J. B. Cross, 
 V. Bakken, C. Adamo, J. Jaramillo, R. Gomperts, R. E. Stratmann, 
 O. Yazyev, A. J. Austin, R. Cammi, C. Pomelli, J. W. Ochterski, 
 R. L. Martin, K. Morokuma, V. G. Zakrzewski, G. A. Voth, 
 P. Salvador, J. J. Dannenberg, S. Dapprich, A. D. Daniels, 
 O. Farkas, J. B. Foresman, J. V. Ortiz, J. Cioslowski, 
 and D. J. Fox, Gaussian, Inc., Wallingford CT, 2013.
 
 ******************************************
 Gaussian 09:  ES64L-G09RevE.01 30-Nov-2015
                12-Jan-2017 
 ******************************************
 %NPROCS=4
 Will use up to    4 processors via shared memory.
 ---------------------------------------
 # opt=maxcycle=1000 freq b3lyp/6-31g(d)
 ---------------------------------------
 1/6=1000,14=-1,18=20,19=15,26=3,38=1/1,3;
 2/9=110,12=2,17=6,18=5,40=1/2;
 3/5=1,6=6,7=1,11=2,16=1,25=1,30=1,71=1,74=-5/1,2,3;
 4//1;
 5/5=2,38=5/2;
 6/7=2,8=2,9=2,10=2,28=1/1;
 7//1,2,3,16;
 1/6=1000,14=-1,18=20,19=15,26=3/3(2);
 2/9=110/2;
 99//99;
 2/9=110/2;
 3/5=1,6=6,7=1,11=2,16=1,25=1,30=1,71=1,74=-5/1,2,3;
 4/5=5,16=3,69=1/1;
 5/5=2,38=5/2;
 7//1,2,3,16;
 1/6=1000,14=-1,18=20,19=15,26=3/3(-5);
 2/9=110/2;
 6/7=2,8=2,9=2,10=2,19=2,28=1/1;
 99/9=1/99;
 -------------------------
 boat6_Alpha_B3LYP_6-31G_d
 -------------------------
 Symbolic Z-matrix:
 Charge =  0 Multiplicity = 1
 C                    -0.46059  -0.0233    1.05039 
 C                     1.29061   0.77391  -0.58771 
 C                     0.21908   1.19207   0.43193 
 C                     1.31215  -0.75863  -0.85138 
 H                     1.8839   -0.93004  -1.73942 
 H                     2.26084   1.14587  -0.33239 
 H                     0.15199  -0.54358   1.75676 
 H                    -0.45898   1.88352  -0.02308 
 C                     0.0239   -1.34483  -1.05018 
 H                     0.2483   -2.39094  -1.03589 
 O                    -1.04763  -0.92667  -0.03055 
 C                    -1.63796   0.48894   1.90069 
 H                    -1.26915   1.14171   2.66409 
 H                    -2.32361   1.02231   1.27595 
 O                    -2.30778  -0.62062   2.50494 
 H                    -2.90348  -0.30245   3.18722 
 O                    -0.50053  -0.98728  -2.3316 
 H                    -0.5084   -1.75976  -2.90153 
 O                     1.96951  -1.47297   0.19862 
 H                     2.81951  -1.79152  -0.11383 
 O                     0.95744   1.38439  -1.83719 
 H                     1.60053   2.06715  -2.04184 
 O                     0.8581    1.9193    1.4844 
 H                     0.70066   2.85889   1.36616 
 

 GradGradGradGradGradGradGradGradGradGradGradGradGradGradGradGradGradGrad
 Berny optimization.
 Initialization pass.
                           ----------------------------
                           !    Initial Parameters    !
                           ! (Angstroms and Degrees)  !
 --------------------------                            --------------------------
 ! Name  Definition              Value          Derivative Info.                !
 --------------------------------------------------------------------------------
 ! R1    R(1,3)                  1.5237         estimate D2E/DX2                !
 ! R2    R(1,7)                  1.07           estimate D2E/DX2                !
 ! R3    R(1,11)                 1.5261         estimate D2E/DX2                !
 ! R4    R(1,12)                 1.54           estimate D2E/DX2                !
 ! R5    R(2,3)                  1.5371         estimate D2E/DX2                !
 ! R6    R(2,4)                  1.5552         estimate D2E/DX2                !
 ! R7    R(2,6)                  1.07           estimate D2E/DX2                !
 ! R8    R(2,21)                 1.43           estimate D2E/DX2                !
 ! R9    R(3,8)                  1.07           estimate D2E/DX2                !
 ! R10   R(3,23)                 1.43           estimate D2E/DX2                !
 ! R11   R(4,5)                  1.07           estimate D2E/DX2                !
 ! R12   R(4,9)                  1.4292         estimate D2E/DX2                !
 ! R13   R(4,19)                 1.43           estimate D2E/DX2                !
 ! R14   R(9,10)                 1.07           estimate D2E/DX2                !
 ! R15   R(9,11)                 1.5371         estimate D2E/DX2                !
 ! R16   R(9,17)                 1.43           estimate D2E/DX2                !
 ! R17   R(12,13)                1.07           estimate D2E/DX2                !
 ! R18   R(12,14)                1.07           estimate D2E/DX2                !
 ! R19   R(12,15)                1.43           estimate D2E/DX2                !
 ! R20   R(15,16)                0.96           estimate D2E/DX2                !
 ! R21   R(17,18)                0.96           estimate D2E/DX2                !
 ! R22   R(19,20)                0.96           estimate D2E/DX2                !
 ! R23   R(21,22)                0.96           estimate D2E/DX2                !
 ! R24   R(23,24)                0.96           estimate D2E/DX2                !
 ! A1    A(3,1,7)              113.6055         estimate D2E/DX2                !
 ! A2    A(3,1,11)             110.8702         estimate D2E/DX2                !
 ! A3    A(3,1,12)             107.4476         estimate D2E/DX2                !
 ! A4    A(7,1,11)             113.5763         estimate D2E/DX2                !
 ! A5    A(7,1,12)             103.5873         estimate D2E/DX2                !
 ! A6    A(11,1,12)            107.0904         estimate D2E/DX2                !
 ! A7    A(3,2,4)              112.9669         estimate D2E/DX2                !
 ! A8    A(3,2,6)              112.2872         estimate D2E/DX2                !
 ! A9    A(3,2,21)             107.5211         estimate D2E/DX2                !
 ! A10   A(4,2,6)              111.7439         estimate D2E/DX2                !
 ! A11   A(4,2,21)             106.0084         estimate D2E/DX2                !
 ! A12   A(6,2,21)             105.7449         estimate D2E/DX2                !
 ! A13   A(1,3,2)              111.2979         estimate D2E/DX2                !
 ! A14   A(1,3,8)              113.9155         estimate D2E/DX2                !
 ! A15   A(1,3,23)             107.8332         estimate D2E/DX2                !
 ! A16   A(2,3,8)              109.6013         estimate D2E/DX2                !
 ! A17   A(2,3,23)             108.3642         estimate D2E/DX2                !
 ! A18   A(8,3,23)             105.5166         estimate D2E/DX2                !
 ! A19   A(2,4,5)              107.8166         estimate D2E/DX2                !
 ! A20   A(2,4,9)              114.5362         estimate D2E/DX2                !
 ! A21   A(2,4,19)             111.9709         estimate D2E/DX2                !
 ! A22   A(5,4,9)              107.4867         estimate D2E/DX2                !
 ! A23   A(5,4,19)             106.4835         estimate D2E/DX2                !
 ! A24   A(9,4,19)             108.1556         estimate D2E/DX2                !
 ! A25   A(4,9,10)             102.1281         estimate D2E/DX2                !
 ! A26   A(4,9,11)             115.1182         estimate D2E/DX2                !
 ! A27   A(4,9,17)             110.6494         estimate D2E/DX2                !
 ! A28   A(10,9,11)            113.7849         estimate D2E/DX2                !
 ! A29   A(10,9,17)            109.4712         estimate D2E/DX2                !
 ! A30   A(11,9,17)            105.7093         estimate D2E/DX2                !
 ! A31   A(1,11,9)             111.2676         estimate D2E/DX2                !
 ! A32   A(1,12,13)            109.4712         estimate D2E/DX2                !
 ! A33   A(1,12,14)            109.4712         estimate D2E/DX2                !
 ! A34   A(1,12,15)            109.4712         estimate D2E/DX2                !
 ! A35   A(13,12,14)           109.4712         estimate D2E/DX2                !
 ! A36   A(13,12,15)           109.4713         estimate D2E/DX2                !
 ! A37   A(14,12,15)           109.4712         estimate D2E/DX2                !
 ! A38   A(12,15,16)           109.5            estimate D2E/DX2                !
 ! A39   A(9,17,18)            109.5            estimate D2E/DX2                !
 ! A40   A(4,19,20)            109.5            estimate D2E/DX2                !
 ! A41   A(2,21,22)            109.5            estimate D2E/DX2                !
 ! A42   A(3,23,24)            109.5            estimate D2E/DX2                !
 ! D1    D(7,1,3,2)             73.7499         estimate D2E/DX2                !
 ! D2    D(7,1,3,8)           -161.7254         estimate D2E/DX2                !
 ! D3    D(7,1,3,23)           -44.9768         estimate D2E/DX2                !
 ! D4    D(11,1,3,2)           -55.5781         estimate D2E/DX2                !
 ! D5    D(11,1,3,8)            68.9466         estimate D2E/DX2                !
 ! D6    D(11,1,3,23)         -174.3048         estimate D2E/DX2                !
 ! D7    D(12,1,3,2)          -172.2906         estimate D2E/DX2                !
 ! D8    D(12,1,3,8)           -47.7659         estimate D2E/DX2                !
 ! D9    D(12,1,3,23)           68.9827         estimate D2E/DX2                !
 ! D10   D(3,1,11,9)            55.5608         estimate D2E/DX2                !
 ! D11   D(7,1,11,9)           -73.7827         estimate D2E/DX2                !
 ! D12   D(12,1,11,9)          172.4929         estimate D2E/DX2                !
 ! D13   D(3,1,12,13)          -59.9258         estimate D2E/DX2                !
 ! D14   D(3,1,12,14)           60.0742         estimate D2E/DX2                !
 ! D15   D(3,1,12,15)         -179.9258         estimate D2E/DX2                !
 ! D16   D(7,1,12,13)           60.5914         estimate D2E/DX2                !
 ! D17   D(7,1,12,14)         -179.4086         estimate D2E/DX2                !
 ! D18   D(7,1,12,15)          -59.4086         estimate D2E/DX2                !
 ! D19   D(11,1,12,13)        -179.0902         estimate D2E/DX2                !
 ! D20   D(11,1,12,14)         -59.0902         estimate D2E/DX2                !
 ! D21   D(11,1,12,15)          60.9098         estimate D2E/DX2                !
 ! D22   D(4,2,3,1)              6.2392         estimate D2E/DX2                !
 ! D23   D(4,2,3,8)           -120.6805         estimate D2E/DX2                !
 ! D24   D(4,2,3,23)           124.6472         estimate D2E/DX2                !
 ! D25   D(6,2,3,1)           -121.2446         estimate D2E/DX2                !
 ! D26   D(6,2,3,8)            111.8356         estimate D2E/DX2                !
 ! D27   D(6,2,3,23)            -2.8367         estimate D2E/DX2                !
 ! D28   D(21,2,3,1)           122.8473         estimate D2E/DX2                !
 ! D29   D(21,2,3,8)            -4.0724         estimate D2E/DX2                !
 ! D30   D(21,2,3,23)         -118.7447         estimate D2E/DX2                !
 ! D31   D(3,2,4,5)            165.134          estimate D2E/DX2                !
 ! D32   D(3,2,4,9)             45.5526         estimate D2E/DX2                !
 ! D33   D(3,2,4,19)           -78.0561         estimate D2E/DX2                !
 ! D34   D(6,2,4,5)            -67.0971         estimate D2E/DX2                !
 ! D35   D(6,2,4,9)            173.3214         estimate D2E/DX2                !
 ! D36   D(6,2,4,19)            49.7127         estimate D2E/DX2                !
 ! D37   D(21,2,4,5)            47.6336         estimate D2E/DX2                !
 ! D38   D(21,2,4,9)           -71.9478         estimate D2E/DX2                !
 ! D39   D(21,2,4,19)          164.4435         estimate D2E/DX2                !
 ! D40   D(3,2,21,22)          110.4735         estimate D2E/DX2                !
 ! D41   D(4,2,21,22)         -128.4444         estimate D2E/DX2                !
 ! D42   D(6,2,21,22)           -9.673          estimate D2E/DX2                !
 ! D43   D(1,3,23,24)         -136.9095         estimate D2E/DX2                !
 ! D44   D(2,3,23,24)          102.5054         estimate D2E/DX2                !
 ! D45   D(8,3,23,24)          -14.8179         estimate D2E/DX2                !
 ! D46   D(2,4,9,10)          -170.3515         estimate D2E/DX2                !
 ! D47   D(2,4,9,11)           -46.5483         estimate D2E/DX2                !
 ! D48   D(2,4,9,17)            73.2037         estimate D2E/DX2                !
 ! D49   D(5,4,9,10)            69.8828         estimate D2E/DX2                !
 ! D50   D(5,4,9,11)          -166.314          estimate D2E/DX2                !
 ! D51   D(5,4,9,17)           -46.562          estimate D2E/DX2                !
 ! D52   D(19,4,9,10)          -44.7238         estimate D2E/DX2                !
 ! D53   D(19,4,9,11)           79.0795         estimate D2E/DX2                !
 ! D54   D(19,4,9,17)         -161.1686         estimate D2E/DX2                !
 ! D55   D(2,4,19,20)         -107.9587         estimate D2E/DX2                !
 ! D56   D(5,4,19,20)            9.6513         estimate D2E/DX2                !
 ! D57   D(9,4,19,20)          124.9169         estimate D2E/DX2                !
 ! D58   D(4,9,11,1)            -3.7347         estimate D2E/DX2                !
 ! D59   D(10,9,11,1)          113.6657         estimate D2E/DX2                !
 ! D60   D(17,9,11,1)         -126.1774         estimate D2E/DX2                !
 ! D61   D(4,9,17,18)          110.0414         estimate D2E/DX2                !
 ! D62   D(10,9,17,18)          -1.7595         estimate D2E/DX2                !
 ! D63   D(11,9,17,18)        -124.7028         estimate D2E/DX2                !
 ! D64   D(1,12,15,16)         166.9532         estimate D2E/DX2                !
 ! D65   D(13,12,15,16)         46.9532         estimate D2E/DX2                !
 ! D66   D(14,12,15,16)        -73.0468         estimate D2E/DX2                !
 --------------------------------------------------------------------------------
 Trust Radius=3.00D-01 FncErr=1.00D-07 GrdErr=1.00D-06
 Number of steps in this run=    144 maximum allowed number of steps=    144.
 GradGradGradGradGradGradGradGradGradGradGradGradGradGradGradGradGradGrad

                          Input orientation:                          
 ---------------------------------------------------------------------
 Center     Atomic      Atomic             Coordinates (Angstroms)
 Number     Number       Type             X           Y           Z
 ---------------------------------------------------------------------
      1          6           0       -0.460586   -0.023297    1.050390
      2          6           0        1.290608    0.773912   -0.587710
      3          6           0        0.219084    1.192073    0.431930
      4          6           0        1.312146   -0.758632   -0.851380
      5          1           0        1.883896   -0.930043   -1.739423
      6          1           0        2.260843    1.145874   -0.332388
      7          1           0        0.151992   -0.543576    1.756759
      8          1           0       -0.458976    1.883524   -0.023075
      9          6           0        0.023899   -1.344829   -1.050185
     10          1           0        0.248299   -2.390936   -1.035890
     11          8           0       -1.047625   -0.926668   -0.030545
     12          6           0       -1.637957    0.488940    1.900690
     13          1           0       -1.269150    1.141705    2.664089
     14          1           0       -2.323612    1.022308    1.275954
     15          8           0       -2.307780   -0.620619    2.504939
     16          1           0       -2.903477   -0.302447    3.187223
     17          8           0       -0.500526   -0.987280   -2.331605
     18          1           0       -0.508404   -1.759757   -2.901533
     19          8           0        1.969510   -1.472970    0.198617
     20          1           0        2.819514   -1.791519   -0.113825
     21          8           0        0.957436    1.384394   -1.837193
     22          1           0        1.600527    2.067150   -2.041837
     23          8           0        0.858104    1.919303    1.484399
     24          1           0        0.700664    2.858894    1.366161
 ---------------------------------------------------------------------
                    Distance matrix (angstroms):
                    1          2          3          4          5
     1  C    0.000000
     2  C    2.526973   0.000000
     3  C    1.523669   1.537104   0.000000
     4  C    2.701856   1.555210   2.578162   0.000000
     5  H    3.755242   2.140536   3.462621   1.070000   0.000000
     6  H    3.268824   1.070000   2.180618   2.190096   2.535994
     7  H    1.070000   2.920404   2.184526   2.862621   3.920732
     8  H    2.188218   2.147346   1.070000   3.286936   4.043644
     9  C    2.528555   2.511473   2.944594   1.429241   2.026496
    10  H    3.234315   3.362073   3.872119   1.957098   2.303117
    11  O    1.526144   2.944442   2.511473   2.504102   3.393242
    12  C    1.540000   3.853549   2.469869   4.222965   5.259980
    13  H    2.148263   4.154736   2.683265   4.757404   5.798686
    14  H    2.148263   4.074006   2.684492   4.573405   5.532385
    15  O    2.425826   4.945462   3.737414   4.938399   5.973316
    16  H    3.257560   5.744477   4.424434   5.855758   6.898163
    17  O    3.516923   3.057962   3.592290   2.351410   2.457524
    18  H    4.316859   3.874235   4.511598   2.918866   2.786041
    19  O    2.955069   2.475419   3.197011   1.430000   2.014473
    20  H    3.903980   3.023831   3.995235   1.970533   2.063999
    21  O    3.511484   1.430000   2.393966   2.385416   2.494896
    22  H    4.263804   1.970533   2.965412   3.079837   3.025709
    23  O    2.387677   2.406785   1.430000   3.582367   4.423126
    24  H    3.123338   2.917670   1.970533   4.286945   5.039914
                    6          7          8          9         10
     6  H    0.000000
     7  H    3.415557   0.000000
     8  H    2.834998   3.071142   0.000000
     9  C    3.423850   2.921874   3.422044   0.000000
    10  H    4.129682   3.349762   4.449387   1.070000   0.000000
    11  O    3.915673   2.186389   2.871192   1.537104   2.198686
    12  C    4.540797   2.071406   2.652497   3.851252   4.524948
    13  H    4.630307   2.383918   2.903021   4.653027   5.335921
    14  H    4.859964   2.968465   2.430234   4.065103   4.858969
    15  O    5.660674   2.572195   4.009946   4.312785   4.712221
    16  H    6.415255   3.382346   4.589125   5.254685   5.668347
    17  O    4.021489   4.163817   3.684095   1.430000   2.051796
    18  H    4.765703   4.859517   4.643432   1.970533   2.109884
    19  O    2.687970   2.568064   4.148825   2.315454   2.308514
    20  H    2.998026   3.488857   4.925716   2.981906   2.796542
    21  O    2.005043   4.157199   2.355075   2.989905   3.924039
    22  H    2.051093   4.831509   2.889752   3.887252   4.766024
    23  O    2.422103   2.576538   2.002113   4.215990   5.030097
    24  H    2.872919   3.468489   2.055745   4.895715   5.790959
                   11         12         13         14         15
    11  O    0.000000
    12  C    2.466193   0.000000
    13  H    3.404159   1.070000   0.000000
    14  H    2.670878   1.070000   1.747303   0.000000
    15  O    2.847865   1.430000   2.051796   2.051796   0.000000
    16  H    3.766679   1.970533   2.242826   2.396700   0.960000
    17  O    2.365981   4.624424   5.484553   4.514041   5.176173
    18  H    3.037658   5.421612   6.322450   5.337252   5.810794
    19  O    3.074746   4.445218   4.837768   5.081138   4.933643
    20  H    3.963542   5.397019   5.747851   6.025018   5.875208
    21  O    3.553204   4.637853   5.027736   4.537407   5.791013
    22  H    4.474478   5.340604   5.589029   5.243882   6.570551
    23  O    3.745184   2.906812   2.553730   3.312305   4.185155
    24  H    4.397475   3.372174   2.917794   3.539411   4.738625
                   16         17         18         19         20
    16  H    0.000000
    17  O    6.058104   0.000000
    18  H    6.703213   0.960000   0.000000
    19  O    5.835057   3.569173   3.979100   0.000000
    20  H    6.772509   4.072838   4.341355   0.960000   0.000000
    21  O    6.557198   2.827532   3.628663   3.651486   4.064942
    22  H    7.296856   3.718593   4.453300   4.205738   4.482464
    23  O    4.688846   4.985578   5.885509   3.794203   4.491286
    24  H    5.128370   5.468948   6.403671   4.662422   5.320360
                   21         22         23         24
    21  O    0.000000
    22  H    0.960000   0.000000
    23  O    3.365853   3.606576   0.000000
    24  H    3.535754   3.612626   0.960000   0.000000
 Stoichiometry    C6H12O6
 Framework group  C1[X(C6H12O6)]
 Deg. of freedom    66
 Full point group                 C1      NOp   1
 Largest Abelian subgroup         C1      NOp   1
 Largest concise Abelian subgroup C1      NOp   1
                         Standard orientation:                         
 ---------------------------------------------------------------------
 Center     Atomic      Atomic             Coordinates (Angstroms)
 Number     Number       Type             X           Y           Z
 ---------------------------------------------------------------------
      1          6           0       -1.087149   -0.043216    0.199816
      2          6           0        1.155343    1.109061    0.029284
      3          6           0       -0.338845    1.175802   -0.325166
      4          6           0        1.562657   -0.238555    0.690119
      5          1           0        2.630099   -0.307215    0.662650
      6          1           0        1.471879    1.948289    0.612722
      7          1           0       -1.235127   -0.031576    1.259470
      8          1           0       -0.451436    1.333927   -1.377411
      9          6           0        1.040757   -1.399772    0.040559
     10          1           0        1.285056   -2.175320    0.736076
     11          8           0       -0.453432   -1.333031   -0.313890
     12          6           0       -2.518279    0.014485   -0.365990
     13          1           0       -2.994308    0.915892   -0.040781
     14          1           0       -2.480077   -0.002979   -1.435166
     15          8           0       -3.262051   -1.113281    0.102890
     16          1           0       -4.195683   -0.977733   -0.074754
     17          8           0        1.721558   -1.635461   -1.194697
     18          1           0        2.267022   -2.421420   -1.115083
     19          8           0        1.187916   -0.293051    2.069067
     20          1           0        1.972845   -0.223884    2.617430
     21          8           0        1.891878    1.186937   -1.193971
     22          1           0        2.349973    2.029379   -1.239131
     23          8           0       -0.898343    2.334962    0.297898
     24          1           0       -1.007360    3.029212   -0.356115
 ---------------------------------------------------------------------
 Rotational constants (GHZ):      1.1690771      0.7566019      0.6205803
 Standard basis: 6-31G(d) (6D, 7F)
 There are   204 symmetry adapted cartesian basis functions of A   symmetry.
 There are   204 symmetry adapted basis functions of A   symmetry.
   204 basis functions,   384 primitive gaussians,   204 cartesian basis functions
    48 alpha electrons       48 beta electrons
       nuclear repulsion energy       830.9993364985 Hartrees.
 NAtoms=   24 NActive=   24 NUniq=   24 SFac= 1.00D+00 NAtFMM=   60 NAOKFM=F Big=F
 Integral buffers will be    131072 words long.
 Raffenetti 2 integral format.
 Two-electron integral symmetry is turned on.
 One-electron integrals computed using PRISM.
 NBasis=   204 RedAO= T EigKep=  1.36D-03  NBF=   204
 NBsUse=   204 1.00D-06 EigRej= -1.00D+00 NBFU=   204
 ExpMin= 1.61D-01 ExpMax= 5.48D+03 ExpMxC= 8.25D+02 IAcc=1 IRadAn=         1 AccDes= 0.00D+00
 Harris functional with IExCor=  402 and IRadAn=       1 diagonalized for initial guess.
 HarFok:  IExCor=  402 AccDes= 0.00D+00 IRadAn=         1 IDoV= 1 UseB2=F ITyADJ=14
 ICtDFT=  3500011 ScaDFX=  1.000000  1.000000  1.000000  1.000000
 FoFCou: FMM=F IPFlag=           0 FMFlag=      100000 FMFlg1=           0
         NFxFlg=           0 DoJE=T BraDBF=F KetDBF=T FulRan=T
         wScrn=  0.000000 ICntrl=     500 IOpCl=  0 I1Cent=   200000004 NGrid=           0
         NMat0=    1 NMatS0=      1 NMatT0=    0 NMatD0=    1 NMtDS0=    0 NMtDT0=    0
 Petite list used in FoFCou.
 Requested convergence on RMS density matrix=1.00D-08 within 128 cycles.
 Requested convergence on MAX density matrix=1.00D-06.
 Requested convergence on             energy=1.00D-06.
 No special actions if energy rises.
 Integral accuracy reduced to 1.0D-05 until final iterations.
 Initial convergence to 1.0D-05 achieved.  Increase integral accuracy.
 SCF Done:  E(RB3LYP) =  -687.069849946     A.U. after   14 cycles
            NFock= 14  Conv=0.44D-08     -V/T= 2.0081

 **********************************************************************

            Population analysis using the SCF density.

 **********************************************************************

 Orbital symmetries:
       Occupied  (A) (A) (A) (A) (A) (A) (A) (A) (A) (A) (A) (A)
                 (A) (A) (A) (A) (A) (A) (A) (A) (A) (A) (A) (A)
                 (A) (A) (A) (A) (A) (A) (A) (A) (A) (A) (A) (A)
                 (A) (A) (A) (A) (A) (A) (A) (A) (A) (A) (A) (A)
       Virtual   (A) (A) (A) (A) (A) (A) (A) (A) (A) (A) (A) (A)
                 (A) (A) (A) (A) (A) (A) (A) (A) (A) (A) (A) (A)
                 (A) (A) (A) (A) (A) (A) (A) (A) (A) (A) (A) (A)
                 (A) (A) (A) (A) (A) (A) (A) (A) (A) (A) (A) (A)
                 (A) (A) (A) (A) (A) (A) (A) (A) (A) (A) (A) (A)
                 (A) (A) (A) (A) (A) (A) (A) (A) (A) (A) (A) (A)
                 (A) (A) (A) (A) (A) (A) (A) (A) (A) (A) (A) (A)
                 (A) (A) (A) (A) (A) (A) (A) (A) (A) (A) (A) (A)
                 (A) (A) (A) (A) (A) (A) (A) (A) (A) (A) (A) (A)
                 (A) (A) (A) (A) (A) (A) (A) (A) (A) (A) (A) (A)
                 (A) (A) (A) (A) (A) (A) (A) (A) (A) (A) (A) (A)
                 (A) (A) (A) (A) (A) (A) (A) (A) (A) (A) (A) (A)
                 (A) (A) (A) (A) (A) (A) (A) (A) (A) (A) (A) (A)
 The electronic state is 1-A.
 Alpha  occ. eigenvalues --  -19.14810 -19.14341 -19.13852 -19.13831 -19.13583
 Alpha  occ. eigenvalues --  -19.12241 -10.26995 -10.23002 -10.22983 -10.22925
 Alpha  occ. eigenvalues --  -10.22163 -10.21208  -1.04094  -1.02437  -1.01656
 Alpha  occ. eigenvalues --   -1.01047  -0.99707  -0.95480  -0.77407  -0.76184
 Alpha  occ. eigenvalues --   -0.69312  -0.63512  -0.60121  -0.55205  -0.55011
 Alpha  occ. eigenvalues --   -0.53021  -0.52186  -0.49874  -0.49373  -0.46850
 Alpha  occ. eigenvalues --   -0.45647  -0.44068  -0.41960  -0.39471  -0.39373
 Alpha  occ. eigenvalues --   -0.37556  -0.34955  -0.34383  -0.33339  -0.32133
 Alpha  occ. eigenvalues --   -0.31758  -0.31485  -0.29748  -0.29153  -0.27009
 Alpha  occ. eigenvalues --   -0.24983  -0.24123  -0.23892
 Alpha virt. eigenvalues --    0.04711   0.05464   0.06354   0.08188   0.08325
 Alpha virt. eigenvalues --    0.11909   0.14523   0.15528   0.15647   0.16949
 Alpha virt. eigenvalues --    0.17839   0.18335   0.19329   0.20131   0.20777
 Alpha virt. eigenvalues --    0.21687   0.22586   0.24459   0.27158   0.28711
 Alpha virt. eigenvalues --    0.29419   0.32817   0.33646   0.35818   0.53115
 Alpha virt. eigenvalues --    0.53748   0.55469   0.56662   0.59062   0.60912
 Alpha virt. eigenvalues --    0.62669   0.63193   0.64281   0.65186   0.68110
 Alpha virt. eigenvalues --    0.68877   0.70721   0.72060   0.73649   0.75914
 Alpha virt. eigenvalues --    0.79818   0.81062   0.82108   0.84225   0.84642
 Alpha virt. eigenvalues --    0.85365   0.86501   0.86859   0.88371   0.89679
 Alpha virt. eigenvalues --    0.90791   0.91682   0.93244   0.93992   0.95803
 Alpha virt. eigenvalues --    0.97083   0.99324   1.00498   1.01131   1.01573
 Alpha virt. eigenvalues --    1.02458   1.03079   1.06870   1.07948   1.08886
 Alpha virt. eigenvalues --    1.11009   1.15034   1.16621   1.18681   1.20323
 Alpha virt. eigenvalues --    1.26161   1.26428   1.28334   1.30127   1.33751
 Alpha virt. eigenvalues --    1.36866   1.39632   1.41922   1.43191   1.47096
 Alpha virt. eigenvalues --    1.52169   1.52334   1.56954   1.58964   1.63020
 Alpha virt. eigenvalues --    1.65928   1.66720   1.70296   1.71848   1.73978
 Alpha virt. eigenvalues --    1.75255   1.76166   1.77569   1.79807   1.82345
 Alpha virt. eigenvalues --    1.83702   1.85469   1.86857   1.88779   1.92278
 Alpha virt. eigenvalues --    1.93356   1.94025   1.95556   1.99549   2.00446
 Alpha virt. eigenvalues --    2.04252   2.05971   2.06787   2.07299   2.08637
 Alpha virt. eigenvalues --    2.09368   2.13809   2.15513   2.17142   2.21437
 Alpha virt. eigenvalues --    2.23986   2.27125   2.29588   2.34259   2.36963
 Alpha virt. eigenvalues --    2.38538   2.40038   2.42088   2.47528   2.51552
 Alpha virt. eigenvalues --    2.52670   2.53655   2.56487   2.57209   2.61459
 Alpha virt. eigenvalues --    2.63805   2.67272   2.68343   2.71692   2.76610
 Alpha virt. eigenvalues --    2.77565   2.83731   2.89120   2.90671   2.93007
 Alpha virt. eigenvalues --    2.95257   3.03136   3.04490   3.08276   3.65613
 Alpha virt. eigenvalues --    3.80034   3.81061   3.90062   3.92800   4.04972
 Alpha virt. eigenvalues --    4.27189   4.35505   4.45406   4.56728   4.69147
 Alpha virt. eigenvalues --    4.82683
          Condensed to atoms (all electrons):
               1          2          3          4          5          6
     1  C    4.962792  -0.054469   0.266736   0.004522   0.000236   0.003039
     2  C   -0.054469   5.023788   0.323599   0.295629  -0.036612   0.349637
     3  C    0.266736   0.323599   5.056703  -0.041088   0.005723  -0.044628
     4  C    0.004522   0.295629  -0.041088   5.132032   0.336996  -0.029976
     5  H    0.000236  -0.036612   0.005723   0.336996   0.629228  -0.003826
     6  H    0.003039   0.349637  -0.044628  -0.029976  -0.003826   0.617309
     7  H    0.348099  -0.005700  -0.044645  -0.000908   0.000112   0.000258
     8  H   -0.027152  -0.052948   0.355792   0.002071  -0.000308   0.006013
     9  C   -0.019325  -0.039661  -0.023058   0.270350  -0.037838   0.005071
    10  H    0.000955   0.008263  -0.000131  -0.082425  -0.001469  -0.000349
    11  O    0.190742  -0.004057  -0.024409  -0.039629   0.003481   0.000058
    12  C    0.349618   0.004813  -0.025178  -0.000457   0.000020  -0.000175
    13  H   -0.035749   0.000221  -0.001576  -0.000016  -0.000000   0.000002
    14  H   -0.041701  -0.000238  -0.005085   0.000006  -0.000000  -0.000002
    15  O   -0.046070  -0.000043   0.002353   0.000007   0.000000   0.000000
    16  H    0.006140   0.000004  -0.000237  -0.000000  -0.000000  -0.000000
    17  O    0.001917  -0.001404   0.000783  -0.044971   0.004495  -0.000124
    18  H   -0.000129  -0.000066  -0.000048   0.002068   0.001239   0.000012
    19  O   -0.003996  -0.042803   0.003104   0.175998  -0.027021   0.002811
    20  H    0.000278   0.002563  -0.000373  -0.012482  -0.014740   0.000985
    21  O    0.003665   0.184264  -0.055982  -0.047815   0.006958  -0.028459
    22  H   -0.000195  -0.014822   0.004456   0.004766   0.000529  -0.015078
    23  O   -0.037105  -0.041954   0.162800   0.003030  -0.000090   0.004358
    24  H    0.004682   0.002932  -0.015781  -0.000150   0.000004   0.000647
               7          8          9         10         11         12
     1  C    0.348099  -0.027152  -0.019325   0.000955   0.190742   0.349618
     2  C   -0.005700  -0.052948  -0.039661   0.008263  -0.004057   0.004813
     3  C   -0.044645   0.355792  -0.023058  -0.000131  -0.024409  -0.025178
     4  C   -0.000908   0.002071   0.270350  -0.082425  -0.039629  -0.000457
     5  H    0.000112  -0.000308  -0.037838  -0.001469   0.003481   0.000020
     6  H    0.000258   0.006013   0.005071  -0.000349   0.000058  -0.000175
     7  H    0.584038   0.006030  -0.005783   0.001287  -0.027769  -0.050553
     8  H    0.006030   0.600924   0.001242   0.000051   0.001618  -0.013837
     9  C   -0.005783   0.001242   4.750786   0.350553   0.234785   0.003559
    10  H    0.001287   0.000051   0.350553   0.667382  -0.032067  -0.000119
    11  O   -0.027769   0.001618   0.234785  -0.032067   8.288617  -0.032529
    12  C   -0.050553  -0.013837   0.003559  -0.000119  -0.032529   4.880338
    13  H   -0.003212   0.000183  -0.000114   0.000005   0.003095   0.353774
    14  H    0.008304   0.009042  -0.000153   0.000011  -0.000334   0.349721
    15  O    0.005329   0.000030  -0.000027   0.000004   0.002545   0.248900
    16  H   -0.000267  -0.000014   0.000006  -0.000000  -0.000009  -0.021805
    17  O   -0.000137   0.000006   0.227840  -0.041292  -0.051626  -0.000076
    18  H    0.000011   0.000005  -0.010864  -0.009723   0.003753   0.000006
    19  O    0.006176  -0.000059  -0.059442   0.010494   0.001269   0.000182
    20  H   -0.000087   0.000008   0.004784   0.000328  -0.000085  -0.000007
    21  O   -0.000008   0.007127   0.001378  -0.000225  -0.000279  -0.000081
    22  H    0.000006   0.000349  -0.000327   0.000025   0.000004   0.000004
    23  O    0.002617  -0.033775   0.000212   0.000008   0.000971  -0.002954
    24  H   -0.000216  -0.011022  -0.000021  -0.000000  -0.000070   0.000255
              13         14         15         16         17         18
     1  C   -0.035749  -0.041701  -0.046070   0.006140   0.001917  -0.000129
     2  C    0.000221  -0.000238  -0.000043   0.000004  -0.001404  -0.000066
     3  C   -0.001576  -0.005085   0.002353  -0.000237   0.000783  -0.000048
     4  C   -0.000016   0.000006   0.000007  -0.000000  -0.044971   0.002068
     5  H   -0.000000  -0.000000   0.000000  -0.000000   0.004495   0.001239
     6  H    0.000002  -0.000002   0.000000  -0.000000  -0.000124   0.000012
     7  H   -0.003212   0.008304   0.005329  -0.000267  -0.000137   0.000011
     8  H    0.000183   0.009042   0.000030  -0.000014   0.000006   0.000005
     9  C   -0.000114  -0.000153  -0.000027   0.000006   0.227840  -0.010864
    10  H    0.000005   0.000011   0.000004  -0.000000  -0.041292  -0.009723
    11  O    0.003095  -0.000334   0.002545  -0.000009  -0.051626   0.003753
    12  C    0.353774   0.349721   0.248900  -0.021805  -0.000076   0.000006
    13  H    0.627958  -0.052603  -0.035192  -0.006565   0.000000  -0.000000
    14  H   -0.052603   0.649379  -0.041908  -0.001392  -0.000014   0.000001
    15  O   -0.035192  -0.041908   8.260326   0.231794   0.000000  -0.000000
    16  H   -0.006565  -0.001392   0.231794   0.404310   0.000000   0.000000
    17  O    0.000000  -0.000014   0.000000   0.000000   8.274715   0.225431
    18  H   -0.000000   0.000001  -0.000000   0.000000   0.225431   0.394100
    19  O    0.000000  -0.000004  -0.000000   0.000000   0.002152  -0.000152
    20  H   -0.000000   0.000000   0.000000  -0.000000  -0.000180   0.000008
    21  O   -0.000004  -0.000015   0.000000  -0.000000   0.000580   0.000322
    22  H    0.000000   0.000000  -0.000000   0.000000   0.000395  -0.000024
    23  O    0.012904   0.000273   0.000045   0.000009  -0.000000   0.000000
    24  H   -0.000289  -0.000060  -0.000001  -0.000002   0.000000  -0.000000
              19         20         21         22         23         24
     1  C   -0.003996   0.000278   0.003665  -0.000195  -0.037105   0.004682
     2  C   -0.042803   0.002563   0.184264  -0.014822  -0.041954   0.002932
     3  C    0.003104  -0.000373  -0.055982   0.004456   0.162800  -0.015781
     4  C    0.175998  -0.012482  -0.047815   0.004766   0.003030  -0.000150
     5  H   -0.027021  -0.014740   0.006958   0.000529  -0.000090   0.000004
     6  H    0.002811   0.000985  -0.028459  -0.015078   0.004358   0.000647
     7  H    0.006176  -0.000087  -0.000008   0.000006   0.002617  -0.000216
     8  H   -0.000059   0.000008   0.007127   0.000349  -0.033775  -0.011022
     9  C   -0.059442   0.004784   0.001378  -0.000327   0.000212  -0.000021
    10  H    0.010494   0.000328  -0.000225   0.000025   0.000008  -0.000000
    11  O    0.001269  -0.000085  -0.000279   0.000004   0.000971  -0.000070
    12  C    0.000182  -0.000007  -0.000081   0.000004  -0.002954   0.000255
    13  H    0.000000  -0.000000  -0.000004   0.000000   0.012904  -0.000289
    14  H   -0.000004   0.000000  -0.000015   0.000000   0.000273  -0.000060
    15  O   -0.000000   0.000000   0.000000  -0.000000   0.000045  -0.000001
    16  H    0.000000  -0.000000  -0.000000   0.000000   0.000009  -0.000002
    17  O    0.002152  -0.000180   0.000580   0.000395  -0.000000   0.000000
    18  H   -0.000152   0.000008   0.000322  -0.000024   0.000000  -0.000000
    19  O    8.329662   0.233225   0.001481  -0.000128  -0.000119   0.000002
    20  H    0.233225   0.386042  -0.000132   0.000006   0.000010  -0.000000
    21  O    0.001481  -0.000132   8.322160   0.227576   0.001854  -0.000077
    22  H   -0.000128   0.000006   0.227576   0.404074  -0.000206  -0.000020
    23  O   -0.000119   0.000010   0.001854  -0.000206   8.338592   0.231410
    24  H    0.000002  -0.000000  -0.000077  -0.000020   0.231410   0.393757
 Mulliken charges:
               1
     1  C    0.122470
     2  C    0.099064
     3  C    0.100170
     4  C    0.072444
     5  H    0.132884
     6  H    0.132415
     7  H    0.177017
     8  H    0.148624
     9  C    0.346047
    10  H    0.128436
    11  O   -0.518076
    12  C   -0.043419
    13  H    0.137180
    14  H    0.126772
    15  O   -0.628092
    16  H    0.388030
    17  O   -0.598489
    18  H    0.394049
    19  O   -0.632831
    20  H    0.399848
    21  O   -0.624287
    22  H    0.388611
    23  O   -0.642889
    24  H    0.394022
 Sum of Mulliken charges =  -0.00000
 Mulliken charges with hydrogens summed into heavy atoms:
               1
     1  C    0.299487
     2  C    0.231479
     3  C    0.248795
     4  C    0.205327
     9  C    0.474483
    11  O   -0.518076
    12  C    0.220533
    15  O   -0.240062
    17  O   -0.204441
    19  O   -0.232983
    21  O   -0.235676
    23  O   -0.248867
 Electronic spatial extent (au):  <R**2>=           2040.0116
 Charge=             -0.0000 electrons
 Dipole moment (field-independent basis, Debye):
    X=              2.4993    Y=              3.0413    Z=              0.4358  Tot=              3.9606
 Quadrupole moment (field-independent basis, Debye-Ang):
   XX=            -51.4886   YY=            -61.2915   ZZ=            -72.1197
   XY=             -5.5889   XZ=              9.5908   YZ=             -5.6388
 Traceless Quadrupole moment (field-independent basis, Debye-Ang):
   XX=             10.1447   YY=              0.3417   ZZ=            -10.4864
   XY=             -5.5889   XZ=              9.5908   YZ=             -5.6388
 Octapole moment (field-independent basis, Debye-Ang**2):
  XXX=            -20.9501  YYY=             15.7194  ZZZ=             11.5233  XYY=             33.4318
  XXY=             -0.5381  XXZ=              4.5327  XZZ=              9.3385  YZZ=              2.8286
  YYZ=            -19.9149  XYZ=              1.2443
 Hexadecapole moment (field-independent basis, Debye-Ang**3):
 XXXX=           -933.9026 YYYY=           -578.6798 ZZZZ=           -354.4426 XXXY=             14.3650
 XXXZ=             44.0616 YYYX=            -44.0329 YYYZ=            -32.1902 ZZZX=             37.7967
 ZZZY=             -3.7514 XXYY=           -272.1899 XXZZ=           -245.4672 YYZZ=           -177.7346
 XXYZ=             -0.1004 YYXZ=            -14.9851 ZZXY=              0.1746
 N-N= 8.309993364985D+02 E-N=-3.275357201595D+03  KE= 6.815496807072D+02
 Calling FoFJK, ICntrl=      2127 FMM=F ISym2X=0 I1Cent= 0 IOpClX= 0 NMat=1 NMatS=1 NMatT=0.
 ***** Axes restored to original set *****
 -------------------------------------------------------------------
 Center     Atomic                   Forces (Hartrees/Bohr)
 Number     Number              X              Y              Z
 -------------------------------------------------------------------
      1        6          -0.051818711    0.001696619   -0.015553214
      2        6          -0.017995453   -0.004305215   -0.026389170
      3        6           0.031273268   -0.008500885    0.014562340
      4        6           0.055359231    0.037364778    0.022685888
      5        1           0.004979447    0.002806882   -0.019299097
      6        1           0.014242265   -0.003033497    0.017985706
      7        1           0.017999783   -0.013698758   -0.000878678
      8        1          -0.016993316   -0.001877408   -0.015543561
      9        6          -0.084112713    0.005111028   -0.006949731
     10        1          -0.015034488   -0.023348110    0.009791723
     11        8           0.062147850    0.008897581   -0.001009254
     12        6          -0.006346196   -0.031599508   -0.003182602
     13        1           0.011495124    0.013390614    0.009208849
     14        1          -0.012088245    0.012230622   -0.013512301
     15        8           0.009393750   -0.008360102   -0.007274065
     16        1          -0.004013622    0.006096748    0.004480373
     17        8           0.000472002    0.006803990    0.015401471
     18        1          -0.001630838   -0.008550187   -0.000805759
     19        8          -0.005559124    0.001842209    0.017279586
     20        1           0.005560977    0.000658476   -0.002812382
     21        8          -0.007303359    0.000899751   -0.013455074
     22        1           0.005249419    0.004182477    0.000043157
     23        8           0.007058394   -0.004478570    0.017515597
     24        1          -0.002335444    0.005770463   -0.002289805
 -------------------------------------------------------------------
 Cartesian Forces:  Max     0.084112713 RMS     0.019647410

 GradGradGradGradGradGradGradGradGradGradGradGradGradGradGradGradGradGrad
 Berny optimization.
 FormGI is forming the generalized inverse of G from B-inverse, IUseBI=4.
 Internal  Forces:  Max     0.066800488 RMS     0.010782790
 Search for a local minimum.
 Step number   1 out of a maximum of  144
 All quantities printed in internal units (Hartrees-Bohrs-Radians)
 Mixed Optimization -- RFO/linear search
 Second derivative matrix not updated -- first step.
 ITU=  0
     Eigenvalues ---    0.00237   0.00305   0.00811   0.01250   0.01295
     Eigenvalues ---    0.01295   0.01295   0.01295   0.01295   0.02856
     Eigenvalues ---    0.03290   0.04232   0.04736   0.04959   0.05057
     Eigenvalues ---    0.05139   0.05362   0.05574   0.05816   0.06217
     Eigenvalues ---    0.06878   0.07237   0.07278   0.07600   0.07813
     Eigenvalues ---    0.09005   0.10915   0.11239   0.13704   0.14009
     Eigenvalues ---    0.15097   0.16000   0.16000   0.16000   0.16000
     Eigenvalues ---    0.16000   0.16654   0.18075   0.18582   0.19271
     Eigenvalues ---    0.19984   0.22071   0.26166   0.26674   0.28519
     Eigenvalues ---    0.28769   0.28777   0.29252   0.37230   0.37230
     Eigenvalues ---    0.37230   0.37230   0.37230   0.37230   0.37230
     Eigenvalues ---    0.39166   0.40989   0.40989   0.40989   0.40989
     Eigenvalues ---    0.40989   0.55473   0.55473   0.55473   0.55473
     Eigenvalues ---    0.55473
 RFO step:  Lambda=-5.13684083D-02 EMin= 2.36824070D-03
 Linear search not attempted -- first point.
 Maximum step size (   0.300) exceeded in Quadratic search.
    -- Step size scaled by   0.807
 Iteration  1 RMS(Cart)=  0.06908085 RMS(Int)=  0.00188193
 Iteration  2 RMS(Cart)=  0.00271493 RMS(Int)=  0.00051823
 Iteration  3 RMS(Cart)=  0.00000363 RMS(Int)=  0.00051821
 Iteration  4 RMS(Cart)=  0.00000000 RMS(Int)=  0.00051821
 Variable       Old X    -DE/DX   Delta X   Delta X   Delta X     New X
                                 (Linear)    (Quad)   (Total)
    R1        2.87932   0.00402   0.00000   0.00924   0.00918   2.88850
    R2        2.02201   0.01639   0.00000   0.03119   0.03119   2.05320
    R3        2.88399  -0.03835   0.00000  -0.09901  -0.09874   2.78525
    R4        2.91018  -0.00723   0.00000  -0.01732  -0.01732   2.89286
    R5        2.90471   0.00430   0.00000   0.01434   0.01417   2.91888
    R6        2.93892  -0.00998   0.00000  -0.02054  -0.02062   2.91830
    R7        2.02201   0.01615   0.00000   0.03075   0.03075   2.05276
    R8        2.70231   0.01436   0.00000   0.02512   0.02512   2.72742
    R9        2.02201   0.01616   0.00000   0.03077   0.03077   2.05278
   R10        2.70231   0.01398   0.00000   0.02444   0.02444   2.72674
   R11        2.02201   0.01823   0.00000   0.03470   0.03470   2.05671
   R12        2.70087   0.06680   0.00000   0.12161   0.12150   2.82237
   R13        2.70231   0.00937   0.00000   0.01639   0.01639   2.71870
   R14        2.02201   0.01980   0.00000   0.03770   0.03770   2.05971
   R15        2.90471  -0.05070   0.00000  -0.12470  -0.12452   2.78018
   R16        2.70231  -0.01309   0.00000  -0.02288  -0.02288   2.67942
   R17        2.02201   0.01870   0.00000   0.03560   0.03560   2.05760
   R18        2.02201   0.02173   0.00000   0.04137   0.04137   2.06338
   R19        2.70231  -0.00194   0.00000  -0.00339  -0.00339   2.69892
   R20        1.81414   0.00769   0.00000   0.01024   0.01024   1.82438
   R21        1.81414   0.00737   0.00000   0.00981   0.00981   1.82395
   R22        1.81414   0.00562   0.00000   0.00748   0.00748   1.82162
   R23        1.81414   0.00648   0.00000   0.00863   0.00863   1.82277
   R24        1.81414   0.00631   0.00000   0.00840   0.00840   1.82254
    A1        1.98279  -0.00631   0.00000  -0.03079  -0.03198   1.95081
    A2        1.93505   0.00282   0.00000   0.00633   0.00640   1.94145
    A3        1.87531   0.00812   0.00000   0.03753   0.03718   1.91249
    A4        1.98228  -0.00176   0.00000  -0.02577  -0.02597   1.95631
    A5        1.80794   0.00614   0.00000   0.04490   0.04522   1.85316
    A6        1.86908  -0.00837   0.00000  -0.02528  -0.02512   1.84396
    A7        1.97164  -0.01003   0.00000  -0.02808  -0.02900   1.94265
    A8        1.95978   0.00181   0.00000  -0.02574  -0.02707   1.93271
    A9        1.87660   0.00337   0.00000   0.03248   0.03249   1.90909
   A10        1.95030  -0.00165   0.00000  -0.02282  -0.02451   1.92579
   A11        1.85019   0.00628   0.00000   0.02276   0.02326   1.87346
   A12        1.84560   0.00162   0.00000   0.03189   0.03238   1.87797
   A13        1.94252   0.00473   0.00000   0.01525   0.01526   1.95778
   A14        1.98820  -0.00694   0.00000  -0.03975  -0.03996   1.94824
   A15        1.88204  -0.00350   0.00000  -0.01542  -0.01558   1.86647
   A16        1.91290  -0.00392   0.00000  -0.02253  -0.02324   1.88966
   A17        1.89131   0.00381   0.00000   0.02386   0.02396   1.91527
   A18        1.84161   0.00643   0.00000   0.04342   0.04346   1.88507
   A19        1.88175  -0.00113   0.00000  -0.00419  -0.00415   1.87760
   A20        1.99903  -0.00313   0.00000  -0.00677  -0.00711   1.99192
   A21        1.95426  -0.00409   0.00000  -0.03235  -0.03212   1.92214
   A22        1.87600   0.00403   0.00000   0.00930   0.00946   1.88545
   A23        1.85849   0.00473   0.00000   0.03746   0.03737   1.89586
   A24        1.88767   0.00054   0.00000   0.00180   0.00096   1.88863
   A25        1.78247   0.01671   0.00000   0.08055   0.07977   1.86224
   A26        2.00919  -0.01212   0.00000  -0.02206  -0.02190   1.98729
   A27        1.93120   0.00749   0.00000   0.02756   0.02681   1.95800
   A28        1.98592  -0.01177   0.00000  -0.07308  -0.07286   1.91306
   A29        1.91063  -0.00311   0.00000  -0.00171  -0.00477   1.90586
   A30        1.84498   0.00318   0.00000  -0.00853  -0.00810   1.83687
   A31        1.94199   0.02161   0.00000   0.05258   0.05237   1.99436
   A32        1.91063  -0.00530   0.00000  -0.02856  -0.02859   1.88204
   A33        1.91063   0.00042   0.00000  -0.00043  -0.00043   1.91021
   A34        1.91063  -0.00394   0.00000  -0.01099  -0.01099   1.89964
   A35        1.91063   0.00046   0.00000   0.00068   0.00034   1.91098
   A36        1.91063   0.00499   0.00000   0.02032   0.02005   1.93068
   A37        1.91063   0.00337   0.00000   0.01898   0.01892   1.92955
   A38        1.91114  -0.00678   0.00000  -0.02587  -0.02587   1.88526
   A39        1.91114  -0.00631   0.00000  -0.02406  -0.02406   1.88707
   A40        1.91114  -0.00330   0.00000  -0.01258  -0.01258   1.89855
   A41        1.91114  -0.00316   0.00000  -0.01205  -0.01205   1.89908
   A42        1.91114  -0.00366   0.00000  -0.01395  -0.01395   1.89718
    D1        1.28718  -0.00123   0.00000  -0.01896  -0.01834   1.26884
    D2       -2.82264  -0.00807   0.00000  -0.06783  -0.06734  -2.88999
    D3       -0.78499  -0.00645   0.00000  -0.04736  -0.04674  -0.83173
    D4       -0.97002   0.00410   0.00000   0.03734   0.03745  -0.93257
    D5        1.20335  -0.00274   0.00000  -0.01153  -0.01156   1.19178
    D6       -3.04219  -0.00112   0.00000   0.00894   0.00904  -3.03315
    D7       -3.00704   0.00786   0.00000   0.04230   0.04204  -2.96500
    D8       -0.83367   0.00102   0.00000  -0.00658  -0.00697  -0.84064
    D9        1.20398   0.00264   0.00000   0.01390   0.01363   1.21761
   D10        0.96972  -0.00166   0.00000  -0.00189  -0.00137   0.96835
   D11       -1.28775   0.00610   0.00000   0.05708   0.05773  -1.23003
   D12        3.01057   0.00471   0.00000   0.03172   0.03176   3.04233
   D13       -1.04590   0.00287   0.00000   0.02001   0.01947  -1.02643
   D14        1.04849   0.00044   0.00000   0.00309   0.00256   1.05106
   D15       -3.14030   0.00241   0.00000   0.01934   0.01871  -3.12159
   D16        1.05752   0.00252   0.00000   0.02495   0.02564   1.08316
   D17       -3.13127   0.00010   0.00000   0.00803   0.00873  -3.12254
   D18       -1.03688   0.00207   0.00000   0.02429   0.02488  -1.01200
   D19       -3.12571  -0.00027   0.00000   0.00622   0.00616  -3.11955
   D20       -1.03132  -0.00270   0.00000  -0.01070  -0.01074  -1.04206
   D21        1.06308  -0.00073   0.00000   0.00556   0.00540   1.06847
   D22        0.10890  -0.00874   0.00000  -0.05108  -0.05092   0.05798
   D23       -2.10627  -0.00023   0.00000   0.00645   0.00673  -2.09954
   D24        2.17550  -0.00786   0.00000  -0.04612  -0.04550   2.13000
   D25       -2.11612   0.00043   0.00000   0.02574   0.02503  -2.09109
   D26        1.95190   0.00893   0.00000   0.08327   0.08268   2.03458
   D27       -0.04951   0.00130   0.00000   0.03070   0.03045  -0.01906
   D28        2.14409  -0.00459   0.00000  -0.01855  -0.01881   2.12528
   D29       -0.07108   0.00391   0.00000   0.03898   0.03883  -0.03224
   D30       -2.07249  -0.00372   0.00000  -0.01359  -0.01340  -2.08588
   D31        2.88213  -0.00030   0.00000   0.01711   0.01636   2.89850
   D32        0.79504  -0.00263   0.00000   0.01255   0.01179   0.80683
   D33       -1.36234   0.00245   0.00000   0.04186   0.04106  -1.32127
   D34       -1.17107  -0.00756   0.00000  -0.06080  -0.06061  -1.23167
   D35        3.02503  -0.00989   0.00000  -0.06535  -0.06519   2.95984
   D36        0.86765  -0.00481   0.00000  -0.03604  -0.03591   0.83174
   D37        0.83136  -0.00287   0.00000  -0.02134  -0.02146   0.80991
   D38       -1.25573  -0.00520   0.00000  -0.02590  -0.02604  -1.28176
   D39        2.87008  -0.00012   0.00000   0.00341   0.00324   2.87332
   D40        1.92813   0.00383   0.00000   0.00312   0.00316   1.93128
   D41       -2.24178  -0.00277   0.00000  -0.00042  -0.00022  -2.24200
   D42       -0.16883  -0.00086   0.00000  -0.00027  -0.00050  -0.16933
   D43       -2.38952   0.00425   0.00000   0.01993   0.02020  -2.36932
   D44        1.78906  -0.00158   0.00000  -0.00307  -0.00273   1.78633
   D45       -0.25862  -0.00220   0.00000  -0.01095  -0.01155  -0.27017
   D46       -2.97320   0.00687   0.00000   0.04608   0.04691  -2.92628
   D47       -0.81242  -0.00287   0.00000  -0.00042  -0.00105  -0.81348
   D48        1.27764  -0.00156   0.00000  -0.00625  -0.00718   1.27046
   D49        1.21968   0.00741   0.00000   0.04904   0.04996   1.26965
   D50       -2.90273  -0.00233   0.00000   0.00254   0.00200  -2.90073
   D51       -0.81266  -0.00102   0.00000  -0.00329  -0.00413  -0.81679
   D52       -0.78058  -0.00039   0.00000  -0.00013   0.00071  -0.77986
   D53        1.38020  -0.01013   0.00000  -0.04664  -0.04725   1.33294
   D54       -2.81292  -0.00882   0.00000  -0.05247  -0.05338  -2.86630
   D55       -1.88423  -0.00076   0.00000   0.00470   0.00496  -1.87928
   D56        0.16845  -0.00148   0.00000   0.00485   0.00442   0.17287
   D57        2.18021   0.00582   0.00000   0.03530   0.03548   2.21569
   D58       -0.06518  -0.00223   0.00000  -0.02244  -0.02261  -0.08779
   D59        1.98384   0.00211   0.00000   0.01303   0.01258   1.99642
   D60       -2.20221  -0.00644   0.00000  -0.03731  -0.03698  -2.23919
   D61        1.92058   0.01195   0.00000   0.06448   0.06441   1.98499
   D62       -0.03071  -0.01027   0.00000  -0.04538  -0.04504  -0.07575
   D63       -2.17647   0.00371   0.00000   0.04854   0.04828  -2.12820
   D64        2.91388  -0.00179   0.00000  -0.00850  -0.00858   2.90531
   D65        0.81949   0.00406   0.00000   0.02076   0.02104   0.84053
   D66       -1.27491  -0.00163   0.00000  -0.00414  -0.00435  -1.27926
         Item               Value     Threshold  Converged?
 Maximum Force            0.066800     0.000450     NO 
 RMS     Force            0.010783     0.000300     NO 
 Maximum Displacement     0.305023     0.001800     NO 
 RMS     Displacement     0.069364     0.001200     NO 
 Predicted change in Energy=-2.875173D-02
 GradGradGradGradGradGradGradGradGradGradGradGradGradGradGradGradGradGrad

                          Input orientation:                          
 ---------------------------------------------------------------------
 Center     Atomic      Atomic             Coordinates (Angstroms)
 Number     Number       Type             X           Y           Z
 ---------------------------------------------------------------------
      1          6           0       -0.450372   -0.012288    1.026682
      2          6           0        1.319254    0.800388   -0.620203
      3          6           0        0.257841    1.202503    0.427416
      4          6           0        1.330716   -0.726716   -0.849718
      5          1           0        1.903595   -0.918768   -1.754959
      6          1           0        2.305035    1.144588   -0.320622
      7          1           0        0.195812   -0.560773    1.706466
      8          1           0       -0.445053    1.883457   -0.044024
      9          6           0       -0.025202   -1.328036   -1.024493
     10          1           0        0.099839   -2.408468   -0.953630
     11          8           0       -1.008794   -0.878338   -0.027109
     12          6           0       -1.648986    0.451368    1.858431
     13          1           0       -1.277449    1.114947    2.637654
     14          1           0       -2.346733    0.995501    1.218667
     15          8           0       -2.282585   -0.692838    2.432117
     16          1           0       -2.891894   -0.385734    3.115095
     17          8           0       -0.595586   -1.006172   -2.282061
     18          1           0       -0.669816   -1.820261   -2.795229
     19          8           0        1.977268   -1.388189    0.252193
     20          1           0        2.838010   -1.708877   -0.040206
     21          8           0        1.004987    1.422975   -1.883813
     22          1           0        1.667968    2.098020   -2.071318
     23          8           0        0.891337    1.900987    1.519593
     24          1           0        0.729234    2.846228    1.417633
 ---------------------------------------------------------------------
                    Distance matrix (angstroms):
                    1          2          3          4          5
     1  C    0.000000
     2  C    2.550342   0.000000
     3  C    1.528529   1.544603   0.000000
     4  C    2.683945   1.544297   2.550298   0.000000
     5  H    3.755049   2.141173   3.459921   1.088363   0.000000
     6  H    3.278088   1.086272   2.180349   2.175091   2.544782
     7  H    1.086507   2.920319   2.179211   2.801718   3.876357
     8  H    2.177221   2.148907   1.086284   3.258144   4.036819
     9  C    2.473718   2.549745   2.931173   1.493535   2.102698
    10  H    3.156905   3.448899   3.869285   2.086659   2.472827
    11  O    1.473890   2.930817   2.478075   2.484549   3.386607
    12  C    1.530836   3.882768   2.499599   4.195304   5.249256
    13  H    2.133060   4.177971   2.692570   4.728215   5.792243
    14  H    2.156080   4.105968   2.729969   4.557179   5.529210
    15  O    2.407363   4.951729   3.750321   4.881345   5.925094
    16  H    3.234496   5.752661   4.434744   5.802280   6.855529
    17  O    3.457841   3.113204   3.598311   2.416679   2.555657
    18  H    4.233665   3.943974   4.514763   2.997162   2.918440
    19  O    2.895923   2.446206   3.114292   1.438674   2.062630
    20  H    3.850989   2.989887   3.918172   1.972786   2.106604
    21  O    3.556547   1.443291   2.438977   2.407617   2.511545
    22  H    4.305620   1.977672   3.005675   3.095994   3.042468
    23  O    2.388256   2.444005   1.442931   3.565321   4.438285
    24  H    3.116957   2.947263   1.975999   4.274177   5.061586
                    6          7          8          9         10
     6  H    0.000000
     7  H    3.386173   0.000000
     8  H    2.861017   3.073953   0.000000
     9  C    3.469771   2.845290   3.383974   0.000000
    10  H    4.229397   3.240262   4.420963   1.089950   0.000000
    11  O    3.893564   2.134761   2.818795   1.471208   2.104473
    12  C    4.567615   2.109692   2.668271   3.756887   4.375470
    13  H    4.646124   2.417777   2.911167   4.576855   5.216196
    14  H    4.902100   3.020674   2.449335   3.977448   4.721398
    15  O    5.656851   2.585819   4.018096   4.177008   4.481362
    16  H    6.415148   3.398354   4.595248   5.122699   5.440262
    17  O    4.109332   4.090603   3.658063   1.417890   2.052993
    18  H    4.874807   4.754038   4.619217   1.947644   2.080828
    19  O    2.617347   2.443995   4.081550   2.375591   2.453511
    20  H    2.916326   3.369008   4.866557   3.051531   2.970076
    21  O    2.052118   4.180923   2.387358   3.060683   4.045305
    22  H    2.092803   4.848513   2.936122   3.962389   4.900683
    23  O    2.440712   2.564944   2.056975   4.211770   5.031373
    24  H    2.898320   3.460580   2.107681   4.894653   5.799212
                   11         12         13         14         15
    11  O    0.000000
    12  C    2.394415   0.000000
    13  H    3.338611   1.088837   0.000000
    14  H    2.617884   1.091893   1.780775   0.000000
    15  O    2.775742   1.428205   2.078613   2.080160   0.000000
    16  H    3.696238   1.955701   2.255311   2.408621   0.965418
    17  O    2.296060   4.514171   5.400711   4.396397   5.016733
    18  H    2.943571   5.270258   6.204907   5.181884   5.585449
    19  O    3.042124   4.371920   4.748609   5.031206   4.835485
    20  H    3.935462   5.329597   5.664090   5.981637   5.776262
    21  O    3.577528   4.689561   5.074254   4.587171   5.823404
    22  H    4.494725   5.399683   5.640597   5.306352   6.608833
    23  O    3.705055   2.944392   2.563504   3.375731   4.199334
    24  H    4.356651   3.403760   2.917629   3.595323   4.756597
                   16         17         18         19         20
    16  H    0.000000
    17  O    5.898073   0.000000
    18  H    6.475139   0.965190   0.000000
    19  O    5.736712   3.631522   4.059620   0.000000
    20  H    6.673712   4.160443   4.461770   0.963958   0.000000
    21  O    6.591373   2.936186   3.762210   3.662034   4.070301
    22  H    7.338955   3.847608   4.619762   4.200955   4.470669
    23  O    4.699740   5.011495   5.907840   3.688391   4.387896
    24  H    5.141938   5.503077   6.440625   4.565755   5.226969
                   21         22         23         24
    21  O    0.000000
    22  H    0.964566   0.000000
    23  O    3.438689   3.679215   0.000000
    24  H    3.605722   3.689691   0.964444   0.000000
 Stoichiometry    C6H12O6
 Framework group  C1[X(C6H12O6)]
 Deg. of freedom    66
 Full point group                 C1      NOp   1
 Largest Abelian subgroup         C1      NOp   1
 Largest concise Abelian subgroup C1      NOp   1
                         Standard orientation:                         
 ---------------------------------------------------------------------
 Center     Atomic      Atomic             Coordinates (Angstroms)
 Number     Number       Type             X           Y           Z
 ---------------------------------------------------------------------
      1          6           0       -1.070434    0.022723    0.178142
      2          6           0        1.249888    1.063076   -0.016841
      3          6           0       -0.250146    1.194409   -0.361006
      4          6           0        1.543577   -0.264945    0.714569
      5          1           0        2.621685   -0.413726    0.705551
      6          1           0        1.582159    1.905799    0.582659
      7          1           0       -1.184148    0.073233    1.257500
      8          1           0       -0.345313    1.287212   -1.439127
      9          6           0        0.906596   -1.461311    0.087185
     10          1           0        0.999375   -2.277419    0.803670
     11          8           0       -0.509851   -1.267961   -0.260303
     12          6           0       -2.485692    0.077012   -0.402852
     13          1           0       -2.926735    1.030894   -0.117971
     14          1           0       -2.434573    0.009911   -1.491482
     15          8           0       -3.245501   -1.007950    0.131300
     16          1           0       -4.176686   -0.845607   -0.065094
     17          8           0        1.540885   -1.831355   -1.125727
     18          1           0        1.959796   -2.691063   -0.995311
     19          8           0        1.102145   -0.185481    2.081539
     20          1           0        1.875190   -0.125800    2.654300
     21          8           0        2.022770    1.062927   -1.235751
     22          1           0        2.525249    1.884771   -1.285485
     23          8           0       -0.784573    2.393034    0.238775
     24          1           0       -0.865724    3.070283   -0.443062
 ---------------------------------------------------------------------
 Rotational constants (GHZ):      1.1498486      0.7731342      0.6269143
 Standard basis: 6-31G(d) (6D, 7F)
 There are   204 symmetry adapted cartesian basis functions of A   symmetry.
 There are   204 symmetry adapted basis functions of A   symmetry.
   204 basis functions,   384 primitive gaussians,   204 cartesian basis functions
    48 alpha electrons       48 beta electrons
       nuclear repulsion energy       831.7649608583 Hartrees.
 NAtoms=   24 NActive=   24 NUniq=   24 SFac= 1.00D+00 NAtFMM=   60 NAOKFM=F Big=F
 Integral buffers will be    131072 words long.
 Raffenetti 2 integral format.
 Two-electron integral symmetry is turned on.
 One-electron integrals computed using PRISM.
 NBasis=   204 RedAO= T EigKep=  1.40D-03  NBF=   204
 NBsUse=   204 1.00D-06 EigRej= -1.00D+00 NBFU=   204
 Initial guess from the checkpoint file:  "/scratch/10454694.yak.local/Gau-22583.chk"
 B after Tr=     0.000000    0.000000   -0.000000
         Rot=    0.999423    0.022014    0.004139    0.025551 Ang=   3.89 deg.
 ExpMin= 1.61D-01 ExpMax= 5.48D+03 ExpMxC= 8.25D+02 IAcc=1 IRadAn=         1 AccDes= 0.00D+00
 Harris functional with IExCor=  402 and IRadAn=       1 diagonalized for initial guess.
 HarFok:  IExCor=  402 AccDes= 0.00D+00 IRadAn=         1 IDoV= 1 UseB2=F ITyADJ=14
 ICtDFT=  3500011 ScaDFX=  1.000000  1.000000  1.000000  1.000000
 FoFCou: FMM=F IPFlag=           0 FMFlag=      100000 FMFlg1=           0
         NFxFlg=           0 DoJE=T BraDBF=F KetDBF=T FulRan=T
         wScrn=  0.000000 ICntrl=     500 IOpCl=  0 I1Cent=   200000004 NGrid=           0
         NMat0=    1 NMatS0=      1 NMatT0=    0 NMatD0=    1 NMtDS0=    0 NMtDT0=    0
 Petite list used in FoFCou.
 Requested convergence on RMS density matrix=1.00D-08 within 128 cycles.
 Requested convergence on MAX density matrix=1.00D-06.
 Requested convergence on             energy=1.00D-06.
 No special actions if energy rises.
 Integral accuracy reduced to 1.0D-05 until final iterations.
 Initial convergence to 1.0D-05 achieved.  Increase integral accuracy.
 SCF Done:  E(RB3LYP) =  -687.098580854     A.U. after   12 cycles
            NFock= 12  Conv=0.41D-08     -V/T= 2.0085
 Calling FoFJK, ICntrl=      2127 FMM=F ISym2X=0 I1Cent= 0 IOpClX= 0 NMat=1 NMatS=1 NMatT=0.
 ***** Axes restored to original set *****
 -------------------------------------------------------------------
 Center     Atomic                   Forces (Hartrees/Bohr)
 Number     Number              X              Y              Z
 -------------------------------------------------------------------
      1        6          -0.030978016   -0.003192843   -0.007335429
      2        6          -0.011612391    0.001102292   -0.018231179
      3        6           0.018144988    0.001937337    0.011587889
      4        6           0.026228598    0.010396254    0.004326796
      5        1          -0.000799208    0.000450999   -0.006917192
      6        1           0.003819564   -0.004070216    0.010073326
      7        1           0.007637350   -0.004537327   -0.002706524
      8        1          -0.007124146   -0.002884240   -0.006875312
      9        6          -0.042714914    0.002985014    0.004909058
     10        1          -0.003054022   -0.005875636    0.005769627
     11        8           0.037985445    0.005244599   -0.001787400
     12        6          -0.001313292   -0.013188161    0.000443543
     13        1           0.002862498    0.005502263    0.002471110
     14        1          -0.003180146    0.003727051   -0.004060893
     15        8           0.004773072   -0.000922572   -0.002544769
     16        1          -0.001810024    0.002110457    0.001415669
     17        8           0.006045895    0.002577807    0.003522609
     18        1          -0.001519187   -0.002085932   -0.000284154
     19        8          -0.005457177    0.001551724    0.004739620
     20        1           0.002404515    0.000775918   -0.001330609
     21        8          -0.002703316   -0.001815741   -0.001006097
     22        1           0.002103233    0.001373987    0.001040145
     23        8           0.001211939   -0.003456000    0.004226186
     24        1          -0.000951258    0.002292967   -0.001446019
 -------------------------------------------------------------------
 Cartesian Forces:  Max     0.042714914 RMS     0.009888795

 GradGradGradGradGradGradGradGradGradGradGradGradGradGradGradGradGradGrad
 Berny optimization.
 Using GEDIIS/GDIIS optimizer.
 FormGI is forming the generalized inverse of G from B-inverse, IUseBI=4.
 Internal  Forces:  Max     0.026088300 RMS     0.004350094
 Search for a local minimum.
 Step number   2 out of a maximum of  144
 All quantities printed in internal units (Hartrees-Bohrs-Radians)
 Mixed Optimization -- RFO/linear search
 Update second derivatives using D2CorX and points    1    2
 DE= -2.87D-02 DEPred=-2.88D-02 R= 9.99D-01
 TightC=F SS=  1.41D+00  RLast= 3.96D-01 DXNew= 5.0454D-01 1.1888D+00
 Trust test= 9.99D-01 RLast= 3.96D-01 DXMaxT set to 5.05D-01
 ITU=  1  0
 Use linear search instead of GDIIS.
     Eigenvalues ---    0.00237   0.00312   0.00797   0.01243   0.01295
     Eigenvalues ---    0.01295   0.01295   0.01295   0.01300   0.02911
     Eigenvalues ---    0.03441   0.04387   0.04725   0.04896   0.04998
     Eigenvalues ---    0.05231   0.05342   0.05528   0.05972   0.06157
     Eigenvalues ---    0.06863   0.07086   0.07248   0.07424   0.07646
     Eigenvalues ---    0.09746   0.10998   0.11275   0.13655   0.14244
     Eigenvalues ---    0.15222   0.15883   0.16000   0.16000   0.16000
     Eigenvalues ---    0.16084   0.16734   0.17958   0.18880   0.19175
     Eigenvalues ---    0.20128   0.22092   0.23346   0.26207   0.27530
     Eigenvalues ---    0.28523   0.28791   0.29293   0.37151   0.37230
     Eigenvalues ---    0.37230   0.37230   0.37230   0.37230   0.37362
     Eigenvalues ---    0.39171   0.40937   0.40989   0.40989   0.40989
     Eigenvalues ---    0.42602   0.55385   0.55473   0.55473   0.55473
     Eigenvalues ---    0.55485
 RFO step:  Lambda=-7.17926071D-03 EMin= 2.36899799D-03
 Quartic linear search produced a step of  0.65090.
 Iteration  1 RMS(Cart)=  0.05017950 RMS(Int)=  0.00202666
 Iteration  2 RMS(Cart)=  0.00238072 RMS(Int)=  0.00081081
 Iteration  3 RMS(Cart)=  0.00000374 RMS(Int)=  0.00081080
 Iteration  4 RMS(Cart)=  0.00000000 RMS(Int)=  0.00081080
 Variable       Old X    -DE/DX   Delta X   Delta X   Delta X     New X
                                 (Linear)    (Quad)   (Total)
    R1        2.88850   0.00183   0.00598   0.00072   0.00658   2.89509
    R2        2.05320   0.00514   0.02030  -0.00217   0.01813   2.07133
    R3        2.78525  -0.02015  -0.06427  -0.03708  -0.10076   2.68449
    R4        2.89286  -0.00311  -0.01127  -0.00342  -0.01469   2.87817
    R5        2.91888   0.00110   0.00922   0.00070   0.00952   2.92839
    R6        2.91830  -0.00455  -0.01342  -0.00258  -0.01620   2.90210
    R7        2.05276   0.00496   0.02001  -0.00260   0.01741   2.07017
    R8        2.72742  -0.00009   0.01635  -0.01973  -0.00338   2.72404
    R9        2.05278   0.00579   0.02003   0.00095   0.02098   2.07376
   R10        2.72674   0.00165   0.01591  -0.01236   0.00355   2.73029
   R11        2.05671   0.00525   0.02259  -0.00441   0.01818   2.07489
   R12        2.82237   0.01969   0.07908  -0.01427   0.06460   2.88698
   R13        2.71870   0.00018   0.01067  -0.01193  -0.00126   2.71744
   R14        2.05971   0.00585   0.02454  -0.00416   0.02038   2.08009
   R15        2.78018  -0.02609  -0.08105  -0.05052  -0.13115   2.64903
   R16        2.67942  -0.00459  -0.01490  -0.00034  -0.01524   2.66419
   R17        2.05760   0.00610   0.02317  -0.00145   0.02172   2.07932
   R18        2.06338   0.00627   0.02693  -0.00519   0.02173   2.08511
   R19        2.69892  -0.00273  -0.00221  -0.00810  -0.01031   2.68861
   R20        1.82438   0.00282   0.00666   0.00052   0.00719   1.83156
   R21        1.82395   0.00203   0.00638  -0.00145   0.00493   1.82888
   R22        1.82162   0.00229   0.00487   0.00105   0.00592   1.82753
   R23        1.82277   0.00220   0.00562  -0.00006   0.00556   1.82832
   R24        1.82254   0.00256   0.00547   0.00115   0.00662   1.82915
    A1        1.95081  -0.00292  -0.02082  -0.03318  -0.05622   1.89459
    A2        1.94145  -0.00125   0.00417  -0.01760  -0.01408   1.92737
    A3        1.91249   0.00313   0.02420   0.01355   0.03707   1.94956
    A4        1.95631  -0.00098  -0.01691  -0.00851  -0.02787   1.92843
    A5        1.85316   0.00247   0.02943   0.01797   0.04867   1.90182
    A6        1.84396   0.00007  -0.01635   0.03437   0.01815   1.86212
    A7        1.94265  -0.00201  -0.01887   0.02349   0.00300   1.94565
    A8        1.93271  -0.00083  -0.01762  -0.03943  -0.05945   1.87326
    A9        1.90909   0.00041   0.02115   0.00322   0.02358   1.93267
   A10        1.92579  -0.00199  -0.01595  -0.03668  -0.05580   1.86999
   A11        1.87346   0.00242   0.01514   0.01554   0.03062   1.90408
   A12        1.87797   0.00227   0.02107   0.03653   0.05939   1.93737
   A13        1.95778   0.00035   0.00994  -0.00564   0.00421   1.96199
   A14        1.94824  -0.00277  -0.02601  -0.02333  -0.05026   1.89798
   A15        1.86647  -0.00049  -0.01014   0.01559   0.00511   1.87158
   A16        1.88966  -0.00191  -0.01513  -0.01438  -0.03139   1.85827
   A17        1.91527   0.00243   0.01559   0.01060   0.02607   1.94134
   A18        1.88507   0.00262   0.02829   0.01914   0.04803   1.93310
   A19        1.87760   0.00122  -0.00270   0.02464   0.02168   1.89928
   A20        1.99192  -0.00358  -0.00463  -0.02026  -0.02573   1.96619
   A21        1.92214  -0.00077  -0.02090  -0.00117  -0.02237   1.89977
   A22        1.88545   0.00152   0.00616  -0.00769  -0.00083   1.88462
   A23        1.89586   0.00202   0.02432   0.02306   0.04752   1.94338
   A24        1.88863  -0.00010   0.00063  -0.01617  -0.01742   1.87122
   A25        1.86224   0.00443   0.05192  -0.03378   0.01762   1.87986
   A26        1.98729  -0.00455  -0.01425  -0.00010  -0.01403   1.97326
   A27        1.95800  -0.00284   0.01745  -0.04837  -0.03141   1.92659
   A28        1.91306  -0.00390  -0.04743   0.00886  -0.03907   1.87399
   A29        1.90586   0.00104  -0.00310   0.03367   0.02890   1.93477
   A30        1.83687   0.00574  -0.00527   0.04318   0.03844   1.87531
   A31        1.99436   0.01294   0.03409   0.04666   0.08139   2.07575
   A32        1.88204  -0.00099  -0.01861   0.01195  -0.00674   1.87531
   A33        1.91021  -0.00068  -0.00028  -0.01041  -0.01073   1.89947
   A34        1.89964  -0.00073  -0.00715   0.00698  -0.00015   1.89949
   A35        1.91098  -0.00038   0.00022  -0.01217  -0.01237   1.89861
   A36        1.93068   0.00126   0.01305   0.00034   0.01320   1.94388
   A37        1.92955   0.00143   0.01231   0.00349   0.01575   1.94530
   A38        1.88526  -0.00230  -0.01684   0.00056  -0.01628   1.86898
   A39        1.88707  -0.00047  -0.01566   0.01683   0.00117   1.88824
   A40        1.89855  -0.00197  -0.00819  -0.00809  -0.01628   1.88227
   A41        1.89908  -0.00287  -0.00785  -0.01730  -0.02515   1.87393
   A42        1.89718  -0.00236  -0.00908  -0.01062  -0.01970   1.87748
    D1        1.26884  -0.00000  -0.01193  -0.01522  -0.02573   1.24312
    D2       -2.88999  -0.00423  -0.04383  -0.05481  -0.09694  -2.98693
    D3       -0.83173  -0.00289  -0.03042  -0.03507  -0.06409  -0.89582
    D4       -0.93257   0.00452   0.02437   0.03541   0.05916  -0.87342
    D5        1.19178   0.00030  -0.00753  -0.00418  -0.01206   1.17972
    D6       -3.03315   0.00164   0.00588   0.01555   0.02080  -3.01236
    D7       -2.96500   0.00326   0.02736  -0.00457   0.02227  -2.94273
    D8       -0.84064  -0.00096  -0.00454  -0.04416  -0.04895  -0.88959
    D9        1.21761   0.00038   0.00887  -0.02443  -0.01609   1.20152
   D10        0.96835  -0.00071  -0.00089  -0.00947  -0.00896   0.95939
   D11       -1.23003   0.00490   0.03757   0.05498   0.09310  -1.13693
   D12        3.04233   0.00241   0.02067   0.01792   0.03898   3.08131
   D13       -1.02643   0.00150   0.01267   0.08643   0.09872  -0.92771
   D14        1.05106   0.00008   0.00167   0.07289   0.07428   1.12533
   D15       -3.12159   0.00097   0.01218   0.07511   0.08688  -3.03471
   D16        1.08316   0.00118   0.01669   0.06477   0.08222   1.16538
   D17       -3.12254  -0.00023   0.00569   0.05124   0.05778  -3.06476
   D18       -1.01200   0.00066   0.01619   0.05346   0.07038  -0.94162
   D19       -3.11955   0.00129   0.00401   0.08049   0.08405  -3.03550
   D20       -1.04206  -0.00012  -0.00699   0.06695   0.05961  -0.98246
   D21        1.06847   0.00077   0.00351   0.06917   0.07221   1.14068
   D22        0.05798  -0.00406  -0.03314  -0.00849  -0.04116   0.01682
   D23       -2.09954   0.00057   0.00438   0.03508   0.03982  -2.05972
   D24        2.13000  -0.00284  -0.02962   0.01445  -0.01411   2.11589
   D25       -2.09109   0.00051   0.01629   0.05014   0.06521  -2.02588
   D26        2.03458   0.00514   0.05381   0.09371   0.14619   2.18077
   D27       -0.01906   0.00173   0.01982   0.07309   0.09226   0.07319
   D28        2.12528  -0.00203  -0.01224   0.02711   0.01487   2.14015
   D29       -0.03224   0.00259   0.02528   0.07069   0.09585   0.06361
   D30       -2.08588  -0.00082  -0.00872   0.05006   0.04192  -2.04396
   D31        2.89850  -0.00066   0.01065  -0.01816  -0.00881   2.88969
   D32        0.80683  -0.00120   0.00767  -0.01307  -0.00653   0.80030
   D33       -1.32127   0.00206   0.02673   0.02334   0.04862  -1.27265
   D34       -1.23167  -0.00454  -0.03945  -0.07831  -0.11715  -1.34882
   D35        2.95984  -0.00509  -0.04243  -0.07322  -0.11487   2.84497
   D36        0.83174  -0.00183  -0.02337  -0.03681  -0.05972   0.77203
[...]
 0041036,0.00008681,-0.00090795,0.00103757,-0.00052379,-0.00010834,0.00
 003077,0.00003623,0.00000422,-0.00002295,0.00005263,0.00002253,0.00000
 566,-0.00002367,0.00043196,0.00000303,-0.00001256,0.00003433,-0.000123
 95,0.00009472,-0.00064822,-0.00004176,-0.00025116,0.00007891,-0.000022
 20,0.00003524,0.00102646,-0.00090315,0.00003520,-0.02152458,0.00896942
 ,-0.00682826,0.00175276,0.00098194,-0.00116646,0.00140664,0.00148867,-
 0.00018323,-0.46424852,0.06629809,-0.05810516,0.48415743,-0.00202951,-
 0.00597402,0.00329648,0.00000707,-0.00038010,0.00011662,-0.00146593,0.
 00096842,-0.00018016,-0.00009801,-0.00005095,-0.00012184,0.00001850,0.
 00003441,-0.00002737,-0.00001879,0.00001146,-0.00003094,0.00027559,-0.
 00005782,-0.00007176,0.00005636,0.00000974,0.00001821,0.00023723,0.000
 48942,0.00118584,-0.00003179,-0.00001736,-0.00006886,0.00178954,0.0003
 3434,-0.00081404,-0.03911675,0.00034561,-0.00276451,-0.00044458,0.0004
 7401,-0.00075378,0.00041629,0.00044614,0.00061443,0.11374054,-0.050032
 15,0.03285264,-0.07344959,0.05370885,0.00105464,0.00222199,-0.00167789
 ,0.00002253,0.00007075,0.00003420,0.00063850,0.00017006,0.00066649,0.0
 0012602,-0.00001670,-0.00005088,-0.00000074,0.00004120,-0.00005642,-0.
 00002163,0.00000134,-0.00001155,0.00012868,0.00009939,0.00008147,0.000
 00447,0.00009315,0.00006737,0.00078590,0.00022730,0.00078091,-0.000153
 00,0.00000858,-0.00009189,-0.00022643,-0.00010046,-0.00021281,0.022730
 89,-0.00119297,0.00021520,-0.00068768,0.00054759,0.00045852,0.00089322
 ,-0.00050027,0.00029518,-0.08817713,0.03181175,-0.02616512,0.06311604,
 -0.03311600,0.02606673,-0.00343835,0.00623349,-0.00004716,-0.00075810,
 0.00139567,0.00335271,-0.00021404,0.00028832,0.00012640,-0.03182935,-0
 .00728022,-0.00896708,0.00091372,0.00101827,-0.00077925,0.00040788,0.0
 0021581,-0.00006830,0.00099585,-0.00160426,-0.00025875,0.00001623,-0.0
 0064558,0.00038596,-0.20958800,0.00413112,-0.04811904,-0.03249070,-0.0
 0206420,-0.01651674,-0.00398054,-0.01614599,-0.03208280,-0.00318850,-0
 .00250504,-0.00165484,0.00144349,0.00062100,0.00136293,0.00072093,-0.0
 0122853,0.00170584,0.00150536,0.00465499,0.00397702,0.00069583,-0.0006
 3696,-0.00115508,0.45159613,-0.00018823,0.00252366,0.00246352,-0.00025
 727,-0.00062988,0.00129067,0.00045799,0.00082848,0.00037483,-0.0218942
 5,-0.00118287,-0.00494257,-0.00072309,0.00157382,-0.00158301,-0.000045
 82,0.00013654,-0.00014934,-0.00015570,0.00006889,0.00000874,-0.0000203
 5,0.00010762,-0.00012711,-0.01260619,-0.07647314,0.00788714,0.02358868
 ,0.01313866,0.00765419,-0.01693195,0.00620335,-0.01698250,0.00224804,-
 0.00516982,0.00203873,0.00001999,-0.00024543,-0.00235067,-0.00055131,-
 0.00118530,-0.00412897,0.00124135,0.00078717,-0.00150526,-0.00034201,-
 0.00044697,0.00002576,0.11270408,0.12667011,-0.00290773,0.00892697,0.0
 0270112,0.00167434,0.00026576,-0.00345869,0.00130534,0.00014781,-0.001
 21700,0.01792241,0.00315795,0.01112749,0.00110939,-0.00118332,0.001582
 79,0.00049654,0.00012624,0.00025038,0.00051715,-0.00085494,-0.00011355
 ,-0.00009725,-0.00042547,0.00032281,-0.01194655,0.01804893,-0.10151361
 ,-0.01273124,0.00034814,0.00130027,-0.04646045,-0.01792873,-0.04139979
 ,0.00101545,-0.00195648,-0.00036794,0.00062488,-0.00041829,-0.00060210
 ,0.00053265,-0.00115118,-0.00088324,0.00170671,-0.00107951,-0.00083117
 ,-0.00014420,-0.00084232,-0.00062269,-0.10446766,-0.12694216,0.4294804
 2,0.00135429,-0.00360722,-0.00106933,-0.00033226,-0.00036062,0.0012615
 6,-0.00051058,0.00018956,0.00003699,-0.00457616,0.00024442,-0.00395146
 ,0.00009160,0.00002872,-0.00002123,-0.00007933,0.00006322,-0.00002589,
 -0.00010049,0.00034497,0.00011760,0.00007422,0.00015444,-0.00015827,-0
 .03468474,-0.02028385,0.03238263,0.00068760,0.00026509,-0.00005706,0.0
 0533459,0.00420509,0.00307372,0.00198323,0.00193391,-0.00130855,-0.000
 58478,-0.00049719,0.00027574,0.00010344,-0.00019516,0.00019798,-0.0025
 0801,-0.00298215,-0.00148911,-0.00056409,0.00107173,0.00099431,-0.1686
 3515,-0.08202710,0.14998507,0.20320446,-0.00144745,-0.00148569,-0.0004
 3450,-0.00042919,0.00035920,0.00063638,-0.00027645,-0.00057610,0.00018
 616,-0.00348150,-0.00020438,0.00000061,-0.00021362,0.00060459,-0.00050
 281,-0.00007892,-0.00009814,-0.00008419,0.00018903,0.00017641,0.000075
 36,0.00001004,-0.00000166,0.00002021,-0.00552268,-0.00307398,0.0046651
 9,0.00106733,0.00053411,0.00041261,0.00314561,0.00049008,0.00179468,-0
 .00161937,-0.00380929,-0.00081253,0.00016044,0.00066370,0.00037743,0.0
 0013432,-0.00062268,0.00046811,-0.00037938,0.00190915,0.00260392,0.000
 63528,0.00042441,-0.00037027,-0.09310705,-0.06548622,0.12036158,0.1016
 3191,0.07070898,-0.00044042,-0.00096413,-0.00065447,-0.00007364,-0.000
 18324,0.00095383,-0.00016819,-0.00011916,0.00019996,-0.00279324,0.0001
 1021,-0.00110830,0.00014021,-0.00031500,0.00028255,0.00004216,0.000121
 62,0.00002493,-0.00003371,-0.00007781,0.00000240,0.00002342,0.00004359
 ,-0.00004623,-0.01514425,-0.00552357,0.01336852,-0.00109458,0.00013400
 ,-0.00069673,0.00047111,-0.00031144,-0.00100928,-0.00153748,-0.0023452
 5,0.00188152,0.00030845,0.00075697,-0.00041576,0.00020110,0.00050048,-
 0.00056736,0.00013543,0.00181808,-0.00042752,0.00025980,0.00070381,0.0
 0039545,0.20043859,0.13532398,-0.29607636,-0.18053785,-0.12898770,0.28
 392273,0.00039503,-0.00176481,-0.00073173,0.00182586,0.00216140,0.0052
 7878,0.00051590,-0.00202299,-0.00121730,-0.15025776,0.07578381,0.05764
 550,-0.02466658,0.02267076,0.01832756,0.00223208,0.00033919,0.00160603
 ,-0.00005157,0.00026558,0.00017746,0.00051308,-0.00061547,-0.00013573,
 -0.02123439,0.01444151,0.01493265,0.00101045,0.00094014,-0.00121911,-0
 .00187455,-0.00053662,0.00462044,0.00008941,0.00012910,-0.00070966,-0.
 00012409,0.00014673,0.00021159,0.00024774,-0.00019808,0.00011951,-0.00
 027453,-0.00000430,0.00059187,0.00011492,0.00002936,-0.00016623,-0.002
 52952,-0.00275729,0.00237142,-0.00022706,-0.00073616,-0.00029876,0.370
 25440,-0.00022015,-0.00275601,0.00049567,0.02868267,-0.02424313,-0.023
 50220,-0.00691359,-0.00271304,-0.00056508,0.03319386,-0.13823613,-0.01
 594774,0.02097138,-0.01141753,-0.01324286,-0.00006067,0.00189696,0.001
 23919,0.00002551,0.00032526,-0.00003152,0.00004956,0.00023872,-0.00003
 645,-0.01202087,0.01436916,0.00639630,-0.00051291,0.00240611,-0.000439
 08,-0.00116028,0.00092582,0.00427010,-0.00056171,-0.00000807,0.0002406
 9,-0.00013082,0.00011590,-0.00002433,-0.00006606,-0.00005357,-0.000089
 73,0.00061719,0.00058384,-0.00021760,-0.00001033,0.00000254,-0.0000084
 1,-0.00257309,-0.00051245,0.00080117,-0.00029677,-0.00057020,-0.000406
 15,0.09163373,0.41481574,-0.00122303,0.00055952,0.00106541,0.02551880,
 -0.02294233,-0.01969054,-0.00466430,-0.00245951,0.00060297,0.05525934,
 -0.04698639,-0.10377062,-0.00359998,0.00359483,0.01513625,0.00203144,0
 .00234216,0.00271472,0.00009767,-0.00012775,-0.00010363,0.00058193,-0.
 00064260,-0.00021542,0.01881199,-0.01320950,-0.01427054,-0.00030744,-0
 .00167989,0.00122909,0.00236970,0.00207719,-0.00290862,-0.00057537,-0.
 00002357,-0.00018712,0.00011779,-0.00001854,-0.00000583,0.00004405,0.0
 0000259,0.00004856,0.00061365,0.00025260,-0.00016535,-0.00003428,-0.00
 003925,0.00001414,0.00307050,0.00159802,-0.00065584,0.00035056,-0.0000
 3658,0.00020210,-0.22842472,-0.07048804,0.22262327,-0.00002291,-0.0002
 9720,0.00001458,0.00266451,-0.00070317,0.00012826,-0.00067461,-0.00032
 766,0.00014596,-0.02349102,-0.01996753,0.01962920,0.00039918,-0.000732
 82,-0.00047910,-0.00001404,0.00014569,-0.00023741,0.00000131,0.0000126
 8,-0.00003037,-0.00007674,0.00012446,0.00002559,-0.00209521,0.00450477
 ,0.00116899,0.00004841,0.00008101,-0.00001968,-0.00024386,-0.00042698,
 0.00025178,-0.00005042,-0.00001570,0.00015343,-0.00000890,-0.00000653,
 -0.00002730,-0.00003650,0.00001603,-0.00002868,0.00006708,0.00004947,-
 0.00011167,-0.00001736,0.00000582,0.00003116,-0.00024291,-0.00051547,0
 .00007910,-0.00014805,-0.00014276,-0.00003547,-0.17963025,-0.15396726,
 0.12913657,0.20455333,-0.00025022,0.00077003,0.00036771,0.00310464,0.0
 0169030,-0.00452797,-0.00026447,-0.00023447,0.00069362,0.02050670,0.01
 262227,-0.01497060,0.00102366,-0.00061479,-0.00010225,-0.00021442,-0.0
 0023731,0.00048197,-0.00003829,-0.00006476,0.00001616,0.00007783,-0.00
 003170,-0.00005366,0.00198061,-0.00326693,-0.00072168,-0.00006418,0.00
 053271,-0.00034104,0.00008620,0.00028221,-0.00136304,0.00016682,-0.000
 01532,0.00007942,0.00002256,-0.00003482,-0.00002262,-0.00003009,0.0000
 3024,-0.00000393,-0.00014917,-0.00012898,-0.00000363,-0.00001019,0.000
 00032,0.00000992,0.00027701,0.00051542,-0.00023989,0.00008528,0.000205
 26,0.00005843,-0.19787912,-0.25356437,0.15003823,0.17264202,0.24132078
 ,0.00011982,0.00097830,-0.00005917,0.00215904,0.00120466,-0.00153482,0
 .00077527,0.00019877,-0.00011350,0.01548056,0.01521379,-0.01250579,-0.
 00079573,0.00008524,0.00105908,-0.00022123,-0.00030824,-0.00057923,-0.
 00004889,-0.00009784,0.00001318,-0.00019924,0.00017076,0.00004836,0.00
 366211,-0.00249862,-0.00091431,0.00001127,-0.00055124,0.00015131,0.000
 28088,-0.00030989,-0.00145246,0.00025548,-0.00003339,0.00007877,0.0000
 2122,-0.00003488,-0.00001358,-0.00002351,0.00002080,-0.00000125,-0.000
 26002,-0.00018852,0.00002093,-0.00000165,0.,0.00001819,0.00032272,0.00
 005712,-0.00076013,0.00017689,0.00013407,0.00017065,0.12898376,0.11567
 091,-0.10221789,-0.14837159,-0.13169430,0.11721745,-0.00205167,0.00798
 106,0.00382307,-0.10228574,-0.04476006,0.05192747,-0.02397936,-0.02398
 578,0.02823567,-0.01533993,-0.02036009,0.01515440,0.00144975,0.0015637
 7,0.00140489,0.01333706,0.00372393,-0.00346055,-0.00121108,-0.00109357
 ,0.00094727,0.00328629,-0.00253437,-0.00152636,0.00158191,-0.00100810,
 -0.00282169,-0.00047566,-0.00075566,0.00056671,0.00093480,-0.00059100,
 -0.00149932,0.00143732,-0.00086805,0.00086297,0.00000116,0.00006618,0.
 00011030,-0.00007415,0.00000691,-0.00006651,-0.00145924,-0.00046273,0.
 00025916,-0.00005666,-0.00014613,-0.00008280,-0.00115070,-0.00089513,0
 .00002812,-0.00004903,0.00023703,0.00002585,0.00264364,0.00045141,-0.0
 0022083,-0.00138184,0.00036960,-0.00106661,0.20572589,0.00271487,-0.00
 259923,-0.00242925,-0.05077153,-0.13226197,0.07033545,-0.00222970,0.00
 376078,-0.00344448,-0.02244535,-0.03105946,0.02164877,0.00083873,0.002
 02202,-0.00010516,-0.01390704,-0.01489568,0.01958237,0.00007467,0.0004
 2199,-0.00000730,-0.00179781,0.00217588,-0.00026477,0.00245917,-0.0019
 6677,-0.00652176,-0.00065488,-0.00056057,0.00103820,-0.00223837,0.0019
 0447,0.00118850,-0.00019069,0.00014498,-0.00029238,-0.00019974,0.00018
 206,0.00013923,0.00004919,-0.00015581,0.00001611,0.00003449,0.00029328
 ,0.00024152,0.00008252,0.00000890,-0.00009722,-0.00270035,-0.00072831,
 0.00101538,-0.00009680,-0.00023154,-0.00035340,-0.00246892,0.00092425,
 0.00071224,-0.00001933,0.00034516,0.00143857,0.22484866,0.42407387,0.0
 0220281,-0.00669904,-0.00141703,0.02498747,0.02979918,-0.15154080,0.02
 221490,0.02001832,-0.02349991,-0.00596052,-0.01185524,0.01177566,0.000
 91873,0.00084381,0.00211656,0.01921875,0.02345376,-0.01991365,0.000703
 16,0.00083421,-0.00040063,-0.00067624,-0.00062885,0.00159385,-0.001194
 58,-0.00436002,-0.00584297,-0.00028226,-0.00028153,0.00067272,0.000963
 70,0.00208309,0.00229968,-0.00134411,0.00089046,-0.00109753,-0.0000278
 7,0.00001252,-0.00001704,0.00021380,-0.00006050,0.00014193,0.00140056,
 0.00053558,0.00000244,0.00009384,0.00011330,-0.00002582,-0.00036771,0.
 00013962,0.00147604,-0.00034104,-0.00045724,-0.00037141,-0.00199584,-0
 .00024987,0.00262199,-0.00040165,0.00128222,0.00061861,0.02147817,0.11
 031873,0.37724082,0.00045934,-0.00137942,-0.00024307,-0.01091847,-0.01
 834755,-0.01286330,-0.00163745,-0.00302129,-0.00148468,-0.00289845,-0.
 00273725,0.00462097,0.00028254,0.00031908,0.00020884,0.00115454,0.0009
 1800,0.00025068,0.00009316,0.00013037,-0.00002875,-0.00056093,0.000250
 60,0.00017223,0.00052391,-0.00119194,-0.00193441,-0.00020007,-0.000118
 94,0.00032955,-0.00009724,0.00119215,0.00051535,-0.00043253,0.00007456
 ,-0.00012924,-0.00006004,0.00005827,0.00003386,0.00003891,-0.00003005,
 -0.00001343,0.00045225,0.00032323,-0.00009586,0.00000702,0.00000399,0.
 00000172,-0.00025239,0.00014647,0.00035962,-0.00005685,-0.00017084,-0.
 00012218,0.00046799,0.00150203,0.00018824,0.00033739,-0.00118289,-0.00
 085456,-0.08383460,-0.13500198,-0.08255282,0.09578217,-0.00017411,-0.0
 0052451,-0.00028221,-0.01533210,-0.02341109,-0.01508478,0.00072984,0.0
 0246814,-0.00064592,-0.00138927,-0.00329624,0.00438826,0.00009859,0.00
 030347,0.00009452,0.00090786,0.00054118,-0.00101348,0.00008659,0.00011
 749,-0.00006989,0.00013463,-0.00010479,0.00008823,-0.00030441,-0.00050
 087,-0.00130449,-0.00009597,-0.00009485,0.00017083,0.00044101,0.000041
 65,0.00007022,-0.00014650,0.00009364,-0.00004036,0.00001594,-0.0000242
 5,-0.00003050,0.00001305,-0.00000117,0.00001764,0.00011717,0.00000195,
 -0.00001549,0.00000375,0.00001588,0.00001311,-0.00012138,-0.00008622,0
 .00020799,-0.00007861,-0.00004900,-0.00008106,-0.00028282,0.00065551,0
 .00044836,-0.00005018,0.00012868,0.00001428,-0.14130187,-0.25524620,-0
 .16737308,0.15626089,0.28018752,-0.00056051,0.00011644,-0.00029203,0.0
 1505222,0.02565731,0.01286753,0.00327260,0.00261459,0.00151398,0.00284
 078,0.00239222,-0.00370038,0.00016728,-0.00011565,0.00010860,0.0000280
 7,0.00090788,-0.00027085,0.00015577,0.00009036,-0.00018802,-0.00054397
 ,-0.00023213,-0.00027143,0.00027816,0.00056970,0.00142919,0.00000383,0
 .00007871,-0.00013989,0.00008781,-0.00059416,-0.00026495,0.00013077,-0
 .00001603,0.00006189,0.00002632,-0.00004292,-0.00001616,-0.00003312,-0
 .00000698,-0.00001194,-0.00020691,-0.00014514,0.00001464,-0.00000353,0
 .00000601,0.00002626,0.00025249,0.00009782,-0.00037269,0.00010548,0.00
 008587,0.00008603,-0.00033975,-0.00056073,0.00025095,-0.00053509,0.000
 88318,0.00009172,-0.11290169,-0.21150637,-0.19799001,0.09554165,0.1803
 7273,0.18679132,-0.01260876,-0.01662994,-0.01424793,0.01209349,0.01233
 331,0.01671205,-0.12573137,-0.01567566,-0.03460315,-0.00452830,0.00120
 836,0.00167858,0.00045167,0.00005503,0.00037494,0.00236283,-0.00108245
 ,-0.00096396,0.00203257,0.00118945,-0.00193057,-0.01368263,-0.02232518
 ,-0.01951862,-0.00106168,0.00051157,0.00343116,0.00014322,-0.00016577,
 -0.00041303,-0.00098781,-0.00613483,-0.00147053,0.00039717,-0.00167244
 ,0.00061003,-0.00016354,0.00018368,-0.00003178,0.00020308,-0.00019657,
 0.00047761,-0.00207512,-0.00064082,0.00085231,-0.00010514,-0.00013024,
 0.00016559,0.00008177,-0.00061514,-0.00109696,0.00020315,0.00050220,0.
 00029008,0.00065229,0.00160106,0.00103852,0.00007122,-0.00025206,-0.00
 038448,0.00249170,0.00318484,0.00040971,0.00115219,0.00000884,-0.00168
 450,0.37006822,-0.02026137,-0.01644049,-0.01766392,-0.01514672,-0.0288
 3293,-0.02539490,-0.05438359,-0.12976202,-0.06292850,0.00469587,0.0013
 5944,-0.00052092,-0.00025610,-0.00010192,-0.00025520,-0.00165919,0.001
 77881,0.00121087,0.00166037,0.00159031,-0.00199073,-0.00067429,0.00720
 083,-0.00167293,0.00093381,0.00200961,0.00249521,0.00004750,-0.0001856
 1,-0.00024412,-0.00146533,-0.00576833,0.00022411,0.00118979,-0.0036639
 3,0.00088539,-0.00053614,0.00063962,0.00026185,-0.00032012,-0.00003919
 ,-0.00009792,-0.00238351,0.00002199,0.00037411,-0.00025281,-0.00031881
 ,0.00008409,-0.00096181,-0.00060360,-0.00073503,0.00026203,0.00031495,
 0.00018869,0.00081739,-0.00279687,-0.00275054,-0.00039117,-0.00021277,
 0.00048757,-0.00020872,0.00313199,0.00055062,0.00141268,-0.00152963,0.
 00016042,-0.14588128,0.43097471,0.00374467,0.00316868,0.00702843,-0.00
 953698,-0.02242095,-0.02132471,-0.05908461,-0.04692720,-0.11254631,0.0
 0401896,0.00071348,-0.00020700,0.00013720,0.00013354,0.00049831,0.0002
 3126,0.00095119,0.00122052,-0.00072112,-0.00059974,0.00420295,-0.01861
 159,-0.02372287,-0.01834626,0.00102396,0.00102934,-0.00213217,-0.00011
 689,-0.00008849,0.00031452,-0.00020005,0.00073275,0.00233815,0.0013570
 6,-0.00016200,-0.00025148,-0.00032288,0.00034117,-0.00003184,0.0007751
 4,0.00022978,0.00056569,-0.00036395,-0.00006726,0.00078811,0.00003889,
 -0.00007611,-0.00025152,-0.00041133,-0.00029793,0.00063466,0.00000461,
 -0.00011143,-0.00011689,0.00039944,-0.00261958,-0.00165944,-0.00042323
 ,0.00022665,0.00056522,-0.00052907,-0.00278491,0.00118885,-0.00202574,
 0.00025876,-0.00028414,-0.01375209,0.21046464,0.19028645,0.00028669,-0
 .00081166,-0.00137815,-0.00211787,-0.00170736,-0.00121777,0.01020005,-
 0.02326398,-0.01252872,0.00080363,-0.00059888,-0.00011744,0.00005581,0
 .00016276,0.00009707,0.00028361,-0.00034685,0.00017543,0.00016356,0.00
 003081,0.00040688,0.00053409,-0.00059655,-0.00069491,0.00018672,0.0000
 9997,-0.00020040,-0.00002620,0.00002211,0.00004272,-0.00032068,-0.0000
 1769,0.00049339,0.00010774,-0.00114480,-0.00026951,-0.00042557,0.00046
 051,0.00017949,-0.00000020,0.00007839,0.00006408,0.00013297,0.00064997
 ,0.00000016,-0.00008584,-0.00008375,-0.00002296,-0.00007894,0.00011967
 ,0.00012384,0.00001999,-0.00010782,-0.00005644,-0.00009251,-0.00023389
 ,-0.00018078,-0.00000780,-0.00000785,-0.00002149,0.00046014,0.00043534
 ,0.00033903,0.00019762,0.00045908,-0.00113416,-0.23146024,0.23376271,0
 .09436834,0.22118325,0.00064104,-0.00130783,-0.00086939,-0.00416998,-0
 .00319040,-0.00343027,0.02020996,-0.01850863,-0.00566252,0.00133299,0.
 00051288,-0.00016526,-0.00015402,-0.00006022,-0.00005095,-0.00049765,0
 .00048095,0.00028281,-0.00033576,-0.00072398,0.00088849,-0.00021762,0.
 00292459,0.00075871,0.00015623,-0.00001061,-0.00090290,-0.00002861,0.0
 0006343,0.00014521,-0.00031783,0.00085759,0.00116591,-0.00038659,-0.00
 037782,-0.00005540,-0.00030736,0.00023161,0.00000169,0.00010046,0.0001
 3229,0.00006397,0.00054252,0.00041014,-0.00009842,-0.00001362,0.000003
 71,-0.00002368,0.00003472,0.00019650,0.00034939,-0.00005490,-0.0001819
 6,-0.00009192,-0.00009213,-0.00038845,-0.00022126,-0.00001817,-0.00003
 714,0.00004207,-0.00027730,0.00031593,0.00108995,0.00058981,0.00031372
 ,-0.00081312,0.19062404,-0.25876618,-0.11837151,-0.20736024,0.27710988
 ,0.00007429,0.00051189,0.00167605,-0.00452566,-0.00459582,-0.00419556,
 0.01656988,-0.01984520,-0.01082691,0.00195890,-0.00003770,0.00000073,-
 0.00016174,0.00007589,-0.00011093,-0.00012848,0.00015454,0.00034152,-0
 .00011803,0.00059797,-0.00033737,0.00118329,0.00071228,0.00066121,0.00
 014533,-0.00001836,0.00001449,-0.00000397,0.00000221,-0.00003735,0.000
 16247,0.00038579,-0.00053597,-0.00006141,-0.00005654,0.00032885,0.0000
 5304,-0.00001439,0.00017375,-0.00013161,-0.00007254,-0.00025170,0.0001
 4726,0.00018975,-0.00033835,-0.00003626,-0.00000040,0.00004648,-0.0000
 9941,0.00004937,-0.00000119,-0.00000335,-0.00002492,-0.00000035,-0.000
 02719,-0.00068466,-0.00065863,-0.00006338,-0.00009293,0.00009865,-0.00
 064860,0.00013193,0.00036764,0.00012531,-0.00020369,0.00056040,0.06405
 702,-0.10313288,-0.05248008,-0.07846767,0.12596840,0.06550462\\-0.0000
 1433,-0.00000115,-0.00000356,-0.00000660,-0.00000423,0.00001858,0.0000
 0406,-0.00000228,0.00000052,0.00000613,-0.00002517,-0.00000181,-0.0000
 0126,-0.00000379,0.00000113,-0.00000111,-0.00000021,-0.00000197,-0.000
 00030,0.00000008,0.00000385,-0.00000793,0.00000009,-0.00001149,0.00000
 253,0.00002541,0.00002748,-0.00000257,-0.00000235,0.00000793,0.0000219
 6,0.00000284,-0.00001225,-0.00000735,-0.00000292,-0.00000689,0.0000085
 4,0.00000754,0.00000351,-0.00000175,0.00000122,0.00000452,0.00001215,0
 .00000809,0.00000823,-0.00000173,0.00000424,-0.00000568,-0.00002064,0.
 00000232,0.00000882,0.00001268,-0.00000076,0.00000440,-0.00000491,0.00
 000098,0.00000612,-0.00000097,-0.00000969,-0.00000490,0.00000450,-0.00
 000443,-0.00001287,-0.00000307,-0.00000106,-0.00000678,0.00000428,0.00
 000283,-0.00002133,-0.00000231,0.00000240,-0.00000555\\\@


 THAT'S WHAT MAKES US A GREAT COUNTRY.
 THE LITTLE THINGS ARE SERIOUS AND THE BIG ONES ARE NOT.
           WILL ROGERS
 Job cpu time:       0 days  0 hours 20 minutes 14.3 seconds.
 File lengths (MBytes):  RWF=    129 Int=      0 D2E=      0 Chk=      5 Scr=      1
 Normal termination of Gaussian 09 at Thu Jan 12 12:58:41 2017.
