 Entering Gaussian System, Link 0=g09
 Initial command:
 /global/software/gaussian/g09.e01/l1.exe "/scratch/10454688.yak.local/Gau-11807.inp" -scrdir="/scratch/10454688.yak.local/"
 Entering Link 1 = /global/software/gaussian/g09.e01/l1.exe PID=     11808.
  
 Copyright (c) 1988,1990,1992,1993,1995,1998,2003,2009,2015,
            Gaussian, Inc.  All Rights Reserved.
  
 This is part of the Gaussian(R) 09 program.  It is based on
 the Gaussian(R) 03 system (copyright 2003, Gaussian, Inc.),
 the Gaussian(R) 98 system (copyright 1998, Gaussian, Inc.),
 the Gaussian(R) 94 system (copyright 1995, Gaussian, Inc.),
 the Gaussian 92(TM) system (copyright 1992, Gaussian, Inc.),
 the Gaussian 90(TM) system (copyright 1990, Gaussian, Inc.),
 the Gaussian 88(TM) system (copyright 1988, Gaussian, Inc.),
 the Gaussian 86(TM) system (copyright 1986, Carnegie Mellon
 University), and the Gaussian 82(TM) system (copyright 1983,
 Carnegie Mellon University). Gaussian is a federally registered
 trademark of Gaussian, Inc.
  
 This software contains proprietary and confidential information,
 including trade secrets, belonging to Gaussian, Inc.
  
 This software is provided under written license and may be
 used, copied, transmitted, or stored only in accord with that
 written license.
  
 The following legend is applicable only to US Government
 contracts under FAR:
  
                    RESTRICTED RIGHTS LEGEND
  
 Use, reproduction and disclosure by the US Government is
 subject to restrictions as set forth in subparagraphs (a)
 and (c) of the Commercial Computer Software - Restricted
 Rights clause in FAR 52.227-19.
  
 Gaussian, Inc.
 340 Quinnipiac St., Bldg. 40, Wallingford CT 06492
  
  
 ---------------------------------------------------------------
 Warning -- This program may not be used in any manner that
 competes with the business of Gaussian, Inc. or will provide
 assistance to any competitor of Gaussian, Inc.  The licensee
 of this program is prohibited from giving any competitor of
 Gaussian, Inc. access to this program.  By using this program,
 the user acknowledges that Gaussian, Inc. is engaged in the
 business of creating and licensing software in the field of
 computational chemistry and represents and warrants to the
 licensee that it is not a competitor of Gaussian, Inc. and that
 it will not use this program in any manner prohibited above.
 ---------------------------------------------------------------
  

 Cite this work as:
 Gaussian 09, Revision E.01,
 M. J. Frisch, G. W. Trucks, H. B. Schlegel, G. E. Scuseria, 
 M. A. Robb, J. R. Cheeseman, G. Scalmani, V. Barone, B. Mennucci, 
 G. A. Petersson, H. Nakatsuji, M. Caricato, X. Li, H. P. Hratchian, 
 A. F. Izmaylov, J. Bloino, G. Zheng, J. L. Sonnenberg, M. Hada, 
 M. Ehara, K. Toyota, R. Fukuda, J. Hasegawa, M. Ishida, T. Nakajima, 
 Y. Honda, O. Kitao, H. Nakai, T. Vreven, J. A. Montgomery, Jr., 
 J. E. Peralta, F. Ogliaro, M. Bearpark, J. J. Heyd, E. Brothers, 
 K. N. Kudin, V. N. Staroverov, T. Keith, R. Kobayashi, J. Normand, 
 K. Raghavachari, A. Rendell, J. C. Burant, S. S. Iyengar, J. Tomasi, 
 M. Cossi, N. Rega, J. M. Millam, M. Klene, J. E. Knox, J. B. Cross, 
 V. Bakken, C. Adamo, J. Jaramillo, R. Gomperts, R. E. Stratmann, 
 O. Yazyev, A. J. Austin, R. Cammi, C. Pomelli, J. W. Ochterski, 
 R. L. Martin, K. Morokuma, V. G. Zakrzewski, G. A. Voth, 
 P. Salvador, J. J. Dannenberg, S. Dapprich, A. D. Daniels, 
 O. Farkas, J. B. Foresman, J. V. Ortiz, J. Cioslowski, 
 and D. J. Fox, Gaussian, Inc., Wallingford CT, 2013.
 
 ******************************************
 Gaussian 09:  ES64L-G09RevE.01 30-Nov-2015
                12-Jan-2017 
 ******************************************
 %NPROCS=4
 Will use up to    4 processors via shared memory.
 -----------------------------------------
 # opt=(MaxCycle=1000) freq B3LYP/6-31G(d)
 -----------------------------------------
 1/6=1000,14=-1,18=20,19=15,26=3,38=1/1,3;
 2/9=110,12=2,17=6,18=5,40=1/2;
 3/5=1,6=6,7=1,11=2,16=1,25=1,30=1,71=1,74=-5/1,2,3;
 4//1;
 5/5=2,38=5/2;
 6/7=2,8=2,9=2,10=2,28=1/1;
 7//1,2,3,16;
 1/6=1000,14=-1,18=20,19=15,26=3/3(2);
 2/9=110/2;
 99//99;
 2/9=110/2;
 3/5=1,6=6,7=1,11=2,16=1,25=1,30=1,71=1,74=-5/1,2,3;
 4/5=5,16=3,69=1/1;
 5/5=2,38=5/2;
 7//1,2,3,16;
 1/6=1000,14=-1,18=20,19=15,26=3/3(-5);
 2/9=110/2;
 6/7=2,8=2,9=2,10=2,19=2,28=1/1;
 99/9=1/99;
 ------------------------
 boat3_Beta_B3LYP_6-31G_d
 ------------------------
 Symbolic Z-matrix:
 Charge =  0 Multiplicity = 1
 C                    -0.98597   0.92032   0.52769 
 C                     1.30749   0.1578   -0.41991 
 O                    -0.13508  -1.36897   1.11279 
 C                     1.26022  -0.98217   0.5972 
 C                    -1.13444  -0.54228   0.44564 
 C                     0.40939   1.3072    0.012 
 H                     1.83353  -0.74067   1.49897 
 H                     0.94198   1.87279   0.78878 
 H                     1.04579  -0.19772  -1.41932 
 H                    -2.02227  -0.76311   1.05659 
 H                    -1.77031   1.44578  -0.02759 
 C                    -1.51705  -1.11497  -0.93414 
 H                    -1.54205  -2.21035  -0.90688 
 H                    -0.8203   -0.83855  -1.72378 
 O                     1.84141  -2.14568   0.0179 
 H                     2.76478  -1.89456  -0.16978 
 O                    -2.79918  -0.63302  -1.3326 
 H                    -3.45928  -1.27001  -1.00431 
 O                     2.66466   0.6219   -0.57022 
 H                     2.59861   1.41385  -1.14099 
 O                     0.31097   2.22599  -1.09247 
 H                    -0.17191   3.00752  -0.76325 
 O                    -1.07585   1.3843    1.88525 
 H                    -1.89184   1.02353   2.27547 
 

 GradGradGradGradGradGradGradGradGradGradGradGradGradGradGradGradGradGrad
 Berny optimization.
 Initialization pass.
                           ----------------------------
                           !    Initial Parameters    !
                           ! (Angstroms and Degrees)  !
 --------------------------                            --------------------------
 ! Name  Definition              Value          Derivative Info.                !
 --------------------------------------------------------------------------------
 ! R1    R(1,5)                  1.4724         estimate D2E/DX2                !
 ! R2    R(1,6)                  1.5371         estimate D2E/DX2                !
 ! R3    R(1,11)                 1.0953         estimate D2E/DX2                !
 ! R4    R(1,23)                 1.4375         estimate D2E/DX2                !
 ! R5    R(2,4)                  1.5285         estimate D2E/DX2                !
 ! R6    R(2,6)                  1.5213         estimate D2E/DX2                !
 ! R7    R(2,9)                  1.0926         estimate D2E/DX2                !
 ! R8    R(2,19)                 1.4422         estimate D2E/DX2                !
 ! R9    R(3,4)                  1.537          estimate D2E/DX2                !
 ! R10   R(3,5)                  1.4585         estimate D2E/DX2                !
 ! R11   R(4,7)                  1.0955         estimate D2E/DX2                !
 ! R12   R(4,15)                 1.4238         estimate D2E/DX2                !
 ! R13   R(5,10)                 1.1001         estimate D2E/DX2                !
 ! R14   R(5,12)                 1.5421         estimate D2E/DX2                !
 ! R15   R(6,8)                  1.0986         estimate D2E/DX2                !
 ! R16   R(6,21)                 1.44           estimate D2E/DX2                !
 ! R17   R(12,13)                1.096          estimate D2E/DX2                !
 ! R18   R(12,14)                1.0888         estimate D2E/DX2                !
 ! R19   R(12,17)                1.4265         estimate D2E/DX2                !
 ! R20   R(15,16)                0.9751         estimate D2E/DX2                !
 ! R21   R(17,18)                0.9743         estimate D2E/DX2                !
 ! R22   R(19,20)                0.9784         estimate D2E/DX2                !
 ! R23   R(21,22)                0.9759         estimate D2E/DX2                !
 ! R24   R(23,24)                0.9738         estimate D2E/DX2                !
 ! A1    A(5,1,6)              108.8357         estimate D2E/DX2                !
 ! A2    A(5,1,11)             112.0924         estimate D2E/DX2                !
 ! A3    A(5,1,23)             111.5276         estimate D2E/DX2                !
 ! A4    A(6,1,11)             111.0538         estimate D2E/DX2                !
 ! A5    A(6,1,23)             106.9995         estimate D2E/DX2                !
 ! A6    A(11,1,23)            106.2103         estimate D2E/DX2                !
 ! A7    A(4,2,6)              110.8744         estimate D2E/DX2                !
 ! A8    A(4,2,9)              111.0145         estimate D2E/DX2                !
 ! A9    A(4,2,19)             109.7837         estimate D2E/DX2                !
 ! A10   A(6,2,9)              111.3551         estimate D2E/DX2                !
 ! A11   A(6,2,19)             109.9992         estimate D2E/DX2                !
 ! A12   A(9,2,19)             103.5793         estimate D2E/DX2                !
 ! A13   A(4,3,5)              109.0228         estimate D2E/DX2                !
 ! A14   A(2,4,3)              116.0397         estimate D2E/DX2                !
 ! A15   A(2,4,7)              111.5395         estimate D2E/DX2                !
 ! A16   A(2,4,15)             109.0328         estimate D2E/DX2                !
 ! A17   A(3,4,7)              104.7397         estimate D2E/DX2                !
 ! A18   A(3,4,15)             107.5424         estimate D2E/DX2                !
 ! A19   A(7,4,15)             107.5438         estimate D2E/DX2                !
 ! A20   A(1,5,3)              117.9342         estimate D2E/DX2                !
 ! A21   A(1,5,10)             104.4671         estimate D2E/DX2                !
 ! A22   A(1,5,12)             116.3444         estimate D2E/DX2                !
 ! A23   A(3,5,10)             100.6709         estimate D2E/DX2                !
 ! A24   A(3,5,12)             111.6401         estimate D2E/DX2                !
 ! A25   A(10,5,12)            102.8329         estimate D2E/DX2                !
 ! A26   A(1,6,2)              116.1686         estimate D2E/DX2                !
 ! A27   A(1,6,8)              109.4174         estimate D2E/DX2                !
 ! A28   A(1,6,21)             110.8461         estimate D2E/DX2                !
 ! A29   A(2,6,8)              107.6695         estimate D2E/DX2                !
 ! A30   A(2,6,21)             107.7381         estimate D2E/DX2                !
 ! A31   A(8,6,21)             104.2971         estimate D2E/DX2                !
 ! A32   A(5,12,13)            110.7668         estimate D2E/DX2                !
 ! A33   A(5,12,14)            113.3195         estimate D2E/DX2                !
 ! A34   A(5,12,17)            110.3314         estimate D2E/DX2                !
 ! A35   A(13,12,14)           106.6414         estimate D2E/DX2                !
 ! A36   A(13,12,17)           108.911          estimate D2E/DX2                !
 ! A37   A(14,12,17)           106.6671         estimate D2E/DX2                !
 ! A38   A(4,15,16)            104.7379         estimate D2E/DX2                !
 ! A39   A(12,17,18)           107.0942         estimate D2E/DX2                !
 ! A40   A(2,19,20)            104.9367         estimate D2E/DX2                !
 ! A41   A(6,21,22)            106.6214         estimate D2E/DX2                !
 ! A42   A(1,23,24)            108.1351         estimate D2E/DX2                !
 ! D1    D(6,1,5,3)             55.2067         estimate D2E/DX2                !
 ! D2    D(6,1,5,10)           165.8932         estimate D2E/DX2                !
 ! D3    D(6,1,5,12)           -81.542          estimate D2E/DX2                !
 ! D4    D(11,1,5,3)           178.4442         estimate D2E/DX2                !
 ! D5    D(11,1,5,10)          -70.8693         estimate D2E/DX2                !
 ! D6    D(11,1,5,12)           41.6956         estimate D2E/DX2                !
 ! D7    D(23,1,5,3)           -62.6093         estimate D2E/DX2                !
 ! D8    D(23,1,5,10)           48.0772         estimate D2E/DX2                !
 ! D9    D(23,1,5,12)          160.6421         estimate D2E/DX2                !
 ! D10   D(5,1,6,2)             -1.3486         estimate D2E/DX2                !
 ! D11   D(5,1,6,8)           -123.4755         estimate D2E/DX2                !
 ! D12   D(5,1,6,21)           122.0423         estimate D2E/DX2                !
 ! D13   D(11,1,6,2)          -125.2054         estimate D2E/DX2                !
 ! D14   D(11,1,6,8)           112.6676         estimate D2E/DX2                !
 ! D15   D(11,1,6,21)           -1.8145         estimate D2E/DX2                !
 ! D16   D(23,1,6,2)           119.2963         estimate D2E/DX2                !
 ! D17   D(23,1,6,8)            -2.8307         estimate D2E/DX2                !
 ! D18   D(23,1,6,21)         -117.3128         estimate D2E/DX2                !
 ! D19   D(5,1,23,24)          -51.9895         estimate D2E/DX2                !
 ! D20   D(6,1,23,24)         -170.9051         estimate D2E/DX2                !
 ! D21   D(11,1,23,24)          70.4035         estimate D2E/DX2                !
 ! D22   D(6,2,4,3)             44.6285         estimate D2E/DX2                !
 ! D23   D(6,2,4,7)            -75.192          estimate D2E/DX2                !
 ! D24   D(6,2,4,15)           166.1899         estimate D2E/DX2                !
 ! D25   D(9,2,4,3)            -79.7039         estimate D2E/DX2                !
 ! D26   D(9,2,4,7)            160.4756         estimate D2E/DX2                !
 ! D27   D(9,2,4,15)            41.8575         estimate D2E/DX2                !
 ! D28   D(19,2,4,3)           166.3751         estimate D2E/DX2                !
 ! D29   D(19,2,4,7)            46.5546         estimate D2E/DX2                !
 ! D30   D(19,2,4,15)          -72.0635         estimate D2E/DX2                !
 ! D31   D(4,2,6,1)            -44.6887         estimate D2E/DX2                !
 ! D32   D(4,2,6,8)             78.3555         estimate D2E/DX2                !
 ! D33   D(4,2,6,21)          -169.6813         estimate D2E/DX2                !
 ! D34   D(9,2,6,1)             79.4497         estimate D2E/DX2                !
 ! D35   D(9,2,6,8)           -157.5061         estimate D2E/DX2                !
 ! D36   D(9,2,6,21)           -45.5429         estimate D2E/DX2                !
 ! D37   D(19,2,6,1)          -166.309          estimate D2E/DX2                !
 ! D38   D(19,2,6,8)           -43.2647         estimate D2E/DX2                !
 ! D39   D(19,2,6,21)           68.6985         estimate D2E/DX2                !
 ! D40   D(4,2,19,20)         -173.0619         estimate D2E/DX2                !
 ! D41   D(6,2,19,20)          -50.7935         estimate D2E/DX2                !
 ! D42   D(9,2,19,20)           68.3219         estimate D2E/DX2                !
 ! D43   D(5,3,4,2)              1.7746         estimate D2E/DX2                !
 ! D44   D(5,3,4,7)            125.215          estimate D2E/DX2                !
 ! D45   D(5,3,4,15)          -120.5764         estimate D2E/DX2                !
 ! D46   D(4,3,5,1)            -55.2971         estimate D2E/DX2                !
 ! D47   D(4,3,5,10)          -168.1059         estimate D2E/DX2                !
 ! D48   D(4,3,5,12)            83.3574         estimate D2E/DX2                !
 ! D49   D(2,4,15,16)           61.7743         estimate D2E/DX2                !
 ! D50   D(3,4,15,16)         -171.6361         estimate D2E/DX2                !
 ! D51   D(7,4,15,16)          -59.3154         estimate D2E/DX2                !
 ! D52   D(1,5,12,13)          176.4871         estimate D2E/DX2                !
 ! D53   D(1,5,12,14)           56.6862         estimate D2E/DX2                !
 ! D54   D(1,5,12,17)          -62.8387         estimate D2E/DX2                !
 ! D55   D(3,5,12,13)           37.1243         estimate D2E/DX2                !
 ! D56   D(3,5,12,14)          -82.6766         estimate D2E/DX2                !
 ! D57   D(3,5,12,17)          157.7985         estimate D2E/DX2                !
 ! D58   D(10,5,12,13)         -70.0145         estimate D2E/DX2                !
 ! D59   D(10,5,12,14)         170.1845         estimate D2E/DX2                !
 ! D60   D(10,5,12,17)          50.6597         estimate D2E/DX2                !
 ! D61   D(1,6,21,22)           58.8967         estimate D2E/DX2                !
 ! D62   D(2,6,21,22)         -172.9868         estimate D2E/DX2                !
 ! D63   D(8,6,21,22)          -58.7582         estimate D2E/DX2                !
 ! D64   D(5,12,17,18)         -90.4656         estimate D2E/DX2                !
 ! D65   D(13,12,17,18)         31.3131         estimate D2E/DX2                !
 ! D66   D(14,12,17,18)        146.0571         estimate D2E/DX2                !
 --------------------------------------------------------------------------------
 Trust Radius=3.00D-01 FncErr=1.00D-07 GrdErr=1.00D-06
 Number of steps in this run=    144 maximum allowed number of steps=    144.
 GradGradGradGradGradGradGradGradGradGradGradGradGradGradGradGradGradGrad

                          Input orientation:                          
 ---------------------------------------------------------------------
 Center     Atomic      Atomic             Coordinates (Angstroms)
 Number     Number       Type             X           Y           Z
 ---------------------------------------------------------------------
      1          6           0       -0.985973    0.920319    0.527687
      2          6           0        1.307492    0.157797   -0.419909
      3          8           0       -0.135084   -1.368969    1.112787
      4          6           0        1.260217   -0.982173    0.597196
      5          6           0       -1.134437   -0.542282    0.445639
      6          6           0        0.409393    1.307195    0.011998
      7          1           0        1.833532   -0.740669    1.498970
      8          1           0        0.941977    1.872786    0.788776
      9          1           0        1.045788   -0.197715   -1.419316
     10          1           0       -2.022270   -0.763113    1.056589
     11          1           0       -1.770313    1.445780   -0.027590
     12          6           0       -1.517046   -1.114971   -0.934137
     13          1           0       -1.542054   -2.210350   -0.906883
     14          1           0       -0.820302   -0.838546   -1.723783
     15          8           0        1.841410   -2.145680    0.017901
     16          1           0        2.764779   -1.894562   -0.169775
     17          8           0       -2.799178   -0.633021   -1.332598
     18          1           0       -3.459284   -1.270009   -1.004309
     19          8           0        2.664656    0.621904   -0.570216
     20          1           0        2.598611    1.413848   -1.140992
     21          8           0        0.310971    2.225987   -1.092466
     22          1           0       -0.171912    3.007522   -0.763248
     23          8           0       -1.075849    1.384302    1.885247
     24          1           0       -1.891843    1.023529    2.275474
 ---------------------------------------------------------------------
                    Distance matrix (angstroms):
                    1          2          3          4          5
     1  C    0.000000
     2  C    2.596028   0.000000
     3  O    2.511413   2.600230   0.000000
     4  C    2.944431   1.528486   1.536981   0.000000
     5  C    1.472405   2.683710   1.458494   2.439435   0.000000
     6  C    1.537093   1.521263   2.944494   2.511486   2.447860
     7  H    3.413485   2.183130   2.102224   1.095541   3.155583
     8  H    2.166184   2.129720   3.431329   2.879022   3.203403
     9  H    3.028015   1.092562   3.029495   2.174322   2.889665
    10  H    2.046361   3.757052   1.982849   3.321709   1.100124
    11  H    1.095277   3.359419   3.449238   3.933119   2.140251
    12  C    2.561518   3.140443   2.482787   3.174241   1.542123
    13  H    3.488310   3.737001   2.601260   3.409310   2.185845
    14  H    2.861847   2.687060   2.965974   3.120277   2.211978
    15  O    4.201705   2.404735   2.389264   1.423768   3.407273
    16  H    4.741113   2.529512   3.214097   1.919480   4.172683
    17  O    3.026754   4.280553   3.690383   4.508292   2.437565
    18  H    3.641678   5.010220   3.942359   4.992130   2.834934
    19  O    3.823812   1.442179   3.825522   2.430712   4.101268
    20  H    3.984633   1.940261   4.505184   3.248617   4.503275
    21  O    2.451883   2.392237   4.240969   3.748108   3.481133
    22  H    2.585658   3.229156   4.761779   4.451906   3.871559
    23  O    1.437472   3.535304   3.010355   3.566018   2.405749
    24  H    1.971297   4.272040   3.187803   4.095722   2.524624
                    6          7          8          9         10
     6  C    0.000000
     7  H    2.903964   0.000000
     8  H    1.098600   2.851209   0.000000
     9  H    2.172191   3.071113   3.028766   0.000000
    10  H    3.360109   3.881161   3.975732   3.982808   0.000000
    11  H    2.184466   4.483151   2.864490   3.545194   2.473486
    12  C    3.236237   4.157702   4.235790   2.764937   2.083758
    13  H    4.126210   4.398030   5.071259   3.318164   2.486026
    14  H    3.021471   4.175949   4.095107   1.996411   3.029998
    15  O    3.738055   2.041490   4.189427   2.548171   4.233012
    16  H    3.978961   2.232353   4.293523   2.719480   5.069515
    17  O    3.983379   5.430595   4.977503   3.870501   2.515696
    18  H    4.758311   5.878819   5.697667   4.649486   2.563055
    19  O    2.427923   2.613217   2.525705   2.003367   5.150926
    20  H    2.476578   3.492376   2.584389   2.255185   5.560671
    21  O    1.440037   4.223124   2.015438   2.553648   4.358574
    22  H    1.957047   4.815431   2.221971   3.490954   4.577480
    23  O    2.391851   3.623425   2.347869   4.233705   2.488730
    24  H    3.240290   4.194493   3.310898   4.875714   2.166744
                   11         12         13         14         15
    11  H    0.000000
    12  C    2.728263   0.000000
    13  H    3.767299   1.096003   0.000000
    14  H    2.999623   1.088763   1.752169   0.000000
    15  O    5.093643   3.639775   3.508167   3.439008   0.000000
    16  H    5.634284   4.418828   4.380852   4.047582   0.975137
    17  O    2.661395   1.426503   2.061446   2.027613   5.064291
    18  H    3.343967   1.949679   2.137640   2.769121   5.468919
    19  O    4.543365   4.542665   5.082462   3.950767   2.946716
    20  H    4.508678   4.834909   5.507697   4.135443   3.819244
    21  O    2.464635   3.811655   4.811365   3.327116   4.763048
    22  H    2.352683   4.339762   5.396676   4.016874   5.587410
    23  O    2.035929   3.793408   4.575463   4.246346   4.945519
    24  H    2.344604   3.874953   4.550574   4.539778   5.392374
                   16         17         18         19         20
    16  H    0.000000
    17  O    5.822479   0.000000
    18  H    6.310743   0.974304   0.000000
    19  O    2.550094   5.657698   6.424205   0.000000
    20  H    3.452021   5.776029   6.627206   0.978429   0.000000
    21  O    4.883795   4.231385   5.142430   2.895800   2.428008
    22  H    5.745154   4.525510   5.400203   3.711408   3.218429
    23  O    5.452017   4.170609   4.590824   4.538935   4.760321
    24  H    6.014867   4.072542   4.298158   5.387108   5.655861
                   21         22         23         24
    21  O    0.000000
    22  H    0.975888   0.000000
    23  O    3.390941   3.235193   0.000000
    24  H    4.200156   4.015996   0.973797   0.000000
 Stoichiometry    C6H12O6
 Framework group  C1[X(C6H12O6)]
 Deg. of freedom    66
 Full point group                 C1      NOp   1
 Largest Abelian subgroup         C1      NOp   1
 Largest concise Abelian subgroup C1      NOp   1
                         Standard orientation:                         
 ---------------------------------------------------------------------
 Center     Atomic      Atomic             Coordinates (Angstroms)
 Number     Number       Type             X           Y           Z
 ---------------------------------------------------------------------
      1          6           0       -0.985973    0.920319    0.527687
      2          6           0        1.307492    0.157797   -0.419909
      3          8           0       -0.135084   -1.368969    1.112787
      4          6           0        1.260217   -0.982173    0.597196
      5          6           0       -1.134437   -0.542282    0.445639
      6          6           0        0.409393    1.307195    0.011998
      7          1           0        1.833532   -0.740669    1.498970
      8          1           0        0.941977    1.872786    0.788776
      9          1           0        1.045788   -0.197715   -1.419316
     10          1           0       -2.022270   -0.763113    1.056589
     11          1           0       -1.770313    1.445780   -0.027590
     12          6           0       -1.517046   -1.114971   -0.934137
     13          1           0       -1.542054   -2.210350   -0.906883
     14          1           0       -0.820302   -0.838546   -1.723783
     15          8           0        1.841410   -2.145680    0.017901
     16          1           0        2.764779   -1.894562   -0.169775
     17          8           0       -2.799178   -0.633021   -1.332598
     18          1           0       -3.459284   -1.270008   -1.004309
     19          8           0        2.664656    0.621904   -0.570216
     20          1           0        2.598611    1.413848   -1.140992
     21          8           0        0.310971    2.225987   -1.092466
     22          1           0       -0.171911    3.007522   -0.763248
     23          8           0       -1.075849    1.384302    1.885247
     24          1           0       -1.891843    1.023529    2.275474
 ---------------------------------------------------------------------
 Rotational constants (GHZ):      1.0380510      0.8077029      0.6539848
 Standard basis: 6-31G(d) (6D, 7F)
 There are   204 symmetry adapted cartesian basis functions of A   symmetry.
 There are   204 symmetry adapted basis functions of A   symmetry.
   204 basis functions,   384 primitive gaussians,   204 cartesian basis functions
    48 alpha electrons       48 beta electrons
       nuclear repulsion energy       830.9226365310 Hartrees.
 NAtoms=   24 NActive=   24 NUniq=   24 SFac= 1.00D+00 NAtFMM=   60 NAOKFM=F Big=F
 Integral buffers will be    131072 words long.
 Raffenetti 2 integral format.
 Two-electron integral symmetry is turned on.
 One-electron integrals computed using PRISM.
 NBasis=   204 RedAO= T EigKep=  1.38D-03  NBF=   204
 NBsUse=   204 1.00D-06 EigRej= -1.00D+00 NBFU=   204
 ExpMin= 1.61D-01 ExpMax= 5.48D+03 ExpMxC= 8.25D+02 IAcc=1 IRadAn=         1 AccDes= 0.00D+00
 Harris functional with IExCor=  402 and IRadAn=       1 diagonalized for initial guess.
 HarFok:  IExCor=  402 AccDes= 0.00D+00 IRadAn=         1 IDoV= 1 UseB2=F ITyADJ=14
 ICtDFT=  3500011 ScaDFX=  1.000000  1.000000  1.000000  1.000000
 FoFCou: FMM=F IPFlag=           0 FMFlag=      100000 FMFlg1=           0
         NFxFlg=           0 DoJE=T BraDBF=F KetDBF=T FulRan=T
         wScrn=  0.000000 ICntrl=     500 IOpCl=  0 I1Cent=   200000004 NGrid=           0
         NMat0=    1 NMatS0=      1 NMatT0=    0 NMatD0=    1 NMtDS0=    0 NMtDT0=    0
 Petite list used in FoFCou.
 Requested convergence on RMS density matrix=1.00D-08 within 128 cycles.
 Requested convergence on MAX density matrix=1.00D-06.
 Requested convergence on             energy=1.00D-06.
 No special actions if energy rises.
 Integral accuracy reduced to 1.0D-05 until final iterations.
 Initial convergence to 1.0D-05 achieved.  Increase integral accuracy.
 SCF Done:  E(RB3LYP) =  -687.097642890     A.U. after   14 cycles
            NFock= 14  Conv=0.45D-08     -V/T= 2.0087

 **********************************************************************

            Population analysis using the SCF density.

 **********************************************************************

 Orbital symmetries:
       Occupied  (A) (A) (A) (A) (A) (A) (A) (A) (A) (A) (A) (A)
                 (A) (A) (A) (A) (A) (A) (A) (A) (A) (A) (A) (A)
                 (A) (A) (A) (A) (A) (A) (A) (A) (A) (A) (A) (A)
                 (A) (A) (A) (A) (A) (A) (A) (A) (A) (A) (A) (A)
       Virtual   (A) (A) (A) (A) (A) (A) (A) (A) (A) (A) (A) (A)
                 (A) (A) (A) (A) (A) (A) (A) (A) (A) (A) (A) (A)
                 (A) (A) (A) (A) (A) (A) (A) (A) (A) (A) (A) (A)
                 (A) (A) (A) (A) (A) (A) (A) (A) (A) (A) (A) (A)
                 (A) (A) (A) (A) (A) (A) (A) (A) (A) (A) (A) (A)
                 (A) (A) (A) (A) (A) (A) (A) (A) (A) (A) (A) (A)
                 (A) (A) (A) (A) (A) (A) (A) (A) (A) (A) (A) (A)
                 (A) (A) (A) (A) (A) (A) (A) (A) (A) (A) (A) (A)
                 (A) (A) (A) (A) (A) (A) (A) (A) (A) (A) (A) (A)
                 (A) (A) (A) (A) (A) (A) (A) (A) (A) (A) (A) (A)
                 (A) (A) (A) (A) (A) (A) (A) (A) (A) (A) (A) (A)
                 (A) (A) (A) (A) (A) (A) (A) (A) (A) (A) (A) (A)
                 (A) (A) (A) (A) (A) (A) (A) (A) (A) (A) (A) (A)
 The electronic state is 1-A.
 Alpha  occ. eigenvalues --  -19.16579 -19.15797 -19.15681 -19.15384 -19.15103
 Alpha  occ. eigenvalues --  -19.14969 -10.29317 -10.24810 -10.24426 -10.24339
 Alpha  occ. eigenvalues --  -10.24093 -10.23578  -1.05233  -1.03331  -1.02859
 Alpha  occ. eigenvalues --   -1.02251  -1.01179  -0.99103  -0.79302  -0.76146
 Alpha  occ. eigenvalues --   -0.69543  -0.64824  -0.63172  -0.56711  -0.55647
 Alpha  occ. eigenvalues --   -0.52812  -0.52194  -0.50254  -0.49272  -0.47383
 Alpha  occ. eigenvalues --   -0.46615  -0.44993  -0.43968  -0.43606  -0.42522
 Alpha  occ. eigenvalues --   -0.38845  -0.37538  -0.35882  -0.35358  -0.34588
 Alpha  occ. eigenvalues --   -0.33684  -0.32584  -0.30302  -0.28783  -0.27960
 Alpha  occ. eigenvalues --   -0.27661  -0.26890  -0.25533
 Alpha virt. eigenvalues --    0.04987   0.05684   0.05891   0.07357   0.08638
 Alpha virt. eigenvalues --    0.09687   0.11012   0.12845   0.13926   0.14323
 Alpha virt. eigenvalues --    0.16801   0.17356   0.18226   0.18826   0.19345
 Alpha virt. eigenvalues --    0.21630   0.22567   0.23926   0.26014   0.27830
 Alpha virt. eigenvalues --    0.29023   0.30116   0.32527   0.37234   0.50970
 Alpha virt. eigenvalues --    0.51247   0.54949   0.55508   0.56847   0.57760
 Alpha virt. eigenvalues --    0.60855   0.63726   0.64543   0.65081   0.66474
 Alpha virt. eigenvalues --    0.68241   0.70113   0.71811   0.75123   0.76620
 Alpha virt. eigenvalues --    0.77149   0.78378   0.79396   0.81134   0.81344
 Alpha virt. eigenvalues --    0.82474   0.84699   0.85740   0.85853   0.87034
 Alpha virt. eigenvalues --    0.87320   0.90041   0.90789   0.93276   0.93416
 Alpha virt. eigenvalues --    0.95323   0.97790   0.98409   0.99041   1.00991
 Alpha virt. eigenvalues --    1.01919   1.03519   1.06705   1.07203   1.08011
 Alpha virt. eigenvalues --    1.08586   1.10544   1.16013   1.18396   1.19413
 Alpha virt. eigenvalues --    1.21188   1.22724   1.27668   1.29338   1.33005
 Alpha virt. eigenvalues --    1.35144   1.38822   1.40509   1.41446   1.43540
 Alpha virt. eigenvalues --    1.50932   1.55929   1.56649   1.58725   1.60850
 Alpha virt. eigenvalues --    1.62851   1.65521   1.67526   1.72058   1.72670
 Alpha virt. eigenvalues --    1.74161   1.75789   1.78276   1.78456   1.80650
 Alpha virt. eigenvalues --    1.81879   1.83231   1.86312   1.87378   1.89015
 Alpha virt. eigenvalues --    1.89791   1.91737   1.92761   1.95917   1.98793
 Alpha virt. eigenvalues --    2.00339   2.02957   2.05393   2.05805   2.07444
 Alpha virt. eigenvalues --    2.08815   2.13711   2.15760   2.16922   2.21239
 Alpha virt. eigenvalues --    2.23921   2.25957   2.31163   2.31470   2.33000
 Alpha virt. eigenvalues --    2.39113   2.40046   2.41260   2.42849   2.45736
 Alpha virt. eigenvalues --    2.47846   2.50005   2.51246   2.52388   2.54173
 Alpha virt. eigenvalues --    2.55072   2.61163   2.63844   2.69358   2.73511
 Alpha virt. eigenvalues --    2.75467   2.76757   2.84981   2.89961   2.91868
 Alpha virt. eigenvalues --    2.96143   2.98359   3.02613   3.07639   3.69568
 Alpha virt. eigenvalues --    3.74764   3.81324   3.83226   3.95588   4.06246
 Alpha virt. eigenvalues --    4.30128   4.37373   4.40387   4.55553   4.58075
 Alpha virt. eigenvalues --    4.77670
          Condensed to atoms (all electrons):
               1          2          3          4          5          6
     1  C    5.067352  -0.033881  -0.029744  -0.015480   0.275886   0.247013
     2  C   -0.033881   5.051344  -0.023646   0.293144  -0.000880   0.276935
     3  O   -0.029744  -0.023646   8.261161   0.229914   0.207052  -0.007794
     4  C   -0.015480   0.293144   0.229914   4.703699  -0.032503  -0.027965
     5  C    0.275886  -0.000880   0.207052  -0.032503   5.085560  -0.029023
     6  C    0.247013   0.276935  -0.007794  -0.027965  -0.029023   5.091732
     7  H    0.001872  -0.053930  -0.038125   0.360943   0.000140  -0.003400
     8  H   -0.047028  -0.035445   0.000360  -0.004885   0.002741   0.346539
     9  H    0.001217   0.349600   0.001018  -0.040804  -0.002643  -0.046686
    10  H   -0.051013   0.000354  -0.039184   0.005875   0.348649   0.007004
    11  H    0.363766   0.001325   0.002590   0.000689  -0.043614  -0.048659
    12  C   -0.042669  -0.003541  -0.038474  -0.006101   0.263823  -0.006985
    13  H    0.005432  -0.000013   0.005332  -0.000095  -0.033378  -0.000129
    14  H   -0.007167  -0.001051   0.002643   0.000837  -0.048320   0.001607
    15  O   -0.000198  -0.035434  -0.037244   0.224894   0.000745   0.005104
    16  H   -0.000042  -0.006759   0.003617  -0.014854  -0.000106   0.000375
    17  O   -0.000577  -0.000046   0.001535   0.000023  -0.047977   0.000257
    18  H   -0.000487   0.000000  -0.000034  -0.000001  -0.001884  -0.000011
    19  O    0.004167   0.203816   0.000654  -0.030225  -0.000036  -0.031616
    20  H    0.000620  -0.025930  -0.000055   0.005175  -0.000049  -0.008917
    21  O   -0.036752  -0.034424   0.000023   0.002018   0.002433   0.192533
    22  H   -0.001943   0.005587   0.000003  -0.000198   0.000291  -0.022568
    23  O    0.191905   0.000413  -0.000096   0.001911  -0.025121  -0.034610
    24  H   -0.024359  -0.000278  -0.000008   0.000060  -0.006301   0.006484
               7          8          9         10         11         12
     1  C    0.001872  -0.047028   0.001217  -0.051013   0.363766  -0.042669
     2  C   -0.053930  -0.035445   0.349600   0.000354   0.001325  -0.003541
     3  O   -0.038125   0.000360   0.001018  -0.039184   0.002590  -0.038474
     4  C    0.360943  -0.004885  -0.040804   0.005875   0.000689  -0.006101
     5  C    0.000140   0.002741  -0.002643   0.348649  -0.043614   0.263823
     6  C   -0.003400   0.346539  -0.046686   0.007004  -0.048659  -0.006985
     7  H    0.624715   0.003487   0.006773  -0.000318   0.000009   0.000016
     8  H    0.003487   0.607314   0.007160  -0.000455   0.003963   0.000073
     9  H    0.006773   0.007160   0.605568  -0.000078   0.000058  -0.002098
    10  H   -0.000318  -0.000455  -0.000078   0.664321  -0.002488  -0.053109
    11  H    0.000009   0.003963   0.000058  -0.002488   0.591804   0.000332
    12  C    0.000016   0.000073  -0.002098  -0.053109   0.000332   5.052674
    13  H    0.000054   0.000008   0.000405  -0.006456   0.000341   0.358828
    14  H    0.000019  -0.000010   0.009281   0.006610   0.000320   0.370073
    15  O   -0.050912  -0.000078  -0.000501  -0.000116   0.000003   0.002106
    16  H   -0.001068  -0.000003  -0.000133   0.000011  -0.000000  -0.000082
    17  O    0.000002  -0.000003   0.000105   0.005590   0.011892   0.209323
    18  H   -0.000000   0.000000   0.000001   0.004095  -0.000241  -0.025507
    19  O    0.001432   0.000838  -0.043737   0.000002  -0.000048   0.000074
    20  H   -0.000305  -0.000637  -0.001804   0.000000  -0.000011  -0.000007
    21  O   -0.000083  -0.042341  -0.000778  -0.000133   0.001995   0.001098
    22  H    0.000008  -0.004532  -0.000128   0.000003   0.003137  -0.000048
    23  O    0.000190   0.003791  -0.000077  -0.007648  -0.040409   0.003905
    24  H   -0.000015  -0.000053   0.000011   0.010623  -0.002179  -0.000056
              13         14         15         16         17         18
     1  C    0.005432  -0.007167  -0.000198  -0.000042  -0.000577  -0.000487
     2  C   -0.000013  -0.001051  -0.035434  -0.006759  -0.000046   0.000000
     3  O    0.005332   0.002643  -0.037244   0.003617   0.001535  -0.000034
     4  C   -0.000095   0.000837   0.224894  -0.014854   0.000023  -0.000001
     5  C   -0.033378  -0.048320   0.000745  -0.000106  -0.047977  -0.001884
     6  C   -0.000129   0.001607   0.005104   0.000375   0.000257  -0.000011
     7  H    0.000054   0.000019  -0.050912  -0.001068   0.000002  -0.000000
     8  H    0.000008  -0.000010  -0.000078  -0.000003  -0.000003   0.000000
     9  H    0.000405   0.009281  -0.000501  -0.000133   0.000105   0.000001
    10  H   -0.006456   0.006610  -0.000116   0.000011   0.005590   0.004095
    11  H    0.000341   0.000320   0.000003  -0.000000   0.011892  -0.000241
    12  C    0.358828   0.370073   0.002106  -0.000082   0.209323  -0.025507
    13  H    0.588082  -0.037084   0.000226   0.000001  -0.025270  -0.012128
    14  H   -0.037084   0.564759  -0.000189   0.000047  -0.034787   0.006734
    15  O    0.000226  -0.000189   8.283155   0.227320   0.000001   0.000000
    16  H    0.000001   0.000047   0.227320   0.376404   0.000000   0.000000
    17  O   -0.025270  -0.034787   0.000001   0.000000   8.261280   0.234773
    18  H   -0.012128   0.006734   0.000000   0.000000   0.234773   0.399503
    19  O   -0.000005  -0.000011  -0.000862   0.009237  -0.000000   0.000000
    20  H    0.000000  -0.000006  -0.000122  -0.000231  -0.000000   0.000000
    21  O    0.000010   0.000408  -0.000013  -0.000001  -0.000031  -0.000000
    22  H   -0.000001  -0.000011   0.000001   0.000000  -0.000006   0.000000
    23  O   -0.000063  -0.000029   0.000002   0.000000  -0.000028  -0.000007
    24  H   -0.000014   0.000018  -0.000000  -0.000000  -0.000020  -0.000004
              19         20         21         22         23         24
     1  C    0.004167   0.000620  -0.036752  -0.001943   0.191905  -0.024359
     2  C    0.203816  -0.025930  -0.034424   0.005587   0.000413  -0.000278
     3  O    0.000654  -0.000055   0.000023   0.000003  -0.000096  -0.000008
     4  C   -0.030225   0.005175   0.002018  -0.000198   0.001911   0.000060
     5  C   -0.000036  -0.000049   0.002433   0.000291  -0.025121  -0.006301
     6  C   -0.031616  -0.008917   0.192533  -0.022568  -0.034610   0.006484
     7  H    0.001432  -0.000305  -0.000083   0.000008   0.000190  -0.000015
     8  H    0.000838  -0.000637  -0.042341  -0.004532   0.003791  -0.000053
     9  H   -0.043737  -0.001804  -0.000778  -0.000128  -0.000077   0.000011
    10  H    0.000002   0.000000  -0.000133   0.000003  -0.007648   0.010623
    11  H   -0.000048  -0.000011   0.001995   0.003137  -0.040409  -0.002179
    12  C    0.000074  -0.000007   0.001098  -0.000048   0.003905  -0.000056
    13  H   -0.000005   0.000000   0.000010  -0.000001  -0.000063  -0.000014
    14  H   -0.000011  -0.000006   0.000408  -0.000011  -0.000029   0.000018
    15  O   -0.000862  -0.000122  -0.000013   0.000001   0.000002  -0.000000
    16  H    0.009237  -0.000231  -0.000001   0.000000   0.000000  -0.000000
    17  O   -0.000000  -0.000000  -0.000031  -0.000006  -0.000028  -0.000020
    18  H    0.000000   0.000000  -0.000000   0.000000  -0.000007  -0.000004
    19  O    8.316570   0.235882  -0.002508  -0.000033  -0.000017   0.000002
    20  H    0.235882   0.366932   0.016757  -0.000728  -0.000007   0.000001
    21  O   -0.002508   0.016757   8.320349   0.233932   0.001169  -0.000147
    22  H   -0.000033  -0.000728   0.233932   0.385456   0.000313  -0.000069
    23  O   -0.000017  -0.000007   0.001169   0.000313   8.321547   0.229179
    24  H    0.000002   0.000001  -0.000147  -0.000069   0.229179   0.395743
 Mulliken charges:
               1
     1  C    0.132110
     2  C    0.072741
     3  O   -0.501496
     4  C    0.343928
     5  C    0.084517
     6  C    0.092782
     7  H    0.148494
     8  H    0.159196
     9  H    0.158270
    10  H    0.107860
    11  H    0.155427
    12  C   -0.083646
    13  H    0.155915
    14  H    0.165308
    15  O   -0.617888
    16  H    0.406267
    17  O   -0.616036
    18  H    0.395198
    19  O   -0.663576
    20  H    0.413442
    21  O   -0.655514
    22  H    0.401534
    23  O   -0.646214
    24  H    0.391384
 Sum of Mulliken charges =  -0.00000
 Mulliken charges with hydrogens summed into heavy atoms:
               1
     1  C    0.287536
     2  C    0.231011
     3  O   -0.501496
     4  C    0.492422
     5  C    0.192377
     6  C    0.251978
    12  C    0.237576
    15  O   -0.211622
    17  O   -0.220838
    19  O   -0.250134
    21  O   -0.253981
    23  O   -0.254830
 Electronic spatial extent (au):  <R**2>=           2001.0998
 Charge=             -0.0000 electrons
 Dipole moment (field-independent basis, Debye):
    X=             -1.7352    Y=              1.2729    Z=             -0.0568  Tot=              2.1528
 Quadrupole moment (field-independent basis, Debye-Ang):
   XX=            -60.8336   YY=            -69.5091   ZZ=            -74.7555
   XY=              3.8313   XZ=             -5.5337   YZ=              1.2764
 Traceless Quadrupole moment (field-independent basis, Debye-Ang):
   XX=              7.5325   YY=             -1.1430   ZZ=             -6.3895
   XY=              3.8313   XZ=             -5.5337   YZ=              1.2764
 Octapole moment (field-independent basis, Debye-Ang**2):
  XXX=            -19.3469  YYY=             35.5638  ZZZ=              4.1315  XYY=            -10.8377
  XXY=            -19.4319  XXZ=             12.6252  XZZ=              5.1355  YZZ=             -3.8584
  YYZ=            -13.1776  XYZ=             -5.8079
 Hexadecapole moment (field-independent basis, Debye-Ang**3):
 XXXX=           -969.0115 YYYY=           -732.7389 ZZZZ=           -451.9690 XXXY=             23.7463
 XXXZ=            -45.6104 YYYX=             24.4019 YYYZ=             -9.2163 ZZZX=            -41.6951
 ZZZY=             -3.1652 XXYY=           -252.4264 XXZZ=           -241.8876 YYZZ=           -223.4449
 XXYZ=              6.4040 YYXZ=              7.1915 ZZXY=             -0.5339
 N-N= 8.309226365310D+02 E-N=-3.273492057817D+03  KE= 6.811957745643D+02
 Calling FoFJK, ICntrl=      2127 FMM=F ISym2X=0 I1Cent= 0 IOpClX= 0 NMat=1 NMatS=1 NMatT=0.
 ***** Axes restored to original set *****
 -------------------------------------------------------------------
 Center     Atomic                   Forces (Hartrees/Bohr)
 Number     Number              X              Y              Z
 -------------------------------------------------------------------
      1        6           0.018611455    0.021054467    0.013311189
      2        6          -0.001260386    0.013573419   -0.005415461
      3        8           0.047911733    0.042811472   -0.042022821
      4        6          -0.012654343   -0.030313806    0.014963025
      5        6          -0.034385711   -0.058160424    0.015390335
      6        6           0.000948671    0.033397592   -0.001334162
      7        1          -0.003410533    0.006934986    0.000938391
      8        1          -0.001406503   -0.009470441    0.008544758
      9        1          -0.010530689   -0.005439356    0.002808285
     10        1          -0.002831177   -0.003542300    0.000459818
     11        1           0.001419279   -0.007260272   -0.010419471
     12        6          -0.004059824   -0.001817792   -0.006034730
     13        1           0.006229214    0.000104571    0.006114765
     14        1           0.000848953    0.002708897   -0.001645120
     15        8          -0.007889631    0.004490483    0.003523657
     16        1          -0.001992465   -0.001230282   -0.000440383
     17        8          -0.005711762    0.000047392   -0.000105879
     18        1           0.003009449    0.005255957   -0.001238396
     19        8          -0.003421613   -0.001688603    0.008859448
     20        1          -0.000353021   -0.005353811    0.003388880
     21        8           0.000175753   -0.001808420   -0.007023249
     22        1           0.004335090   -0.004096064   -0.002604165
     23        8           0.003685880   -0.000914079    0.002030826
     24        1           0.002732181    0.000716414   -0.002049541
 -------------------------------------------------------------------
 Cartesian Forces:  Max     0.058160424 RMS     0.014639404

 GradGradGradGradGradGradGradGradGradGradGradGradGradGradGradGradGradGrad
 Berny optimization.
 FormGI is forming the generalized inverse of G from B-inverse, IUseBI=4.
 Internal  Forces:  Max     0.045205675 RMS     0.007337840
 Search for a local minimum.
 Step number   1 out of a maximum of  144
 All quantities printed in internal units (Hartrees-Bohrs-Radians)
 Mixed Optimization -- RFO/linear search
 Second derivative matrix not updated -- first step.
 ITU=  0
     Eigenvalues ---    0.00230   0.00416   0.00569   0.01134   0.01162
     Eigenvalues ---    0.01196   0.01325   0.01341   0.01377   0.02769
     Eigenvalues ---    0.03103   0.04167   0.04337   0.04718   0.04807
     Eigenvalues ---    0.04864   0.05052   0.05213   0.05417   0.05899
     Eigenvalues ---    0.06384   0.07046   0.07281   0.07565   0.07826
     Eigenvalues ---    0.09504   0.11104   0.11653   0.13571   0.13839
     Eigenvalues ---    0.16000   0.16000   0.16000   0.16000   0.16000
     Eigenvalues ---    0.16068   0.17363   0.19041   0.19572   0.20012
     Eigenvalues ---    0.21158   0.21928   0.26650   0.28332   0.28385
     Eigenvalues ---    0.28783   0.29327   0.33668   0.33837   0.34064
     Eigenvalues ---    0.34128   0.34180   0.34210   0.34518   0.34956
     Eigenvalues ---    0.35815   0.39288   0.39580   0.39934   0.41496
     Eigenvalues ---    0.41898   0.51691   0.52192   0.52341   0.52507
     Eigenvalues ---    0.52609
 RFO step:  Lambda=-3.34508368D-02 EMin= 2.30000000D-03
 Linear search not attempted -- first point.
 Maximum step size (   0.300) exceeded in Quadratic search.
    -- Step size scaled by   0.917
 Iteration  1 RMS(Cart)=  0.05196830 RMS(Int)=  0.00172119
 Iteration  2 RMS(Cart)=  0.00250216 RMS(Int)=  0.00079337
 Iteration  3 RMS(Cart)=  0.00000329 RMS(Int)=  0.00079337
 Iteration  4 RMS(Cart)=  0.00000000 RMS(Int)=  0.00079337
 Variable       Old X    -DE/DX   Delta X   Delta X   Delta X     New X
                                 (Linear)    (Quad)   (Total)
    R1        2.78244   0.02949   0.00000   0.07854   0.07920   2.86164
    R2        2.90468   0.00215   0.00000   0.01444   0.01391   2.91860
    R3        2.06977   0.00078   0.00000   0.00191   0.00191   2.07169
    R4        2.71643  -0.00049   0.00000  -0.00103  -0.00103   2.71540
    R5        2.88842  -0.00014   0.00000  -0.01201  -0.01248   2.87594
    R6        2.87477  -0.00034   0.00000  -0.00481  -0.00586   2.86891
    R7        2.06464   0.00172   0.00000   0.00417   0.00417   2.06881
    R8        2.72532  -0.00709   0.00000  -0.01525  -0.01525   2.71007
    R9        2.90447  -0.04521   0.00000  -0.13726  -0.13671   2.76777
   R10        2.75615  -0.01603   0.00000  -0.03160  -0.03068   2.72547
   R11        2.07027   0.00052   0.00000   0.00127   0.00127   2.07154
   R12        2.69053  -0.00796   0.00000  -0.01612  -0.01612   2.67441
   R13        2.07893   0.00325   0.00000   0.00805   0.00805   2.08699
   R14        2.91419   0.00019   0.00000   0.00056   0.00056   2.91475
   R15        2.07605   0.00048   0.00000   0.00119   0.00119   2.07725
   R16        2.72128   0.00331   0.00000   0.00707   0.00707   2.72834
   R17        2.07115  -0.00009   0.00000  -0.00023  -0.00023   2.07092
   R18        2.05746   0.00243   0.00000   0.00581   0.00581   2.06327
   R19        2.69570   0.00459   0.00000   0.00939   0.00939   2.70509
   R20        1.84274  -0.00212   0.00000  -0.00349  -0.00349   1.83925
   R21        1.84117  -0.00589   0.00000  -0.00967  -0.00967   1.83149
   R22        1.84896  -0.00629   0.00000  -0.01047  -0.01047   1.83849
   R23        1.84416  -0.00630   0.00000  -0.01041  -0.01041   1.83375
   R24        1.84021  -0.00337   0.00000  -0.00553  -0.00553   1.83468
    A1        1.89954   0.00522   0.00000   0.04996   0.05078   1.95032
    A2        1.95638  -0.00844   0.00000  -0.05209  -0.05163   1.90475
    A3        1.94652   0.00435   0.00000   0.00348   0.00330   1.94982
    A4        1.93825   0.00311   0.00000  -0.01091  -0.01048   1.92778
    A5        1.86749  -0.01045   0.00000  -0.03953  -0.03972   1.82777
    A6        1.85372   0.00609   0.00000   0.04837   0.04842   1.90214
    A7        1.93512   0.00745   0.00000   0.03112   0.03135   1.96647
    A8        1.93757  -0.00368   0.00000  -0.02918  -0.02909   1.90848
    A9        1.91609  -0.01025   0.00000  -0.05901  -0.05862   1.85747
   A10        1.94351  -0.00212   0.00000  -0.01420  -0.01458   1.92893
   A11        1.91985   0.00033   0.00000   0.00693   0.00734   1.92718
   A12        1.80780   0.00791   0.00000   0.06440   0.06387   1.87167
   A13        1.90281   0.02202   0.00000   0.10632   0.10854   2.01135
   A14        2.02528  -0.00416   0.00000  -0.02436  -0.02435   2.00092
   A15        1.94673  -0.00600   0.00000  -0.02052  -0.02048   1.92625
   A16        1.90298   0.00954   0.00000   0.02624   0.02498   1.92796
   A17        1.82805   0.00485   0.00000   0.00784   0.00744   1.83549
   A18        1.87697  -0.00763   0.00000  -0.03070  -0.03027   1.84669
   A19        1.87699   0.00355   0.00000   0.04567   0.04578   1.92277
   A20        2.05834  -0.01668   0.00000  -0.07921  -0.07944   1.97890
   A21        1.82329   0.00749   0.00000   0.05240   0.05303   1.87633
   A22        2.03059   0.00126   0.00000  -0.01047  -0.01132   2.01927
   A23        1.75704   0.00598   0.00000   0.03839   0.03950   1.79654
   A24        1.94849   0.00887   0.00000   0.02386   0.02089   1.96938
   A25        1.79477  -0.00426   0.00000   0.00143   0.00092   1.79569
   A26        2.02752  -0.01131   0.00000  -0.04196  -0.04324   1.98428
   A27        1.90969  -0.00248   0.00000  -0.02040  -0.02261   1.88709
   A28        1.93463   0.01360   0.00000   0.05106   0.05056   1.98519
   A29        1.87919   0.00253   0.00000  -0.00508  -0.00499   1.87419
   A30        1.88038  -0.00483   0.00000  -0.03901  -0.03812   1.84226
   A31        1.82033   0.00380   0.00000   0.06591   0.06548   1.88581
   A32        1.93324  -0.00788   0.00000  -0.04232  -0.04236   1.89089
   A33        1.97780   0.00122   0.00000  -0.00055  -0.00068   1.97712
   A34        1.92565  -0.00096   0.00000  -0.00281  -0.00274   1.92290
   A35        1.86124   0.00218   0.00000   0.01002   0.00967   1.87091
   A36        1.90086   0.00751   0.00000   0.04879   0.04885   1.94971
   A37        1.86169  -0.00138   0.00000  -0.00902  -0.00908   1.85262
   A38        1.82802   0.00173   0.00000   0.00820   0.00820   1.83622
   A39        1.86915   0.00221   0.00000   0.01049   0.01049   1.87963
   A40        1.83149  -0.00151   0.00000  -0.00713  -0.00713   1.82436
   A41        1.86089   0.00172   0.00000   0.00814   0.00814   1.86903
   A42        1.88731  -0.00160   0.00000  -0.00759  -0.00759   1.87973
    D1        0.96354  -0.00993   0.00000  -0.07446  -0.07251   0.89103
    D2        2.89538  -0.00555   0.00000  -0.03022  -0.03068   2.86470
    D3       -1.42318  -0.00531   0.00000   0.00016  -0.00067  -1.42385
    D4        3.11444  -0.00797   0.00000  -0.08803  -0.08621   3.02823
    D5       -1.23690  -0.00359   0.00000  -0.04379  -0.04438  -1.28128
    D6        0.72773  -0.00335   0.00000  -0.01341  -0.01437   0.71335
    D7       -1.09274  -0.00295   0.00000  -0.05924  -0.05760  -1.15034
    D8        0.83911   0.00143   0.00000  -0.01500  -0.01577   0.82334
    D9        2.80373   0.00167   0.00000   0.01537   0.01424   2.81797
   D10       -0.02354  -0.00485   0.00000  -0.02056  -0.01869  -0.04223
   D11       -2.15505   0.00197   0.00000   0.03296   0.03350  -2.12155
   D12        2.13004  -0.00881   0.00000  -0.06348  -0.06292   2.06712
   D13       -2.18525   0.00013   0.00000   0.01795   0.01904  -2.16621
   D14        1.96642   0.00695   0.00000   0.07147   0.07123   2.03765
   D15       -0.03167  -0.00383   0.00000  -0.02496  -0.02519  -0.05685
   D16        2.08211  -0.00278   0.00000  -0.01139  -0.01055   2.07156
   D17       -0.04940   0.00405   0.00000   0.04213   0.04164  -0.00776
   D18       -2.04749  -0.00674   0.00000  -0.05430  -0.05477  -2.10227
   D19       -0.90739   0.00215   0.00000   0.02479   0.02481  -0.88257
   D20       -2.98286  -0.00019   0.00000  -0.01341  -0.01384  -2.99670
   D21        1.22877  -0.00167   0.00000  -0.00561  -0.00520   1.22357
   D22        0.77891   0.00363   0.00000   0.00993   0.00993   0.78885
   D23       -1.31235   0.00495   0.00000   0.03357   0.03278  -1.27957
   D24        2.90056  -0.00187   0.00000  -0.02709  -0.02757   2.87299
   D25       -1.39110   0.00363   0.00000   0.02684   0.02764  -1.36346
   D26        2.80083   0.00495   0.00000   0.05048   0.05049   2.85131
   D27        0.73055  -0.00187   0.00000  -0.01018  -0.00986   0.72069
   D28        2.90379   0.00207   0.00000  -0.00045  -0.00043   2.90337
   D29        0.81253   0.00340   0.00000   0.02319   0.02242   0.83495
   D30       -1.25775  -0.00342   0.00000  -0.03747  -0.03793  -1.29567
   D31       -0.77996   0.00322   0.00000   0.01295   0.01411  -0.76585
   D32        1.36756  -0.00595   0.00000  -0.04728  -0.04675   1.32082
   D33       -2.96150  -0.00266   0.00000   0.00776   0.00793  -2.95357
   D34        1.38666   0.00236   0.00000  -0.01243  -0.01163   1.37503
   D35       -2.74900  -0.00681   0.00000  -0.07266  -0.07249  -2.82149
   D36       -0.79487  -0.00352   0.00000  -0.01761  -0.01782  -0.81269
   D37       -2.90264   0.01096   0.00000   0.06196   0.06250  -2.84014
   D38       -0.75511   0.00180   0.00000   0.00172   0.00164  -0.75347
   D39        1.19901   0.00509   0.00000   0.05677   0.05631   1.25533
   D40       -3.02050  -0.00271   0.00000  -0.01407  -0.01513  -3.03563
   D41       -0.88651   0.00007   0.00000  -0.00944  -0.00965  -0.89616
   D42        1.19244   0.00212   0.00000   0.01279   0.01406   1.20650
   D43        0.03097   0.00787   0.00000   0.01837   0.01678   0.04775
   D44        2.18541   0.00120   0.00000  -0.01754  -0.01877   2.16664
   D45       -2.10446   0.00419   0.00000   0.02466   0.02321  -2.08125
   D46       -0.96512   0.00481   0.00000   0.06012   0.05773  -0.90739
   D47       -2.93400  -0.00104   0.00000   0.00545   0.00518  -2.92883
   D48        1.45486  -0.00206   0.00000  -0.02256  -0.02352   1.43134
   D49        1.07816   0.00115   0.00000   0.01075   0.01155   1.08972
   D50       -2.99562  -0.00288   0.00000  -0.02285  -0.02272  -3.01834
   D51       -1.03525   0.00076   0.00000  -0.00677  -0.00771  -1.04295
   D52        3.08028  -0.00918   0.00000  -0.07513  -0.07534   3.00494
   D53        0.98936  -0.00718   0.00000  -0.05743  -0.05780   0.93156
   D54       -1.09674  -0.00556   0.00000  -0.04354  -0.04386  -1.14061
   D55        0.64794   0.00565   0.00000   0.03711   0.03773   0.68567
   D56       -1.44298   0.00765   0.00000   0.05481   0.05528  -1.38770
   D57        2.75410   0.00927   0.00000   0.06870   0.06921   2.82331
   D58       -1.22198  -0.00226   0.00000  -0.01575  -0.01589  -1.23788
   D59        2.97028  -0.00027   0.00000   0.00195   0.00166   2.97194
   D60        0.88418   0.00136   0.00000   0.01584   0.01559   0.89976
   D61        1.02794   0.00555   0.00000   0.04399   0.04606   1.07400
   D62       -3.01919  -0.00290   0.00000  -0.00244  -0.00283  -3.02202
   D63       -1.02552  -0.00031   0.00000   0.00597   0.00430  -1.02123
   D64       -1.57892   0.00268   0.00000   0.02120   0.02125  -1.55767
   D65        0.54652  -0.00283   0.00000  -0.00143  -0.00157   0.54495
   D66        2.54918   0.00266   0.00000   0.02937   0.02946   2.57864
         Item               Value     Threshold  Converged?
 Maximum Force            0.045206     0.000450     NO 
 RMS     Force            0.007338     0.000300     NO 
 Maximum Displacement     0.192649     0.001800     NO 
 RMS     Displacement     0.052335     0.001200     NO 
 Predicted change in Energy=-1.954679D-02
 GradGradGradGradGradGradGradGradGradGradGradGradGradGradGradGradGradGrad

                          Input orientation:                          
 ---------------------------------------------------------------------
 Center     Atomic      Atomic             Coordinates (Angstroms)
 Number     Number       Type             X           Y           Z
 ---------------------------------------------------------------------
      1          6           0       -0.976304    0.915364    0.520965
      2          6           0        1.303939    0.195228   -0.404398
      3          8           0       -0.078907   -1.327673    1.040841
      4          6           0        1.263828   -0.959195    0.586469
      5          6           0       -1.157918   -0.585645    0.436494
      6          6           0        0.413843    1.353184    0.009938
      7          1           0        1.813691   -0.698598    1.498291
      8          1           0        0.925393    1.885580    0.824298
      9          1           0        1.022054   -0.169224   -1.397491
     10          1           0       -2.024491   -0.851441    1.067423
     11          1           0       -1.768669    1.406241   -0.056139
     12          6           0       -1.559539   -1.133834   -0.948153
     13          1           0       -1.520553   -2.228365   -0.910246
     14          1           0       -0.890113   -0.814564   -1.749426
     15          8           0        1.808812   -2.129008    0.005585
     16          1           0        2.736767   -1.909028   -0.188850
     17          8           0       -2.862773   -0.662503   -1.306682
     18          1           0       -3.509948   -1.299189   -0.967399
     19          8           0        2.672292    0.617897   -0.479396
     20          1           0        2.651665    1.413431   -1.039046
     21          8           0        0.362269    2.230877   -1.135264
     22          1           0       -0.110682    3.032040   -0.859415
     23          8           0       -1.029711    1.381801    1.879031
     24          1           0       -1.831662    1.015530    2.285615
 ---------------------------------------------------------------------
                    Distance matrix (angstroms):
                    1          2          3          4          5
     1  C    0.000000
     2  C    2.564059   0.000000
     3  O    2.471195   2.514002   0.000000
     4  C    2.921721   1.521880   1.464639   0.000000
     5  C    1.514314   2.716175   1.442257   2.454972   0.000000
     6  C    1.544455   1.518160   2.914200   2.530210   2.532083
     7  H    3.368102   2.163099   2.046198   1.096211   3.157631
     8  H    2.156335   2.123742   3.373500   2.874690   3.255384
     9  H    2.974935   1.094768   2.915404   2.149095   2.879095
    10  H    2.125774   3.786848   2.003197   3.325052   1.104385
    11  H    1.096290   3.320957   3.396019   3.899266   2.140868
    12  C    2.587988   3.203371   2.487155   3.218225   1.542420
    13  H    3.496800   3.755988   2.587726   3.406425   2.154935
    14  H    2.855653   2.764533   2.950750   3.180690   2.214130
    15  O    4.158207   2.413515   2.297254   1.415237   3.371815
    16  H    4.718890   2.554868   3.127001   1.916468   4.160645
    17  O    3.064103   4.348714   3.701787   4.549823   2.439488
    18  H    3.679515   5.071860   3.975661   5.031804   2.830567
    19  O    3.794926   1.434108   3.696683   2.367923   4.117995
    20  H    3.980435   1.924360   4.392676   3.193390   4.548236
    21  O    2.503087   2.358977   4.194442   3.735470   3.565697
    22  H    2.671154   3.202452   4.755952   4.462042   3.982930
    23  O    1.436927   3.473892   2.991294   3.522967   2.442989
    24  H    1.963584   4.212014   3.179971   4.045825   2.537112
                    6          7          8          9         10
     6  C    0.000000
     7  H    2.895614   0.000000
     8  H    1.099232   2.814483   0.000000
     9  H    2.160672   3.048357   3.027855   0.000000
    10  H    3.453132   3.865314   4.031403   3.977770   0.000000
    11  H    2.184156   4.436204   2.874527   3.474111   2.534752
    12  C    3.316238   4.189654   4.293405   2.792311   2.087695
    13  H    4.173263   4.388442   5.090760   3.307918   2.461919
    14  H    3.081363   4.227490   4.148602   2.048586   3.036908
    15  O    3.751216   2.067431   4.191376   2.535422   4.177785
    16  H    4.009679   2.272368   4.325112   2.725431   5.036495
    17  O    4.066042   5.453302   5.038254   3.917072   2.524835
    18  H    4.835950   5.897582   5.746754   4.690506   2.558821
    19  O    2.425013   2.526183   2.521566   2.045909   5.158622
    20  H    2.472215   3.406016   2.583601   2.299763   5.606540
    21  O    1.443777   4.198102   2.067903   2.502911   4.477627
    22  H    1.962004   4.814525   2.285326   3.438126   4.738860
    23  O    2.361816   3.543721   2.277868   4.165455   2.575979
    24  H    3.214811   4.104475   3.239411   4.807557   2.237578
                   11         12         13         14         15
    11  H    0.000000
    12  C    2.700260   0.000000
    13  H    3.741848   1.095882   0.000000
    14  H    2.927636   1.091835   1.760828   0.000000
    15  O    5.029927   3.639475   3.454459   3.477359   0.000000
    16  H    5.595317   4.431220   4.329799   4.097256   0.973291
    17  O    2.653418   1.431473   2.100153   2.027445   5.069161
    18  H    3.343920   1.957500   2.196435   2.776682   5.470329
    19  O    4.530206   4.603987   5.085941   4.044213   2.919982
    20  H    4.528301   4.922505   5.539555   4.244148   3.788209
    21  O    2.526941   3.879386   4.845668   3.349682   4.733140
    22  H    2.457111   4.411527   5.446301   4.024425   5.573966
    23  O    2.071603   3.821270   4.588496   4.243726   4.888025
    24  H    2.374960   3.892438   4.564337   4.529604   5.323505
                   16         17         18         19         20
    16  H    0.000000
    17  O    5.844504   0.000000
    18  H    6.324515   0.969184   0.000000
    19  O    2.544391   5.741148   6.491030   0.000000
    20  H    3.430570   5.898318   6.732675   0.972886   0.000000
    21  O    4.865465   4.336119   5.242482   2.892762   2.432860
    22  H    5.742106   4.628575   5.506925   3.703708   3.206669
    23  O    5.412212   4.205718   4.630492   4.455396   4.697734
    24  H    5.962094   4.096777   4.330897   5.299906   5.595705
                   21         22         23         24
    21  O    0.000000
    22  H    0.970381   0.000000
    23  O    3.427027   3.326708   0.000000
    24  H    4.241794   4.113307   0.970871   0.000000
 Stoichiometry    C6H12O6
 Framework group  C1[X(C6H12O6)]
 Deg. of freedom    66
 Full point group                 C1      NOp   1
 Largest Abelian subgroup         C1      NOp   1
 Largest concise Abelian subgroup C1      NOp   1
                         Standard orientation:                         
 ---------------------------------------------------------------------
 Center     Atomic      Atomic             Coordinates (Angstroms)
 Number     Number       Type             X           Y           Z
 ---------------------------------------------------------------------
      1          6           0       -0.908541    0.975537    0.533640
      2          6           0        1.302400    0.105891   -0.430650
      3          8           0       -0.141196   -1.313894    1.059467
      4          6           0        1.211838   -1.034154    0.573448
      5          6           0       -1.184705   -0.511997    0.469421
      6          6           0        0.494898    1.320980   -0.010760
      7          1           0        1.796101   -0.799495    1.470805
      8          1           0        1.055722    1.828341    0.786970
      9          1           0        0.977362   -0.249889   -1.413650
     10          1           0       -2.052470   -0.717201    1.120989
     11          1           0       -1.681027    1.509196   -0.032334
     12          6           0       -1.648959   -1.047481   -0.900537
     13          1           0       -1.677169   -2.141898   -0.851429
     14          1           0       -0.978224   -0.778281   -1.718919
     15          8           0        1.670689   -2.241197   -0.005689
     16          1           0        2.606156   -2.081319   -0.221647
     17          8           0       -2.927772   -0.499403   -1.237231
     18          1           0       -3.605837   -1.091243   -0.877688
     19          8           0        2.692437    0.441789   -0.538523
     20          1           0        2.709302    1.231612   -1.106328
     21          8           0        0.473515    2.189062   -1.164219
     22          1           0        0.057170    3.020752   -0.887474
     23          8           0       -0.903974    1.457509    1.887317
     24          1           0       -1.718269    1.145836    2.314370
 ---------------------------------------------------------------------
 Rotational constants (GHZ):      1.0469794      0.8056999      0.6490698
 Standard basis: 6-31G(d) (6D, 7F)
 There are   204 symmetry adapted cartesian basis functions of A   symmetry.
 There are   204 symmetry adapted basis functions of A   symmetry.
   204 basis functions,   384 primitive gaussians,   204 cartesian basis functions
    48 alpha electrons       48 beta electrons
       nuclear repulsion energy       832.0511779255 Hartrees.
 NAtoms=   24 NActive=   24 NUniq=   24 SFac= 1.00D+00 NAtFMM=   60 NAOKFM=F Big=F
 Integral buffers will be    131072 words long.
 Raffenetti 2 integral format.
 Two-electron integral symmetry is turned on.
 One-electron integrals computed using PRISM.
 NBasis=   204 RedAO= T EigKep=  1.37D-03  NBF=   204
 NBsUse=   204 1.00D-06 EigRej= -1.00D+00 NBFU=   204
 Initial guess from the checkpoint file:  "/scratch/10454688.yak.local/Gau-11808.chk"
 B after Tr=    -0.000000   -0.000000   -0.000000
         Rot=    0.999437    0.005097   -0.010680    0.031407 Ang=   3.85 deg.
 ExpMin= 1.61D-01 ExpMax= 5.48D+03 ExpMxC= 8.25D+02 IAcc=1 IRadAn=         1 AccDes= 0.00D+00
 Harris functional with IExCor=  402 and IRadAn=       1 diagonalized for initial guess.
 HarFok:  IExCor=  402 AccDes= 0.00D+00 IRadAn=         1 IDoV= 1 UseB2=F ITyADJ=14
 ICtDFT=  3500011 ScaDFX=  1.000000  1.000000  1.000000  1.000000
 FoFCou: FMM=F IPFlag=           0 FMFlag=      100000 FMFlg1=           0
         NFxFlg=           0 DoJE=T BraDBF=F KetDBF=T FulRan=T
         wScrn=  0.000000 ICntrl=     500 IOpCl=  0 I1Cent=   200000004 NGrid=           0
         NMat0=    1 NMatS0=      1 NMatT0=    0 NMatD0=    1 NMtDS0=    0 NMtDT0=    0
 Petite list used in FoFCou.
 Requested convergence on RMS density matrix=1.00D-08 within 128 cycles.
 Requested convergence on MAX density matrix=1.00D-06.
 Requested convergence on             energy=1.00D-06.
 No special actions if energy rises.
 Integral accuracy reduced to 1.0D-05 until final iterations.
 Initial convergence to 1.0D-05 achieved.  Increase integral accuracy.
 SCF Done:  E(RB3LYP) =  -687.117849106     A.U. after   12 cycles
            NFock= 12  Conv=0.42D-08     -V/T= 2.0086
 Calling FoFJK, ICntrl=      2127 FMM=F ISym2X=0 I1Cent= 0 IOpClX= 0 NMat=1 NMatS=1 NMatT=0.
 ***** Axes restored to original set *****
 -------------------------------------------------------------------
 Center     Atomic                   Forces (Hartrees/Bohr)
 Number     Number              X              Y              Z
 -------------------------------------------------------------------
      1        6           0.006061299    0.010059235    0.005935426
      2        6           0.006499521    0.004350057   -0.001017319
      3        8           0.019372933    0.018880980   -0.019416871
      4        6          -0.020601474   -0.018702142    0.010665949
      5        6          -0.008737931   -0.022315414    0.009041300
      6        6           0.000541713    0.012459839   -0.005363006
      7        1           0.001608910    0.002775299   -0.000172775
      8        1          -0.002717317   -0.003414328    0.002704285
      9        1          -0.005163324   -0.001575224    0.000619944
     10        1           0.002403479    0.001687508    0.001256084
     11        1           0.000205577   -0.001639986   -0.005035699
     12        6          -0.001649407    0.002094795   -0.003589972
     13        1           0.001198247   -0.000350789    0.001313381
     14        1           0.000446439    0.001533638    0.000089975
     15        8           0.000181908    0.004327694    0.001632734
     16        1          -0.000074324   -0.001064057   -0.000928472
     17        8           0.001554947   -0.001244825   -0.000307526
     18        1           0.000149761    0.001170013    0.000679597
     19        8          -0.003247666   -0.000122350    0.001185242
     20        1           0.001925151   -0.000971164   -0.000189229
     21        8          -0.000941854   -0.005862437    0.002911792
     22        1           0.001141803    0.000427967   -0.000459462
     23        8          -0.000521799   -0.002844978   -0.001806677
     24        1           0.000363407    0.000340670    0.000251299
 -------------------------------------------------------------------
 Cartesian Forces:  Max     0.022315414 RMS     0.006776396

 GradGradGradGradGradGradGradGradGradGradGradGradGradGradGradGradGradGrad
 Berny optimization.
 Using GEDIIS/GDIIS optimizer.
 FormGI is forming the generalized inverse of G from B-inverse, IUseBI=4.
 Internal  Forces:  Max     0.023045080 RMS     0.002842905
 Search for a local minimum.
 Step number   2 out of a maximum of  144
 All quantities printed in internal units (Hartrees-Bohrs-Radians)
 Mixed Optimization -- RFO/linear search
 Update second derivatives using D2CorX and points    1    2
 DE= -2.02D-02 DEPred=-1.95D-02 R= 1.03D+00
 TightC=F SS=  1.41D+00  RLast= 4.23D-01 DXNew= 5.0454D-01 1.2700D+00
 Trust test= 1.03D+00 RLast= 4.23D-01 DXMaxT set to 5.05D-01
 ITU=  1  0
 Use linear search instead of GDIIS.
     Eigenvalues ---    0.00230   0.00421   0.00564   0.01133   0.01162
     Eigenvalues ---    0.01196   0.01294   0.01341   0.01377   0.02892
     Eigenvalues ---    0.03260   0.04296   0.04497   0.04826   0.04905
     Eigenvalues ---    0.04930   0.04997   0.05309   0.05623   0.06120
     Eigenvalues ---    0.06437   0.06965   0.07356   0.07481   0.07608
     Eigenvalues ---    0.09364   0.11256   0.11457   0.13163   0.13854
     Eigenvalues ---    0.15768   0.15999   0.16000   0.16000   0.16000
     Eigenvalues ---    0.16490   0.17237   0.18381   0.19500   0.20218
     Eigenvalues ---    0.20839   0.21957   0.23648   0.27934   0.28332
     Eigenvalues ---    0.28494   0.29356   0.33672   0.33821   0.34008
     Eigenvalues ---    0.34131   0.34191   0.34338   0.34530   0.34954
     Eigenvalues ---    0.35490   0.39260   0.39867   0.40115   0.41680
     Eigenvalues ---    0.41858   0.51714   0.52235   0.52347   0.52534
     Eigenvalues ---    0.52623
 RFO step:  Lambda=-4.10447995D-03 EMin= 2.29985097D-03
 Quartic linear search produced a step of  0.42785.
 Iteration  1 RMS(Cart)=  0.03686726 RMS(Int)=  0.00102979
 Iteration  2 RMS(Cart)=  0.00115323 RMS(Int)=  0.00054082
 Iteration  3 RMS(Cart)=  0.00000085 RMS(Int)=  0.00054082
 Variable       Old X    -DE/DX   Delta X   Delta X   Delta X     New X
                                 (Linear)    (Quad)   (Total)
    R1        2.86164   0.00753   0.03388   0.00570   0.04001   2.90165
    R2        2.91860  -0.00145   0.00595  -0.00485   0.00065   2.91925
    R3        2.07169   0.00177   0.00082   0.00652   0.00734   2.07903
    R4        2.71540  -0.00227  -0.00044  -0.00762  -0.00806   2.70734
    R5        2.87594   0.00305  -0.00534   0.01080   0.00514   2.88108
    R6        2.86891   0.00177  -0.00251   0.00902   0.00574   2.87464
    R7        2.06881   0.00130   0.00178   0.00367   0.00546   2.07427
    R8        2.71007  -0.00164  -0.00653  -0.00008  -0.00661   2.70346
    R9        2.76777  -0.02305  -0.05849  -0.06598  -0.12398   2.64379
   R10        2.72547  -0.00841  -0.01313  -0.01782  -0.03023   2.69524
   R11        2.07154   0.00132   0.00054   0.00494   0.00548   2.07702
   R12        2.67441  -0.00294  -0.00690  -0.00380  -0.01070   2.66371
   R13        2.08699  -0.00157   0.00345  -0.00968  -0.00623   2.08075
   R14        2.91475   0.00003   0.00024  -0.00010   0.00014   2.91490
   R15        2.07725  -0.00092   0.00051  -0.00426  -0.00375   2.07349
   R16        2.72834  -0.00525   0.00302  -0.02137  -0.01835   2.70999
   R17        2.07092   0.00044  -0.00010   0.00188   0.00178   2.07270
   R18        2.06327   0.00065   0.00248   0.00039   0.00287   2.06614
   R19        2.70509  -0.00166   0.00402  -0.00918  -0.00516   2.69993
   R20        1.83925  -0.00013  -0.00149   0.00093  -0.00056   1.83869
   R21        1.83149  -0.00063  -0.00414   0.00188  -0.00226   1.82923
   R22        1.83849  -0.00073  -0.00448   0.00188  -0.00260   1.83589
   R23        1.83375  -0.00034  -0.00445   0.00293  -0.00152   1.83223
   R24        1.83468  -0.00033  -0.00237   0.00115  -0.00121   1.83347
    A1        1.95032  -0.00064   0.02173  -0.01090   0.01134   1.96166
    A2        1.90475  -0.00113  -0.02209  -0.00097  -0.02286   1.88189
    A3        1.94982  -0.00017   0.00141  -0.01216  -0.01090   1.93892
    A4        1.92778   0.00080  -0.00448  -0.00878  -0.01315   1.91463
    A5        1.82777  -0.00039  -0.01700   0.02069   0.00352   1.83129
    A6        1.90214   0.00166   0.02072   0.01311   0.03389   1.93603
    A7        1.96647   0.00146   0.01341  -0.00495   0.00809   1.97456
    A8        1.90848  -0.00144  -0.01245  -0.01384  -0.02651   1.88197
    A9        1.85747  -0.00171  -0.02508   0.01656  -0.00828   1.84919
   A10        1.92893  -0.00105  -0.00624  -0.02301  -0.02965   1.89928
   A11        1.92718   0.00078   0.00314   0.02115   0.02445   1.95163
   A12        1.87167   0.00198   0.02733   0.00598   0.03321   1.90488
   A13        2.01135   0.00852   0.04644   0.01838   0.06635   2.07770
   A14        2.00092  -0.00182  -0.01042  -0.00713  -0.01745   1.98347
   A15        1.92625  -0.00224  -0.00876  -0.01995  -0.02858   1.89767
   A16        1.92796   0.00075   0.01069  -0.01046  -0.00039   1.92757
   A17        1.83549   0.00295   0.00318   0.03061   0.03342   1.86891
   A18        1.84669  -0.00007  -0.01295   0.02411   0.01113   1.85783
   A19        1.92277   0.00065   0.01959  -0.01461   0.00467   1.92744
   A20        1.97890  -0.00248  -0.03399   0.00503  -0.02930   1.94960
   A21        1.87633   0.00051   0.02269  -0.01668   0.00659   1.88292
   A22        2.01927  -0.00174  -0.00485  -0.02132  -0.02699   1.99228
   A23        1.79654   0.00150   0.01690   0.00252   0.01967   1.81620
   A24        1.96938   0.00140   0.00894  -0.00458   0.00138   1.97077
   A25        1.79569   0.00169   0.00039   0.04114   0.04141   1.83710
   A26        1.98428  -0.00334  -0.01850  -0.00416  -0.02363   1.96065
   A27        1.88709  -0.00182  -0.00967  -0.01347  -0.02422   1.86287
   A28        1.98519   0.00306   0.02163  -0.01065   0.01064   1.99583
   A29        1.87419   0.00148  -0.00214   0.01875   0.01638   1.89057
   A30        1.84226  -0.00071  -0.01631   0.00089  -0.01499   1.82727
   A31        1.88581   0.00156   0.02802   0.01162   0.03949   1.92529
   A32        1.89089  -0.00173  -0.01812   0.00163  -0.01651   1.87438
   A33        1.97712  -0.00047  -0.00029  -0.00659  -0.00696   1.97016
   A34        1.92290  -0.00002  -0.00117   0.00019  -0.00094   1.92196
   A35        1.87091   0.00092   0.00414   0.00699   0.01087   1.88178
   A36        1.94971   0.00143   0.02090  -0.00573   0.01518   1.96488
   A37        1.85262  -0.00002  -0.00388   0.00339  -0.00055   1.85206
   A38        1.83622   0.00242   0.00351   0.01742   0.02093   1.85715
   A39        1.87963   0.00053   0.00449  -0.00002   0.00447   1.88410
   A40        1.82436   0.00331  -0.00305   0.03183   0.02878   1.85313
   A41        1.86903   0.00131   0.00348   0.00781   0.01129   1.88032
   A42        1.87973   0.00085  -0.00325   0.01067   0.00742   1.88715
    D1        0.89103  -0.00302  -0.03102  -0.01986  -0.04985   0.84117
    D2        2.86470  -0.00220  -0.01313  -0.02425  -0.03773   2.82697
    D3       -1.42385  -0.00074  -0.00029   0.00376   0.00265  -1.42120
    D4        3.02823  -0.00322  -0.03689  -0.03889  -0.07470   2.95353
    D5       -1.28128  -0.00240  -0.01899  -0.04328  -0.06258  -1.34386
    D6        0.71335  -0.00094  -0.00615  -0.01527  -0.02220   0.69116
    D7       -1.15034  -0.00200  -0.02464  -0.03089  -0.05448  -1.20481
    D8        0.82334  -0.00118  -0.00675  -0.03528  -0.04235   0.78099
    D9        2.81797   0.00028   0.00609  -0.00726  -0.00197   2.81600
   D10       -0.04223  -0.00055  -0.00800   0.02681   0.01985  -0.02238
   D11       -2.12155   0.00092   0.01433   0.01507   0.02952  -2.09203
   D12        2.06712  -0.00172  -0.02692   0.01653  -0.01004   2.05708
   D13       -2.16621   0.00078   0.00815   0.04164   0.05036  -2.11584
   D14        2.03765   0.00224   0.03048   0.02991   0.06003   2.09769
   D15       -0.05685  -0.00039  -0.01078   0.03137   0.02047  -0.03638
   D16        2.07156  -0.00135  -0.00451   0.01907   0.01512   2.08669
   D17       -0.00776   0.00011   0.01782   0.00733   0.02479   0.01703
   D18       -2.10227  -0.00252  -0.02343   0.00879  -0.01477  -2.11704
   D19       -0.88257  -0.00024   0.01062  -0.00548   0.00528  -0.87730
   D20       -2.99670   0.00088  -0.00592   0.00144  -0.00460  -3.00129
   D21        1.22357  -0.00065  -0.00223  -0.00568  -0.00793   1.21564
   D22        0.78885   0.00081   0.00425   0.00718   0.01171   0.80056
   D23       -1.27957  -0.00016   0.01402  -0.01304   0.00068  -1.27889
   D24        2.87299   0.00003  -0.01179   0.02584   0.01390   2.88689
   D25       -1.36346   0.00220   0.01182   0.05035   0.06277  -1.30069
   D26        2.85131   0.00123   0.02160   0.03013   0.05174   2.90305
   D27        0.72069   0.00142  -0.00422   0.06902   0.06496   0.78565
   D28        2.90337   0.00150  -0.00018   0.04143   0.04139   2.94476
   D29        0.83495   0.00054   0.00959   0.02121   0.03036   0.86532
   D30       -1.29567   0.00072  -0.01623   0.06009   0.04358  -1.25209
   D31       -0.76585   0.00196   0.00604  -0.01933  -0.01230  -0.77815
   D32        1.32082  -0.00135  -0.02000  -0.02592  -0.04569   1.27512
   D33       -2.95357   0.00077   0.00339  -0.00372  -0.00022  -2.95379
   D34        1.37503   0.00036  -0.00498  -0.05774  -0.06182   1.31321
   D35       -2.82149  -0.00295  -0.03101  -0.06433  -0.09521  -2.91670
   D36       -0.81269  -0.00083  -0.00762  -0.04213  -0.04974  -0.86243
   D37       -2.84014   0.00264   0.02674  -0.05148  -0.02430  -2.86444
[...]
 7445216,0.23805952,0.28858368,0.00054580,0.00013436,-0.00025396,-0.000
 89213,0.00041373,-0.00336480,0.00071562,0.00052047,-0.00414244,0.01249
 607,0.00137216,-0.01110459,-0.00043521,0.00039483,0.00023410,0.0004351
 4,-0.00022759,0.00048484,0.00001361,0.00054414,-0.00041827,-0.00026983
 ,0.00025881,0.00019349,-0.00056726,-0.00278072,0.00107904,0.00002878,-
 0.00005422,0.00007225,0.00017715,-0.00004983,0.00005610,0.00010994,-0.
 00008121,-0.00018519,-0.00002612,-0.00005508,0.00000928,0.00005391,0.0
 0002645,0.00010563,-0.08983659,-0.02991164,0.05582658,0.07708723,0.029
 25747,0.00042695,0.00020768,0.00002553,-0.00042523,-0.00007756,0.00068
 502,-0.00038996,-0.00306210,-0.00933558,0.03466041,0.01012675,-0.02234
 546,-0.00162599,0.00029617,-0.00084202,0.00065743,-0.00015110,0.000255
 23,-0.00095729,0.00065372,0.00097752,-0.00019751,0.00014689,0.00012453
 ,-0.00011631,-0.00072977,0.00119584,0.00032569,-0.00018218,0.00010936,
 0.00004513,-0.00021975,0.00013792,-0.00014437,0.00005618,-0.00003639,-
 0.00001917,-0.00005131,0.00001473,0.00043912,0.00015763,0.00026674,0.1
 9127430,0.03203817,-0.21160178,-0.22326123,-0.04040108,0.23970709,0.00
 097527,0.00325565,-0.00005820,0.00027738,0.00062246,0.00055021,-0.0120
 6685,-0.00597344,-0.00247362,0.00308077,0.00123289,-0.00530008,-0.0342
 1734,0.02235628,-0.00114720,0.00003520,0.00087257,-0.00009215,-0.00077
 440,-0.00012410,0.00068099,-0.00001860,-0.00002524,0.00012663,-0.00013
 829,-0.00028931,0.00005521,0.00313509,0.00042244,-0.00057619,0.0000964
 7,-0.00026709,0.00031938,-0.18197838,0.06266655,-0.03035184,-0.0104191
 4,0.01017081,-0.00239515,-0.02240130,0.01058659,-0.00072055,-0.0005103
 7,-0.00002748,0.00174537,-0.00029936,-0.00006491,-0.00021340,0.3843225
 9,0.00828921,-0.00390253,0.00005939,0.00027359,-0.00041852,-0.00016345
 ,-0.00342536,0.00069939,-0.00133545,-0.00053260,-0.00069350,-0.0008743
 5,-0.00585416,0.01001431,-0.00075447,-0.00042959,0.00059520,0.00005852
 ,-0.00017435,0.00007355,0.00019938,-0.00000159,0.00001846,-0.00004267,
 -0.00003345,0.00008586,0.00006293,0.00002725,0.00088955,0.00162660,-0.
 00066535,0.00051063,0.00029709,0.04754584,-0.09283568,0.02777956,0.037
 14928,-0.01165622,0.00209069,0.00941411,-0.00237395,0.00078665,0.00032
 287,0.00090458,0.00043945,0.00016058,-0.00011065,-0.00003384,-0.091880
 52,0.11445429,0.00088115,0.00010549,-0.00086766,-0.00003066,0.00013183
 ,0.00020964,-0.00678813,-0.00262273,0.00195213,0.00029517,-0.00014932,
 -0.00373468,-0.01404797,0.00903229,0.00002862,-0.00015847,0.00017296,0
 .00021062,-0.00032174,-0.00001698,0.00052073,0.00012575,0.00007906,0.0
 0003747,-0.00006593,-0.00014747,0.00007965,0.00106005,0.00229014,0.002
 31135,-0.00044602,-0.00031235,0.00050682,0.01414269,0.00626076,-0.0956
 9035,-0.01949702,0.00583915,0.00213173,0.03061644,-0.01336038,0.009588
 06,0.00105846,0.00044031,0.00082783,0.00013730,0.00005303,0.00016133,-
 0.16598193,-0.04940646,0.48337465,-0.00029107,-0.00019460,0.00039921,-
 0.00019723,-0.00000041,-0.00009239,0.00180107,-0.00012055,-0.00117519,
 -0.00033598,-0.00003748,0.00100629,-0.00196332,0.00063481,0.00217992,-
 0.00015265,-0.00021141,-0.00010723,0.00013273,-0.00001168,-0.00012720,
 -0.00001366,-0.00000831,-0.00002472,0.00004347,0.00003557,-0.00003545,
 -0.00055597,-0.00075917,-0.00140684,0.00009890,0.00018224,-0.00019967,
 -0.02154889,-0.00039675,0.03782829,0.00284765,0.00031922,-0.00063132,-
 0.00502716,0.00240020,-0.00280983,-0.00015066,-0.00022537,-0.00028968,
 -0.00004378,0.00003763,-0.00004895,-0.12475855,0.01049612,0.15928915,0
 .14913516,-0.00118697,0.00055872,0.00062342,-0.00011693,0.00006888,0.0
 0002711,0.00018238,-0.00035273,-0.00036200,-0.00007955,-0.00004696,-0.
 00001237,-0.00127681,0.00073005,0.00203102,0.00017836,-0.00018062,-0.0
 0012037,0.00005538,-0.00000358,0.00000029,-0.00007972,-0.00001889,-0.0
 0004081,0.00002218,-0.00001535,-0.00001492,-0.00006456,0.00022608,-0.0
 0049560,0.00029522,-0.00008583,-0.00030895,0.01349094,-0.00231168,-0.0
 2058486,-0.00016516,0.00040884,-0.00113042,0.00502537,-0.00181417,0.00
 058578,0.00017426,-0.00010264,-0.00008564,0.00004370,0.00006180,0.0000
 4041,-0.00468985,-0.01567387,0.04320103,-0.01161953,0.01939553,0.00021
 258,-0.00028803,-0.00047526,-0.00001515,0.00000126,-0.00000090,-0.0006
 6282,-0.00030892,-0.00064873,0.00012390,-0.00002072,-0.00012170,-0.001
 14919,0.00204387,0.00239975,-0.00005674,-0.00002436,0.00013256,-0.0000
 1045,0.00000866,0.00002422,-0.00000402,-0.00000232,-0.00001388,0.00000
 204,-0.00000666,0.00000017,0.00031208,-0.00007762,-0.00070989,0.000035
 11,0.00012127,-0.00001423,-0.00920428,0.00138328,0.00159744,-0.0016512
 6,0.00046786,0.00127626,0.00002040,-0.00058217,0.00217008,-0.00000073,
 -0.00001980,0.00001948,0.00000004,0.00000725,-0.00001090,0.20604054,0.
 02201532,-0.40065640,-0.19408190,-0.02503701,0.39540300,-0.00057715,0.
 00823381,0.00278765,-0.16793164,0.00199464,-0.07764964,0.00062622,-0.0
 0147301,0.00077752,-0.01342357,-0.00679664,-0.00968432,0.00009022,0.00
 147476,-0.00075629,-0.04560557,-0.01186030,-0.02549065,0.00119234,0.00
 066847,0.00074563,0.00367875,-0.00198284,-0.00165450,-0.00463157,-0.00
 175638,-0.01495653,-0.00008801,-0.00009837,0.00013047,-0.00004238,-0.0
 0014097,-0.00017358,0.00048022,0.00000415,0.00033483,-0.00020897,-0.00
 030191,-0.00000060,0.00001450,0.00008300,-0.00001396,0.00000292,-0.002
 98462,0.00008682,-0.00062193,0.00099112,0.00013419,-0.00048550,-0.0005
 7261,-0.00011214,0.00027024,0.00018324,-0.00000063,0.26802595,0.001534
 98,-0.00314963,-0.00062077,-0.03934644,-0.09959734,-0.02338432,-0.0027
 5163,-0.00165480,0.00175127,-0.03228926,-0.00573251,-0.02464893,0.0017
 7724,-0.00127162,0.00002952,0.01319875,0.00734878,0.01068055,-0.000600
 50,0.00300410,-0.00102436,-0.00128533,0.00093305,0.00143689,0.00299760
 ,0.00581427,-0.00150435,-0.00033087,0.00010887,0.00006071,0.00036193,0
 .00003749,0.00018398,0.00027074,0.00018062,-0.00016388,0.00006994,0.00
 009746,0.00003365,0.00016602,0.00002458,0.00007897,-0.00276311,-0.0094
 7974,-0.00363157,-0.00028660,0.00024940,0.00076836,-0.00055634,0.00027
 210,-0.00004351,0.00002265,-0.00002020,-0.00000959,0.08680315,0.584389
 46,0.00161534,0.00013185,0.00137332,-0.07611156,0.00608001,-0.12343800
 ,-0.00165810,-0.00069741,0.00179561,-0.00276432,-0.00351764,-0.0035699
 1,0.00011753,-0.00029069,-0.00003046,-0.00258467,-0.00104406,0.0012257
 3,0.00078617,0.00003590,0.00039377,-0.00077489,0.00130566,0.00336540,-
 0.03997754,-0.01026001,-0.02282730,-0.00026317,-0.00008279,0.00012704,
 0.00087996,0.00023259,0.00059082,0.00016764,-0.00000500,-0.00005894,-0
 .00003961,-0.00003981,0.00001645,0.00010171,0.00007075,0.00006895,-0.0
 0027277,-0.00256280,0.00231330,-0.00058164,0.00178722,0.00047496,-0.00
 023610,-0.00004683,0.00002494,0.00004772,0.00003106,-0.00001490,0.1395
 9261,0.00878768,0.15419814,-0.00012924,-0.00069004,-0.00016315,-0.0109
 8549,-0.04078161,-0.00240075,-0.00042396,-0.00025030,0.00084310,-0.004
 20247,0.00136658,-0.00515637,0.00058926,-0.00049861,0.00017916,-0.0009
 2975,-0.00235149,0.00026288,0.00010932,-0.00012763,0.00003513,-0.00061
 296,0.00030316,0.00057803,0.00090358,0.00057668,-0.00023091,-0.0000618
 4,0.00001635,0.00001416,0.00026471,0.00008857,0.00019428,-0.00009328,0
 .00001412,-0.00016861,0.00007616,0.00010805,0.00000740,0.00004488,-0.0
 0001262,0.00002672,-0.00035655,-0.00178839,-0.00027595,-0.00003784,0.0
 0003827,0.00004992,0.00008194,0.00022168,0.00004754,-0.00008611,-0.000
 05929,-0.00000584,-0.03720781,-0.02848862,-0.01841574,0.05075963,-0.00
 010225,-0.00078855,-0.00002816,0.00191785,-0.00908029,0.00311185,0.000
 02646,0.00018769,-0.00020107,-0.00086938,0.00001080,-0.00175262,-0.000
 19004,-0.00018229,0.00000177,0.00207239,0.00299753,0.00089093,-0.00026
 074,0.00082811,-0.00021143,-0.00041597,0.00008846,0.00013632,0.0012831
 0,0.00048734,0.00100572,0.00000622,0.00001226,-0.00001405,0.00000627,-
 0.00000189,0.00000445,-0.00005645,-0.00000071,-0.00000579,0.00001132,0
 .00001002,-0.00000248,0.00000459,-0.00000558,0.00000090,-0.00045694,-0
 .00006908,-0.00002809,0.00000901,-0.00019871,0.00004271,0.00004918,0.0
 0001723,0.00001008,-0.00002082,-0.00000699,-0.00000107,-0.07392084,-0.
 48401398,0.00001904,0.07142730,0.49011099,0.00027786,0.00000652,-0.000
 39216,-0.00879558,-0.02774212,-0.00237620,0.00012386,-0.00037899,-0.00
 011759,-0.00341972,0.00125000,-0.00135440,0.00002644,0.00012757,0.0000
 6268,-0.00047493,-0.00041701,0.00269723,0.00016580,-0.00012926,-0.0000
 3431,0.00056639,0.00029501,-0.00064507,0.00019905,-0.00050637,0.000118
 69,0.00005224,0.00001281,-0.00004071,-0.00024124,-0.00008528,-0.000131
 89,-0.00001492,0.00000272,0.00000456,0.00000491,0.00000455,-0.00000069
 ,-0.00001513,-0.00001089,-0.00001066,0.00008756,-0.00120631,-0.0005798
 8,-0.00006604,-0.00021235,0.00002001,0.00002808,0.00000288,-0.00001146
 ,-0.00000129,0.00000261,0.00000763,-0.01322662,0.03136235,-0.01825479,
 0.02373811,-0.00277127,0.02220646,-0.00471313,-0.03143514,0.01605190,0
 .00370252,0.03542925,-0.01369119,0.00366632,-0.00010203,-0.00064961,-0
 .00880754,-0.00001372,0.00149552,-0.00866943,0.00000287,-0.00444958,-0
 .09435910,0.01244255,0.00663225,0.00065665,0.00185843,-0.00028822,0.00
 437511,-0.00272691,0.00175297,0.00210288,-0.00106029,-0.00165221,0.000
 14555,-0.00032260,0.00013296,0.00162519,0.00138449,0.00044250,0.000434
 48,-0.00147358,0.00186139,-0.00063639,-0.00068188,-0.00034200,-0.00007
 345,0.00005199,-0.00011040,0.00130276,0.00111312,0.00112619,0.00010969
 ,-0.00026782,-0.00036343,-0.00001915,-0.00059556,-0.00007220,0.0002349
 4,0.00011215,-0.00001650,0.00163028,-0.00002996,0.00106537,0.00139679,
 -0.00092709,0.00055474,0.49114773,-0.00757980,-0.03985201,0.01539675,0
 .00109124,-0.03799708,0.00963578,-0.00016235,0.00038261,-0.00079603,0.
 00533769,0.00247670,0.00129386,-0.00604081,0.00155370,-0.00417900,-0.0
 3607823,-0.19769187,0.06456021,-0.00027443,-0.00185221,0.00017120,-0.0
 0172708,-0.01456608,0.01540632,-0.00146699,0.00174903,0.00085705,-0.00
 014910,-0.00048201,0.00031562,0.00150159,0.00174244,-0.00044560,0.0017
 4544,-0.00160825,0.00212093,-0.00081829,-0.00069805,-0.00039064,-0.000
 02629,0.00006830,-0.00003876,-0.00041179,-0.00131772,-0.00177761,-0.00
 010826,0.00024751,0.00036446,-0.00115373,0.00055694,-0.00018878,0.0003
 8478,-0.00000358,0.00002105,0.00192973,0.00131780,0.00007118,-0.000029
 71,-0.00020291,-0.00008864,-0.15379359,0.39780423,0.00060053,-0.001676
 41,0.00532667,-0.00073580,-0.00412837,0.00315771,0.00048566,0.00042055
 ,0.00082392,0.00159014,-0.00145360,-0.00095544,-0.00215305,-0.00004541
 ,0.00052948,0.02260045,0.05417694,-0.09825770,-0.00001204,-0.00025971,
 0.00008404,0.00460540,0.04185357,-0.01079423,-0.00155615,-0.00029137,0
 .00216977,-0.00045702,-0.00068514,0.00050964,0.00246148,0.00106370,0.0
 0236479,-0.00052277,-0.00002040,0.00024844,0.00000363,-0.00005803,-0.0
 0001556,0.00012334,0.00013723,0.00003140,0.00020063,0.00016468,0.00067
 036,-0.00013708,0.00005320,-0.00012984,0.00023882,-0.00019281,0.000061
 33,-0.00003923,-0.00000865,-0.00003525,-0.00008220,-0.00015801,0.00200
 292,0.00047688,-0.00019694,-0.00113192,-0.07327433,-0.08573525,0.11050
 367,0.00278120,-0.00504192,0.00023777,0.00007053,-0.00155605,-0.000284
 83,-0.00095249,0.00040993,-0.00019944,0.00085085,0.00011923,-0.0003574
 6,-0.00039826,0.00018589,0.00013977,0.00458047,-0.00262817,0.00094027,
 -0.00002212,-0.00014483,0.00007631,-0.00028597,-0.00113038,0.00096531,
 0.00004180,-0.00005877,-0.00024377,-0.00002463,-0.00008370,0.00008405,
 -0.00035868,0.00039176,0.00012599,0.00047694,-0.00042824,0.00003606,-0
 .00010045,0.00006537,-0.00005363,-0.00001109,-0.00000155,0.00001387,-0
 .00023191,-0.00014089,-0.00003518,-0.00000691,0.00007210,0.00006059,-0
 .00006022,0.00091404,0.00010430,-0.00008926,-0.00016054,0.00002958,0.0
 0028625,0.00008915,0.00002273,0.00012703,-0.00017072,0.00035418,-0.396
 41229,0.19427103,0.04645999,0.38964869,0.00253711,-0.00221416,-0.00148
 029,-0.00230298,-0.00815883,0.00351319,-0.00111954,0.00062038,0.000091
 32,0.00302272,-0.00002894,-0.00053033,0.00153428,-0.00052534,0.0008596
 8,0.03864738,-0.02724396,-0.00317959,-0.00025928,-0.00056245,0.0001193
 7,-0.00006026,0.00084627,0.00011676,-0.00042277,0.00023157,0.00018748,
 -0.00004098,0.00006441,-0.00004442,-0.00033846,-0.00005519,0.00000410,
 -0.00000099,0.00004678,-0.00041527,0.00014317,0.00023427,0.00003856,0.
 00001763,-0.00003029,0.00003020,-0.00045938,-0.00006200,-0.00024126,-0
 .00001365,-0.00001011,0.00004627,0.00021702,0.00079167,0.00012558,-0.0
 0020822,-0.00013370,0.00000759,-0.00043696,0.00053603,-0.00027115,0.00
 071211,-0.00006706,0.00040134,0.14499619,-0.11651491,-0.00197319,-0.18
 689456,0.15015676,0.00085421,-0.00030190,0.00200330,0.00114878,0.00005
 005,-0.00137313,-0.00037647,-0.00006610,0.00000184,0.00024224,0.000199
 25,0.00057100,0.00021107,-0.00025276,0.00000174,-0.01541237,0.01312774
 ,0.00029894,-0.00001073,-0.00003768,0.00000763,-0.00041309,0.00086265,
 -0.00041822,-0.00009007,0.00001458,0.00039242,0.00008600,0.00016797,-0
 .00016070,-0.00007366,-0.00049495,-0.00036715,0.00002091,0.00000686,-0
 .00005869,0.00003267,0.00004410,-0.00000545,-0.00001009,-0.00005020,-0
 .00002043,-0.00011711,0.00008323,-0.00010650,0.00004181,0.00001480,0.0
 0006655,-0.00002508,-0.00004827,-0.00004884,-0.00000325,0.00003054,0.0
 0001309,-0.00020502,-0.00012474,0.00004937,0.00029929,-0.00004841,0.00
 004851,0.06233432,-0.01655392,-0.01915858,-0.04832976,0.00305254,0.020
 62110,-0.16084874,0.08197827,0.02903030,-0.00034143,-0.00620466,-0.002
 95483,0.00243764,0.00387281,-0.00107986,0.00033749,-0.00332061,0.00034
 273,-0.00876715,0.01053471,0.00014815,-0.04578966,0.02501667,0.0100069
 6,0.00000999,0.00034995,-0.00015403,0.00280639,0.00024005,0.00003411,-
 0.00030454,0.00060399,0.00044809,0.00091937,-0.00116622,-0.00096619,-0
 .01218955,0.01357540,0.00860382,-0.00741799,0.00321768,-0.00130185,0.0
 0128791,0.00042304,0.00044768,0.00034666,-0.00045796,-0.00001394,-0.00
 026876,0.00185119,0.00025117,0.00022711,-0.00049609,-0.00032864,0.0023
 1483,-0.01099001,-0.00052070,0.00059569,0.00127235,-0.00039643,-0.0051
 4000,0.00124518,-0.00079126,0.00084739,0.00051495,0.00009269,-0.000398
 50,0.00259900,-0.00071451,0.00088681,0.00158036,-0.00032774,0.54648383
 ,0.04413846,-0.14107172,-0.03301614,-0.00287623,-0.00181203,-0.0020178
 8,0.00482715,-0.00998958,0.00305599,-0.00532973,-0.00148124,0.00264822
 ,0.03486675,-0.02265953,-0.00770871,-0.00873732,0.00649554,0.00499912,
 0.00059442,0.00028008,-0.00028993,0.00066034,0.00082617,0.00065132,0.0
 0010286,0.00024932,0.00027853,0.00096866,0.00283658,-0.00182298,0.0170
 5514,-0.00972505,-0.00636379,-0.00124562,0.00207133,0.00050552,0.00015
 778,-0.00048869,0.00036514,-0.00001828,-0.00010938,-0.00000794,0.00128
 055,-0.00039021,-0.00086578,0.00007082,-0.00011598,-0.00006864,-0.0054
 8924,-0.00795112,-0.00192714,0.00088413,-0.00037992,-0.00023668,-0.001
 02828,0.00100202,0.00016570,0.00033660,-0.00004928,0.00007622,-0.00279
 721,0.00484675,-0.00120157,0.00128682,0.00115208,0.00092381,0.06661333
 ,0.32042130,0.00893053,-0.02952338,-0.08169851,-0.00105155,-0.00157065
 ,-0.00043192,-0.00374090,0.00443061,0.00044124,0.00094931,0.00064236,-
 0.00365660,-0.00919494,0.00783956,0.00398774,-0.00964014,0.00850039,0.
 00500932,-0.00013614,-0.00005413,0.00033358,0.00146433,0.00127378,0.00
 176438,-0.00061331,0.00012369,0.00054011,-0.00235177,-0.00120800,0.003
 59089,0.03081899,-0.02498945,-0.00046991,-0.00016985,-0.00009061,-0.00
 022400,0.00005564,-0.00005215,0.00010259,0.00022724,0.00063280,0.00033
 445,0.00125498,-0.00125371,0.00151884,-0.00023072,0.00014327,0.0000582
 3,-0.00040419,-0.00013326,0.00290638,-0.00058920,-0.00173408,-0.000015
 20,-0.00092316,0.00022164,0.00026038,0.00011587,0.00005574,-0.00008668
 ,0.00063159,0.00005174,0.00188083,0.00055765,0.00026892,-0.00202895,0.
 09043865,0.12360911,0.12924697,-0.03543156,-0.01337357,-0.01186271,-0.
 00064935,-0.00120211,-0.00090696,0.00031540,-0.00154150,0.00038890,-0.
 00058472,0.00004665,0.00006768,0.00092719,0.00135823,-0.00119830,-0.00
 435455,0.00498893,0.00255971,0.00008460,-0.00001330,-0.00002131,0.0003
 6207,0.00010917,0.00007790,-0.00003281,0.00008759,0.00014555,0.0001139
 5,0.00034812,-0.00011802,0.00197493,-0.00142383,-0.00003171,0.00348308
 ,0.00171469,-0.00024662,-0.00084427,0.00002216,-0.00004938,-0.00036147
 ,0.00019716,-0.00000496,0.00031816,-0.00040593,-0.00007884,-0.00004593
 ,0.00005361,0.00001773,-0.00617208,0.00034057,0.00028492,0.00005445,-0
 .00153664,0.00047964,-0.00033381,0.00019132,0.00007459,-0.00007343,0.0
 0006262,-0.00001643,0.00155808,0.00095994,-0.00016277,-0.00079630,-0.0
 0084994,0.00012315,-0.31803480,-0.14632190,-0.10639894,0.35852318,0.02
 771045,0.01146750,0.00822545,0.00040109,0.00133015,0.00066013,-0.00229
 229,-0.00107339,0.00012290,0.00078776,0.00104981,-0.00078723,0.0034090
 8,0.00103436,0.00118771,0.00415848,-0.00498883,-0.00156608,-0.00016512
 ,-0.00010243,0.00013030,-0.00025551,-0.00005169,0.00006780,0.00001349,
 -0.00016745,-0.00009457,-0.00005792,0.00002734,0.00030895,0.00061551,-
 0.00043090,-0.00097977,0.00741179,-0.00406595,-0.00028185,-0.00120404,
 0.00049970,-0.00038971,-0.00040383,0.00018194,0.00005874,-0.00018625,-
 0.00045109,0.00024345,-0.00011095,0.00011462,0.00003192,-0.00191118,0.
 00573231,0.00043344,-0.00158305,-0.00029919,0.00053755,0.00098768,-0.0
 0039618,0.00009955,-0.00013114,-0.00008310,0.00000393,-0.00116364,0.00
 004069,0.00021499,0.00063502,0.00092672,-0.00059916,-0.19285337,-0.143
 95745,-0.08718418,0.15618795,0.13366252,0.00997649,0.00164772,0.003118
 28,0.00014541,0.00003145,0.00068544,0.00110843,-0.00041098,-0.00033569
 ,-0.00034641,-0.00012300,0.00080756,-0.00142441,0.00023147,0.00097709,
 0.00147143,-0.00033459,-0.00045795,0.00008159,0.00000325,-0.00011044,0
 .00014554,-0.00003308,0.00014998,-0.00006946,0.00013015,-0.00008814,-0
 .00010837,0.00029667,-0.00088511,0.00117162,0.00027873,0.00031628,-0.0
 0017667,0.00074241,0.00040607,-0.00016135,-0.00003804,-0.00008928,0.00
 011918,-0.00033093,-0.00020656,-0.00010664,0.00006509,-0.00046101,0.00
 007507,-0.00003740,0.00002138,0.00019044,-0.00238660,-0.00392393,0.000
 91275,0.00336244,-0.00032643,0.00034011,-0.00008155,-0.00008679,-0.000
 05114,-0.00001812,0.00000264,0.00082798,-0.00007193,0.00011356,-0.0007
 0433,-0.00072739,-0.00032887,-0.13029439,-0.08175152,-0.06336417,0.116
 87716,0.07955575,0.06406607\\0.00000377,-0.00000913,-0.00000563,-0.000
 01024,-0.00000402,0.00000157,-0.00000335,-0.00001799,0.00000759,0.0000
 0918,-0.00000865,-0.00001307,-0.00002309,0.00003182,-0.00001556,-0.000
 00481,0.00000335,0.00000823,-0.00000634,0.00000077,0.00001782,-0.00000
 258,0.00000728,-0.00000141,0.00000470,-0.00000709,0.00000787,-0.000011
 04,0.00000634,0.00000114,0.00000617,-0.00000478,-0.00000036,-0.0000173
 3,0.00000475,0.00000858,-0.00000241,0.00000547,0.00000109,-0.00000388,
 0.00000303,-0.00000475,0.00000146,0.00000536,0.00003064,0.00000886,-0.
 00001427,0.00001419,0.00000866,-0.00000890,-0.00002577,0.00000298,0.00
 001439,-0.00000838,-0.00000062,0.00000139,0.00001417,0.00000415,-0.000
 00563,0.00000960,0.00001709,-0.00000284,-0.00000225,0.00000854,-0.0000
 0574,-0.00001378,-0.00000176,-0.00000628,-0.00001478,0.00001190,0.0000
 1138,-0.00001674\\\@


 CHARLIE BROWN.."I CAN'T GET THAT STUPID KITE IN THE
 AIR... I CAN'T... I C A N N O T..."
 LUCY.."OH COME NOW CHARLIE BROWN...THAT'S NO WAY TO TALK...
 THE TROUBLE WITH YOU IS YOU DON'T BELIEVE IN YOURSELF... YOU
 DON'T BELIEVE IN YOUR OWN ABILITIES...  YOU'VE GOT TO SAY TO
 YOURSELF...'I BELIEVE I CAN FLY THIS KITE.'... GO AHEAD SAY
 IT...."
 CHARLIE BROWN.."I BELIEVE THAT I CAN FLY THIS STUPID
 KITE.....I BELIEVE THAT I CAN FLY THIS KITE........
 I  A C T U A L L Y  B E L I E V E  T H A T  I  C A N ******"
 LUCY.."I'LL BET YOU TEN-TO-ONE YOU'RE WRONG......."    SCHULZ
 Job cpu time:       0 days  0 hours 20 minutes 48.7 seconds.
 File lengths (MBytes):  RWF=    129 Int=      0 D2E=      0 Chk=      5 Scr=      1
 Normal termination of Gaussian 09 at Thu Jan 12 12:15:05 2017.
