 Entering Gaussian System, Link 0=g09
 Initial command:
 /usr/local/gaussian/g09.D01/g09/l1.exe "/nqs/iawad/Gau-32105.inp" -scrdir="/nqs/iawad/"
 Entering Link 1 = /usr/local/gaussian/g09.D01/g09/l1.exe PID=     32106.
  
 Copyright (c) 1988,1990,1992,1993,1995,1998,2003,2009,2013,
            Gaussian, Inc.  All Rights Reserved.
  
 This is part of the Gaussian(R) 09 program.  It is based on
 the Gaussian(R) 03 system (copyright 2003, Gaussian, Inc.),
 the Gaussian(R) 98 system (copyright 1998, Gaussian, Inc.),
 the Gaussian(R) 94 system (copyright 1995, Gaussian, Inc.),
 the Gaussian 92(TM) system (copyright 1992, Gaussian, Inc.),
 the Gaussian 90(TM) system (copyright 1990, Gaussian, Inc.),
 the Gaussian 88(TM) system (copyright 1988, Gaussian, Inc.),
 the Gaussian 86(TM) system (copyright 1986, Carnegie Mellon
 University), and the Gaussian 82(TM) system (copyright 1983,
 Carnegie Mellon University). Gaussian is a federally registered
 trademark of Gaussian, Inc.
  
 This software contains proprietary and confidential information,
 including trade secrets, belonging to Gaussian, Inc.
  
 This software is provided under written license and may be
 used, copied, transmitted, or stored only in accord with that
 written license.
  
 The following legend is applicable only to US Government
 contracts under FAR:
  
                    RESTRICTED RIGHTS LEGEND
  
 Use, reproduction and disclosure by the US Government is
 subject to restrictions as set forth in subparagraphs (a)
 and (c) of the Commercial Computer Software - Restricted
 Rights clause in FAR 52.227-19.
  
 Gaussian, Inc.
 340 Quinnipiac St., Bldg. 40, Wallingford CT 06492
  
  
 ---------------------------------------------------------------
 Warning -- This program may not be used in any manner that
 competes with the business of Gaussian, Inc. or will provide
 assistance to any competitor of Gaussian, Inc.  The licensee
 of this program is prohibited from giving any competitor of
 Gaussian, Inc. access to this program.  By using this program,
 the user acknowledges that Gaussian, Inc. is engaged in the
 business of creating and licensing software in the field of
 computational chemistry and represents and warrants to the
 licensee that it is not a competitor of Gaussian, Inc. and that
 it will not use this program in any manner prohibited above.
 ---------------------------------------------------------------
  

 Cite this work as:
 Gaussian 09, Revision D.01,
 M. J. Frisch, G. W. Trucks, H. B. Schlegel, G. E. Scuseria, 
 M. A. Robb, J. R. Cheeseman, G. Scalmani, V. Barone, B. Mennucci, 
 G. A. Petersson, H. Nakatsuji, M. Caricato, X. Li, H. P. Hratchian, 
 A. F. Izmaylov, J. Bloino, G. Zheng, J. L. Sonnenberg, M. Hada, 
 M. Ehara, K. Toyota, R. Fukuda, J. Hasegawa, M. Ishida, T. Nakajima, 
 Y. Honda, O. Kitao, H. Nakai, T. Vreven, J. A. Montgomery, Jr., 
 J. E. Peralta, F. Ogliaro, M. Bearpark, J. J. Heyd, E. Brothers, 
 K. N. Kudin, V. N. Staroverov, T. Keith, R. Kobayashi, J. Normand, 
 K. Raghavachari, A. Rendell, J. C. Burant, S. S. Iyengar, J. Tomasi, 
 M. Cossi, N. Rega, J. M. Millam, M. Klene, J. E. Knox, J. B. Cross, 
 V. Bakken, C. Adamo, J. Jaramillo, R. Gomperts, R. E. Stratmann, 
 O. Yazyev, A. J. Austin, R. Cammi, C. Pomelli, J. W. Ochterski, 
 R. L. Martin, K. Morokuma, V. G. Zakrzewski, G. A. Voth, 
 P. Salvador, J. J. Dannenberg, S. Dapprich, A. D. Daniels, 
 O. Farkas, J. B. Foresman, J. V. Ortiz, J. Cioslowski, 
 and D. J. Fox, Gaussian, Inc., Wallingford CT, 2013.
 
 ******************************************
 Gaussian 09:  AM64L-G09RevD.01 24-Apr-2013
                14-Jun-2016 
 ******************************************
 %NPROCS=4
 Will use up to    4 processors via shared memory.
 %rwf=/nqs/iawad//boat3_Alpha_optfreq_B3LYP_6-31G_d.rwf
 %nosave
 %chk=/home/iawad/scratch/MAIN/PRO_Halides/direct/optfreq/boat3_Alpha/boat3_Alpha
 _optfreq_B3LYP_6-31G_d.chk
 -----------------------------------------
 # opt=(MaxCycle=1000) freq B3LYP/6-31G(d)
 -----------------------------------------
 1/6=1000,14=-1,18=20,19=15,26=3,38=1/1,3;
 2/9=110,12=2,17=6,18=5,40=1/2;
 3/5=1,6=6,7=1,11=2,16=1,25=1,30=1,71=1,74=-5/1,2,3;
 4//1;
 5/5=2,38=5/2;
 6/7=2,8=2,9=2,10=2,28=1/1;
 7//1,2,3,16;
 1/6=1000,14=-1,18=20,19=15,26=3/3(2);
 2/9=110/2;
 99//99;
 2/9=110/2;
 3/5=1,6=6,7=1,11=2,16=1,25=1,30=1,71=1,74=-5/1,2,3;
 4/5=5,16=3,69=1/1;
 5/5=2,38=5/2;
 7//1,2,3,16;
 1/6=1000,14=-1,18=20,19=15,26=3/3(-5);
 2/9=110/2;
 6/7=2,8=2,9=2,10=2,19=2,28=1/1;
 99/9=1/99;
 -------------------------
 boat3_Alpha_B3LYP_6-31G_d
 -------------------------
 Symbolic Z-matrix:
 Charge =  0 Multiplicity = 1
 C
 C                    1    B1
 O                    1    B2       2    A1
 C                    2    B3       1    A2       3    D1       0
 C                    3    B4       1    A3       2    D2       0
 C                    2    B5       1    A4       5    D3       0
 H                    6    B6       2    A5       1    D4       0
 H                    2    B7       1    A6       5    D5       0
 H                    5    B8       3    A7       1    D6       0
 H                    1    B9       5    A8       3    D7       0
 C                    5    B10      3    A9       1    D8       0
 H                    11   B11      5    A10      3    D9       0
 H                    11   B12      5    A11      3    D10      0
 O                    11   B13      5    A12      3    D11      0
 H                    14   B14      11   A13      5    D12      0
 O                    2    B15      1    A14      5    D13      0
 H                    16   B16      2    A15      1    D14      0
 O                    6    B17      2    A16      1    D15      0
 H                    18   B18      6    A17      2    D16      0
 O                    1    B19      5    A18      3    D17      0
 H                    20   B20      1    A19      5    D18      0
 H                    4    B21      2    A20      1    D19      0
 O                    4    B22      2    A21      1    D20      0
 H                    23   B23      4    A22      2    D21      0
       Variables:
  B1                    2.5948                   
  B2                    2.51156                  
  B3                    1.53296                  
  B4                    1.45846                  
  B5                    1.52751                  
  B6                    1.09827                  
  B7                    1.0912                   
  B8                    1.1009                   
  B9                    1.0942                   
  B10                   1.54267                  
  B11                   1.09679                  
  B12                   1.08886                  
  B13                   1.42121                  
  B14                   0.97436                  
  B15                   1.44254                  
  B16                   0.9796                   
  B17                   1.43984                  
  B18                   0.97624                  
  B19                   1.43981                  
  B20                   0.98                     
  B21                   1.09425                  
  B22                   1.42746                  
  B23                   0.97893                  
  A1                   61.13983                  
  A2                   87.02589                  
  A3                   31.19479                  
  A4                   32.25879                  
  A5                  108.27358                  
  A6                  101.29501                  
  A7                  100.80037                  
  A8                  112.84256                  
  A9                  111.3441                   
  A10                 109.84165                  
  A11                 113.37716                  
  A12                 111.87172                  
  A13                 107.70226                  
  A14                 140.11441                  
  A15                 104.8561                   
  A16                 107.35148                  
  A17                 106.72191                  
  A18                 109.54729                  
  A19                 107.20949                  
  A20                 111.93901                  
  A21                 108.63018                  
  A22                 104.48916                  
  D1                  -14.60617                  
  D2                 -114.44377                  
  D3                  179.59811                  
  D4                  123.44434                  
  D5                   68.15983                  
  D6                 -111.81291                  
  D7                  179.55113                  
  D8                  140.378                    
  D9                   51.69763                  
  D10                 -65.76524                  
  D11                 172.31961                  
  D12                 -72.24251                  
  D13                -160.61026                  
  D14                 -63.08369                  
  D15                -124.4949                   
  D16                -176.84849                  
  D17                 -62.34005                  
  D18                  44.90545                  
  D19                 145.74844                  
  D20                 -95.36362                  
  D21                 -39.47313                  
 

 GradGradGradGradGradGradGradGradGradGradGradGradGradGradGradGradGradGrad
 Berny optimization.
 Initialization pass.
                           ----------------------------
                           !    Initial Parameters    !
                           ! (Angstroms and Degrees)  !
 --------------------------                            --------------------------
 ! Name  Definition              Value          Derivative Info.                !
 --------------------------------------------------------------------------------
 ! R1    R(1,5)                  1.4725         estimate D2E/DX2                !
 ! R2    R(1,6)                  1.5371         estimate D2E/DX2                !
 ! R3    R(1,10)                 1.0942         estimate D2E/DX2                !
 ! R4    R(1,20)                 1.4398         estimate D2E/DX2                !
 ! R5    R(2,4)                  1.533          estimate D2E/DX2                !
 ! R6    R(2,6)                  1.5275         estimate D2E/DX2                !
 ! R7    R(2,8)                  1.0912         estimate D2E/DX2                !
 ! R8    R(2,16)                 1.4425         estimate D2E/DX2                !
 ! R9    R(3,4)                  1.5371         estimate D2E/DX2                !
 ! R10   R(3,5)                  1.4585         estimate D2E/DX2                !
 ! R11   R(4,22)                 1.0942         estimate D2E/DX2                !
 ! R12   R(4,23)                 1.4275         estimate D2E/DX2                !
 ! R13   R(5,9)                  1.1009         estimate D2E/DX2                !
 ! R14   R(5,11)                 1.5427         estimate D2E/DX2                !
 ! R15   R(6,7)                  1.0983         estimate D2E/DX2                !
 ! R16   R(6,18)                 1.4398         estimate D2E/DX2                !
 ! R17   R(11,12)                1.0968         estimate D2E/DX2                !
 ! R18   R(11,13)                1.0889         estimate D2E/DX2                !
 ! R19   R(11,14)                1.4212         estimate D2E/DX2                !
 ! R20   R(14,15)                0.9744         estimate D2E/DX2                !
 ! R21   R(16,17)                0.9796         estimate D2E/DX2                !
 ! R22   R(18,19)                0.9762         estimate D2E/DX2                !
 ! R23   R(20,21)                0.98           estimate D2E/DX2                !
 ! R24   R(23,24)                0.9789         estimate D2E/DX2                !
 ! A1    A(5,1,6)              108.8295         estimate D2E/DX2                !
 ! A2    A(5,1,10)             112.8426         estimate D2E/DX2                !
 ! A3    A(5,1,20)             109.5473         estimate D2E/DX2                !
 ! A4    A(6,1,10)             111.5201         estimate D2E/DX2                !
 ! A5    A(6,1,20)             107.7269         estimate D2E/DX2                !
 ! A6    A(10,1,20)            106.2177         estimate D2E/DX2                !
 ! A7    A(4,2,6)              110.2902         estimate D2E/DX2                !
 ! A8    A(4,2,8)              111.5925         estimate D2E/DX2                !
 ! A9    A(4,2,16)             109.506          estimate D2E/DX2                !
 ! A10   A(6,2,8)              110.912          estimate D2E/DX2                !
 ! A11   A(6,2,16)             109.0769         estimate D2E/DX2                !
 ! A12   A(8,2,16)             105.3174         estimate D2E/DX2                !
 ! A13   A(4,3,5)              109.0161         estimate D2E/DX2                !
 ! A14   A(2,4,3)              115.6121         estimate D2E/DX2                !
 ! A15   A(2,4,22)             111.939          estimate D2E/DX2                !
 ! A16   A(2,4,23)             108.6302         estimate D2E/DX2                !
 ! A17   A(3,4,22)             106.4809         estimate D2E/DX2                !
 ! A18   A(3,4,23)             105.9958         estimate D2E/DX2                !
 ! A19   A(22,4,23)            107.7748         estimate D2E/DX2                !
 ! A20   A(1,5,3)              117.9408         estimate D2E/DX2                !
 ! A21   A(1,5,9)              103.5708         estimate D2E/DX2                !
 ! A22   A(1,5,11)             117.598          estimate D2E/DX2                !
 ! A23   A(3,5,9)              100.8004         estimate D2E/DX2                !
 ! A24   A(3,5,11)             111.3441         estimate D2E/DX2                !
 ! A25   A(9,5,11)             102.2173         estimate D2E/DX2                !
 ! A26   A(1,6,2)              115.7079         estimate D2E/DX2                !
 ! A27   A(1,6,7)              109.604          estimate D2E/DX2                !
 ! A28   A(1,6,18)             110.9582         estimate D2E/DX2                !
 ! A29   A(2,6,7)              108.2736         estimate D2E/DX2                !
 ! A30   A(2,6,18)             107.3515         estimate D2E/DX2                !
 ! A31   A(7,6,18)             104.2945         estimate D2E/DX2                !
 ! A32   A(5,11,12)            109.8416         estimate D2E/DX2                !
 ! A33   A(5,11,13)            113.3772         estimate D2E/DX2                !
 ! A34   A(5,11,14)            111.8717         estimate D2E/DX2                !
 ! A35   A(12,11,13)           105.2785         estimate D2E/DX2                !
 ! A36   A(12,11,14)           108.5541         estimate D2E/DX2                !
 ! A37   A(13,11,14)           107.6093         estimate D2E/DX2                !
 ! A38   A(11,14,15)           107.7023         estimate D2E/DX2                !
 ! A39   A(2,16,17)            104.8561         estimate D2E/DX2                !
 ! A40   A(6,18,19)            106.7219         estimate D2E/DX2                !
 ! A41   A(1,20,21)            107.2095         estimate D2E/DX2                !
 ! A42   A(4,23,24)            104.4892         estimate D2E/DX2                !
 ! D1    D(6,1,5,3)             55.2048         estimate D2E/DX2                !
 ! D2    D(6,1,5,9)            165.4619         estimate D2E/DX2                !
 ! D3    D(6,1,5,11)           -82.7096         estimate D2E/DX2                !
 ! D4    D(10,1,5,3)           179.5511         estimate D2E/DX2                !
 ! D5    D(10,1,5,9)           -70.1918         estimate D2E/DX2                !
 ! D6    D(10,1,5,11)           41.6367         estimate D2E/DX2                !
 ! D7    D(20,1,5,3)           -62.3401         estimate D2E/DX2                !
 ! D8    D(20,1,5,9)            47.917          estimate D2E/DX2                !
 ! D9    D(20,1,5,11)          159.7455         estimate D2E/DX2                !
 ! D10   D(5,1,6,2)             -0.4134         estimate D2E/DX2                !
 ! D11   D(5,1,6,7)           -123.1573         estimate D2E/DX2                !
 ! D12   D(5,1,6,18)           122.1919         estimate D2E/DX2                !
 ! D13   D(10,1,6,2)          -125.5374         estimate D2E/DX2                !
 ! D14   D(10,1,6,7)           111.7188         estimate D2E/DX2                !
 ! D15   D(10,1,6,18)           -2.9321         estimate D2E/DX2                !
 ! D16   D(20,1,6,2)           118.2804         estimate D2E/DX2                !
 ! D17   D(20,1,6,7)            -4.4635         estimate D2E/DX2                !
 ! D18   D(20,1,6,18)         -119.1143         estimate D2E/DX2                !
 ! D19   D(5,1,20,21)           44.9054         estimate D2E/DX2                !
 ! D20   D(6,1,20,21)          -73.3276         estimate D2E/DX2                !
 ! D21   D(10,1,20,21)         167.0653         estimate D2E/DX2                !
 ! D22   D(6,2,4,3)             46.3676         estimate D2E/DX2                !
 ! D23   D(6,2,4,22)           168.5259         estimate D2E/DX2                !
 ! D24   D(6,2,4,23)           -72.5862         estimate D2E/DX2                !
 ! D25   D(8,2,4,3)            -77.3839         estimate D2E/DX2                !
 ! D26   D(8,2,4,22)            44.7744         estimate D2E/DX2                !
 ! D27   D(8,2,4,23)           163.6623         estimate D2E/DX2                !
 ! D28   D(16,2,4,3)           166.4101         estimate D2E/DX2                !
 ! D29   D(16,2,4,22)          -71.4316         estimate D2E/DX2                !
 ! D30   D(16,2,4,23)           47.4564         estimate D2E/DX2                !
 ! D31   D(4,2,6,1)            -46.4169         estimate D2E/DX2                !
 ! D32   D(4,2,6,7)             77.0274         estimate D2E/DX2                !
 ! D33   D(4,2,6,18)          -170.9118         estimate D2E/DX2                !
 ! D34   D(8,2,6,1)             77.7277         estimate D2E/DX2                !
 ! D35   D(8,2,6,7)           -158.8279         estimate D2E/DX2                !
 ! D36   D(8,2,6,18)           -46.7672         estimate D2E/DX2                !
 ! D37   D(16,2,6,1)          -166.7178         estimate D2E/DX2                !
 ! D38   D(16,2,6,7)           -43.2735         estimate D2E/DX2                !
 ! D39   D(16,2,6,18)           68.7873         estimate D2E/DX2                !
 ! D40   D(4,2,16,17)         -172.8412         estimate D2E/DX2                !
 ! D41   D(6,2,16,17)          -52.0592         estimate D2E/DX2                !
 ! D42   D(8,2,16,17)           67.0389         estimate D2E/DX2                !
 ! D43   D(5,3,4,2)              0.8156         estimate D2E/DX2                !
 ! D44   D(5,3,4,22)          -124.2077         estimate D2E/DX2                !
 ! D45   D(5,3,4,23)           121.2107         estimate D2E/DX2                !
 ! D46   D(4,3,5,1)            -55.298          estimate D2E/DX2                !
 ! D47   D(4,3,5,9)           -167.1109         estimate D2E/DX2                !
 ! D48   D(4,3,5,11)            85.08           estimate D2E/DX2                !
 ! D49   D(2,4,23,24)          -39.4731         estimate D2E/DX2                !
 ! D50   D(3,4,23,24)         -164.3068         estimate D2E/DX2                !
 ! D51   D(22,4,23,24)          82.0014         estimate D2E/DX2                !
 ! D52   D(1,5,11,12)         -167.7753         estimate D2E/DX2                !
 ! D53   D(1,5,11,13)           74.7618         estimate D2E/DX2                !
 ! D54   D(1,5,11,14)          -47.1533         estimate D2E/DX2                !
 ! D55   D(3,5,11,12)           51.6976         estimate D2E/DX2                !
 ! D56   D(3,5,11,13)          -65.7652         estimate D2E/DX2                !
 ! D57   D(3,5,11,14)          172.3196         estimate D2E/DX2                !
 ! D58   D(9,5,11,12)          -55.1878         estimate D2E/DX2                !
 ! D59   D(9,5,11,13)         -172.6507         estimate D2E/DX2                !
 ! D60   D(9,5,11,14)           65.4341         estimate D2E/DX2                !
 ! D61   D(1,6,18,19)           55.8263         estimate D2E/DX2                !
 ! D62   D(2,6,18,19)         -176.8485         estimate D2E/DX2                !
 ! D63   D(7,6,18,19)          -62.1016         estimate D2E/DX2                !
 ! D64   D(5,11,14,15)         -72.2425         estimate D2E/DX2                !
 ! D65   D(12,11,14,15)         49.1258         estimate D2E/DX2                !
 ! D66   D(13,11,14,15)        162.5887         estimate D2E/DX2                !
 --------------------------------------------------------------------------------
 Trust Radius=3.00D-01 FncErr=1.00D-07 GrdErr=1.00D-06
 Number of steps in this run=    144 maximum allowed number of steps=    144.
 GradGradGradGradGradGradGradGradGradGradGradGradGradGradGradGradGradGrad

                          Input orientation:                          
 ---------------------------------------------------------------------
 Center     Atomic      Atomic             Coordinates (Angstroms)
 Number     Number       Type             X           Y           Z
 ---------------------------------------------------------------------
      1          6           0        0.000000    0.000000    0.000000
      2          6           0        0.000000    0.000000    2.594796
      3          8           0        2.199629    0.000000    1.212266
      4          6           0        1.481418   -0.386051    2.515258
      5          6           0        1.257872    0.687700    0.336325
      6          6           0       -0.718093   -0.386076    1.303064
      7          1           0       -0.896001   -1.469730    1.318627
      8          1           0       -0.127183    1.062481    2.808519
      9          1           0        1.816747    0.682445   -0.612154
     10          1           0       -0.646493    0.592867   -0.654088
     11          6           0        1.183819    2.193510    0.663268
     12          1           0        2.193701    2.621089    0.679258
     13          1           0        0.768378    2.401901    1.647953
     14          8           0        0.406621    2.904799   -0.290604
     15          1           0        0.922191    2.953277   -1.115963
     16          8           0       -0.618299   -0.688040    3.701692
     17          1           0       -1.573766   -0.488148    3.619553
     18          8           0       -2.036041    0.191350    1.355363
     19          1           0       -2.503715   -0.102784    0.550499
     20          8           0        0.291559   -1.214486   -0.716292
     21          1           0        1.026792   -1.659487   -0.245339
     22          1           0        2.062686    0.052823    3.331891
     23          8           0        1.588837   -1.805760    2.617869
     24          1           0        0.924027   -2.053574    3.292348
 ---------------------------------------------------------------------
                    Distance matrix (angstroms):
                    1          2          3          4          5
     1  C    0.000000
     2  C    2.594796   0.000000
     3  O    2.511565   2.598029   0.000000
     4  C    2.944513   1.532958   1.537092   0.000000
     5  C    1.472511   2.675045   1.458462   2.439399   0.000000
     6  C    1.537104   1.527508   2.944554   2.511426   2.447860
     7  H    2.168341   2.142786   3.428461   2.873745   3.202904
     8  H    3.005465   1.091201   3.015119   2.184455   2.858423
     9  H    2.034952   3.748443   1.985154   3.321872   1.100899
    10  H    1.094201   3.365217   3.454733   3.940944   2.148608
    11  C    2.579310   3.153365   2.478862   3.189446   1.542672
    12  H    3.484799   3.918127   2.674741   3.594598   2.175172
    13  H    3.012521   2.693704   2.829741   3.005548   2.213246
    14  O    2.947482   4.114453   3.729793   4.456203   2.456256
    15  H    3.289021   4.831357   3.971693   4.964838   2.711948
    16  O    3.815523   1.442537   3.822481   2.430562   4.091256
    17  H    3.976958   1.940401   4.502425   3.250237   4.492258
    18  O    2.453383   2.391291   4.242404   3.748502   3.483485
    19  H    2.565580   3.233930   4.750784   4.452168   3.849711
    20  O    1.439812   3.538825   2.972381   3.541891   2.379092
    21  H    1.966822   3.445948   2.500811   3.073958   2.429201
    22  H    3.919051   2.191067   2.124701   1.094245   3.166104
    23  O    3.555054   2.405349   2.368450   1.427460   3.395928
    24  H    3.988803   2.357451   3.189211   1.922287   4.045258
                    6          7          8          9         10
     6  C    0.000000
     7  H    1.098271   0.000000
     8  H    2.171148   3.036932   0.000000
     9  H    3.351896   3.964690   3.952757   0.000000
    10  H    2.189498   2.864989   3.532685   2.465225   0.000000
    11  C    3.268160   4.263153   2.756819   2.076202   2.765416
    12  H    4.232106   5.166222   3.514187   2.359699   3.736068
    13  H    3.178264   4.227072   1.985696   3.027159   3.251747
    14  O    3.825522   4.839726   3.644673   2.651548   2.566359
    15  H    4.437737   5.366195   4.480832   2.492135   2.871522
    16  O    2.419619   2.523323   2.025655   5.139741   4.540301
    17  H    2.471582   2.591743   2.270425   5.547360   4.504712
    18  O    1.439842   2.015001   2.552308   4.353880   2.475873
    19  H    1.958330   2.245731   3.479138   4.542547   2.320394
    20  O    2.404883   2.369883   4.217134   2.436266   2.037237
    21  H    2.657771   2.485785   4.250507   2.498644   2.835499
    22  H    3.470087   3.889117   2.467560   4.001549   4.849673
    23  O    3.011003   2.824069   3.347816   4.083645   4.632042
    24  H    3.071540   2.747535   3.323994   4.850554   5.004452
                   11         12         13         14         15
    11  C    0.000000
    12  H    1.096787   0.000000
    13  H    1.088863   1.737228   0.000000
    14  O    1.421211   2.052993   2.035136   0.000000
    15  H    1.952270   2.224839   2.822571   0.974362   0.000000
    16  O    4.558835   5.290821   3.960865   5.467849   6.232343
    17  H    4.851308   5.701447   4.210134   5.542865   6.363829
    18  O    3.854237   4.924578   3.582864   4.004823   4.742028
    19  H    4.345525   5.431554   4.264322   4.268848   4.883998
    20  O    3.783352   4.503037   4.346869   4.142820   4.234110
    21  H    3.961793   4.532095   4.488452   4.606448   4.695372
    22  H    3.532208   3.694538   3.166867   4.898856   5.431093
    23  O    4.469750   4.870427   4.395258   5.660937   6.085586
    24  H    5.001727   5.503888   4.751791   6.139277   6.670965
                   16         17         18         19         20
    16  O    0.000000
    17  H    0.979603   0.000000
    18  O    2.878990   2.408729   0.000000
    19  H    3.718513   3.229923   0.976237   0.000000
    20  O    4.541318   4.775621   3.418457   3.264077   0.000000
    21  H    4.385098   4.803366   3.920305   3.939690   0.979995
    22  H    2.805942   3.687708   4.552518   5.349054   4.596820
    23  O    2.701003   3.569528   4.326905   4.891127   3.626178
    24  H    2.100242   2.965906   4.189702   4.803409   4.144066
                   21         22         23         24
    21  H    0.000000
    22  H    4.098982   0.000000
    23  O    2.921515   2.046629   0.000000
    24  H    3.561052   2.394790   0.978930   0.000000
 Stoichiometry    C6H12O6
 Framework group  C1[X(C6H12O6)]
 Deg. of freedom    66
 Full point group                 C1      NOp   1
 Largest Abelian subgroup         C1      NOp   1
 Largest concise Abelian subgroup C1      NOp   1
                         Standard orientation:                         
 ---------------------------------------------------------------------
 Center     Atomic      Atomic             Coordinates (Angstroms)
 Number     Number       Type             X           Y           Z
 ---------------------------------------------------------------------
      1          6           0       -0.785935    0.451645    0.984424
      2          6           0        1.088111    0.301241   -0.803953
      3          8           0       -0.162541   -1.802266    0.068333
      4          6           0        1.124171   -1.205514   -0.524045
      5          6           0       -1.156290   -0.744054    0.208906
      6          6           0        0.500833    1.048272    0.392011
      7          1           0        1.271610    1.109701    1.171965
      8          1           0        0.532346    0.527163   -1.715437
      9          1           0       -1.901792   -1.244444    0.845944
     10          1           0       -1.588616    1.193878    1.029900
     11          6           0       -1.938762   -0.530684   -1.103363
     12          1           0       -2.334622   -1.489061   -1.460786
     13          1           0       -1.322109   -0.153361   -1.917604
     14          8           0       -3.023749    0.371170   -0.932177
     15          1           0       -3.712017   -0.087700   -0.417292
     16          8           0        2.427726    0.778325   -1.046310
     17          1           0        2.341584    1.752691   -1.099346
     18          8           0        0.295828    2.414508   -0.013597
     19          1           0       -0.031238    2.894416    0.771104
     20          8           0       -0.508303    0.075642    2.346262
     21          1           0        0.051083   -0.728477    2.316754
     22          1           0        1.347989   -1.783608   -1.425757
     23          8           0        2.154329   -1.467825    0.428641
     24          1           0        2.886697   -0.873077    0.167458
 ---------------------------------------------------------------------
 Rotational constants (GHZ):      1.1430733      0.7773601      0.6965927
 Standard basis: 6-31G(d) (6D, 7F)
 There are   204 symmetry adapted cartesian basis functions of A   symmetry.
 There are   204 symmetry adapted basis functions of A   symmetry.
   204 basis functions,   384 primitive gaussians,   204 cartesian basis functions
    48 alpha electrons       48 beta electrons
       nuclear repulsion energy       839.8612380568 Hartrees.
 NAtoms=   24 NActive=   24 NUniq=   24 SFac= 1.00D+00 NAtFMM=   60 NAOKFM=F Big=F
 Integral buffers will be    131072 words long.
 Raffenetti 2 integral format.
 Two-electron integral symmetry is turned on.
 One-electron integrals computed using PRISM.
 NBasis=   204 RedAO= T EigKep=  1.30D-03  NBF=   204
 NBsUse=   204 1.00D-06 EigRej= -1.00D+00 NBFU=   204
 ExpMin= 1.61D-01 ExpMax= 5.48D+03 ExpMxC= 8.25D+02 IAcc=1 IRadAn=         1 AccDes= 0.00D+00
 Harris functional with IExCor=  402 and IRadAn=       1 diagonalized for initial guess.
 HarFok:  IExCor=  402 AccDes= 0.00D+00 IRadAn=         1 IDoV= 1 UseB2=F ITyADJ=14
 ICtDFT=  3500011 ScaDFX=  1.000000  1.000000  1.000000  1.000000
 FoFCou: FMM=F IPFlag=           0 FMFlag=      100000 FMFlg1=           0
         NFxFlg=           0 DoJE=T BraDBF=F KetDBF=T FulRan=T
         wScrn=  0.000000 ICntrl=     500 IOpCl=  0 I1Cent=   200000004 NGrid=           0
         NMat0=    1 NMatS0=      1 NMatT0=    0 NMatD0=    1 NMtDS0=    0 NMtDT0=    0
 Petite list used in FoFCou.
 Requested convergence on RMS density matrix=1.00D-08 within 128 cycles.
 Requested convergence on MAX density matrix=1.00D-06.
 Requested convergence on             energy=1.00D-06.
 No special actions if energy rises.
 Integral accuracy reduced to 1.0D-05 until final iterations.
 Initial convergence to 1.0D-05 achieved.  Increase integral accuracy.
 SCF Done:  E(RB3LYP) =  -687.104327763     A.U. after   14 cycles
            NFock= 14  Conv=0.35D-08     -V/T= 2.0087

 **********************************************************************

            Population analysis using the SCF density.

 **********************************************************************

 Orbital symmetries:
       Occupied  (A) (A) (A) (A) (A) (A) (A) (A) (A) (A) (A) (A)
                 (A) (A) (A) (A) (A) (A) (A) (A) (A) (A) (A) (A)
                 (A) (A) (A) (A) (A) (A) (A) (A) (A) (A) (A) (A)
                 (A) (A) (A) (A) (A) (A) (A) (A) (A) (A) (A) (A)
       Virtual   (A) (A) (A) (A) (A) (A) (A) (A) (A) (A) (A) (A)
                 (A) (A) (A) (A) (A) (A) (A) (A) (A) (A) (A) (A)
                 (A) (A) (A) (A) (A) (A) (A) (A) (A) (A) (A) (A)
                 (A) (A) (A) (A) (A) (A) (A) (A) (A) (A) (A) (A)
                 (A) (A) (A) (A) (A) (A) (A) (A) (A) (A) (A) (A)
                 (A) (A) (A) (A) (A) (A) (A) (A) (A) (A) (A) (A)
                 (A) (A) (A) (A) (A) (A) (A) (A) (A) (A) (A) (A)
                 (A) (A) (A) (A) (A) (A) (A) (A) (A) (A) (A) (A)
                 (A) (A) (A) (A) (A) (A) (A) (A) (A) (A) (A) (A)
                 (A) (A) (A) (A) (A) (A) (A) (A) (A) (A) (A) (A)
                 (A) (A) (A) (A) (A) (A) (A) (A) (A) (A) (A) (A)
                 (A) (A) (A) (A) (A) (A) (A) (A) (A) (A) (A) (A)
                 (A) (A) (A) (A) (A) (A) (A) (A) (A) (A) (A) (A)
 The electronic state is 1-A.
 Alpha  occ. eigenvalues --  -19.17693 -19.17009 -19.15896 -19.15845 -19.15486
 Alpha  occ. eigenvalues --  -19.14409 -10.30163 -10.25749 -10.24282 -10.24273
 Alpha  occ. eigenvalues --  -10.24239 -10.24109  -1.06237  -1.03700  -1.03202
 Alpha  occ. eigenvalues --   -1.02616  -1.01151  -0.99522  -0.79243  -0.76514
 Alpha  occ. eigenvalues --   -0.70058  -0.65732  -0.63505  -0.57230  -0.55160
 Alpha  occ. eigenvalues --   -0.54068  -0.52259  -0.50846  -0.49063  -0.47696
 Alpha  occ. eigenvalues --   -0.47306  -0.46098  -0.45086  -0.42822  -0.41962
 Alpha  occ. eigenvalues --   -0.39388  -0.38110  -0.36905  -0.36495  -0.34763
 Alpha  occ. eigenvalues --   -0.33975  -0.32668  -0.30580  -0.30161  -0.28739
 Alpha  occ. eigenvalues --   -0.27654  -0.26891  -0.25904
 Alpha virt. eigenvalues --    0.04581   0.05230   0.06292   0.07310   0.09406
 Alpha virt. eigenvalues --    0.09731   0.11839   0.12463   0.13846   0.14761
 Alpha virt. eigenvalues --    0.15273   0.17446   0.17992   0.19002   0.19838
 Alpha virt. eigenvalues --    0.20310   0.22429   0.23931   0.24301   0.25805
 Alpha virt. eigenvalues --    0.27236   0.29800   0.34041   0.36541   0.49912
 Alpha virt. eigenvalues --    0.51096   0.53084   0.55805   0.56904   0.58061
 Alpha virt. eigenvalues --    0.60131   0.61036   0.63687   0.64768   0.67003
 Alpha virt. eigenvalues --    0.68142   0.69299   0.70911   0.72827   0.75623
 Alpha virt. eigenvalues --    0.77139   0.77794   0.80255   0.80439   0.81068
 Alpha virt. eigenvalues --    0.82337   0.84338   0.85241   0.87188   0.87565
 Alpha virt. eigenvalues --    0.88112   0.89244   0.90386   0.91736   0.92862
 Alpha virt. eigenvalues --    0.94779   0.95806   0.98030   1.00553   1.01682
 Alpha virt. eigenvalues --    1.03952   1.05583   1.05971   1.07568   1.07986
 Alpha virt. eigenvalues --    1.09330   1.11354   1.13285   1.17869   1.19533
 Alpha virt. eigenvalues --    1.20437   1.23258   1.25711   1.30271   1.30961
 Alpha virt. eigenvalues --    1.32896   1.37963   1.38900   1.42583   1.43519
 Alpha virt. eigenvalues --    1.50754   1.53707   1.55669   1.57774   1.59856
 Alpha virt. eigenvalues --    1.62377   1.64448   1.66476   1.71434   1.72044
 Alpha virt. eigenvalues --    1.72853   1.74096   1.74883   1.79175   1.79691
 Alpha virt. eigenvalues --    1.81939   1.82694   1.84608   1.86544   1.87972
 Alpha virt. eigenvalues --    1.90461   1.91701   1.95226   1.96907   1.97767
 Alpha virt. eigenvalues --    1.98180   2.00477   2.03643   2.06707   2.08738
 Alpha virt. eigenvalues --    2.09481   2.13449   2.15042   2.15854   2.22120
 Alpha virt. eigenvalues --    2.24888   2.28090   2.30323   2.32575   2.33725
 Alpha virt. eigenvalues --    2.37040   2.39495   2.42452   2.43622   2.45255
 Alpha virt. eigenvalues --    2.47289   2.48286   2.50577   2.51603   2.53780
 Alpha virt. eigenvalues --    2.55707   2.57852   2.63133   2.66103   2.72817
 Alpha virt. eigenvalues --    2.75942   2.81505   2.84092   2.90725   2.91413
 Alpha virt. eigenvalues --    2.94070   2.98439   3.02527   3.05021   3.72701
 Alpha virt. eigenvalues --    3.76739   3.79697   3.82832   3.92055   4.06089
 Alpha virt. eigenvalues --    4.31188   4.34347   4.48475   4.54808   4.57107
 Alpha virt. eigenvalues --    4.78340
          Condensed to atoms (all electrons):
               1          2          3          4          5          6
     1  C    5.046698  -0.028419  -0.030009  -0.009886   0.289537   0.235127
     2  C   -0.028419   5.058492  -0.019428   0.291417  -0.007130   0.284266
     3  O   -0.030009  -0.019428   8.280408   0.225230   0.196106  -0.011440
     4  C   -0.009886   0.291417   0.225230   4.714165  -0.033959  -0.024710
     5  C    0.289537  -0.007130   0.196106  -0.033959   5.096751  -0.028627
     6  C    0.235127   0.284266  -0.011440  -0.024710  -0.028627   5.110840
     7  H   -0.047872  -0.036682   0.000262  -0.007659   0.002759   0.348332
     8  H    0.001272   0.346384   0.002221  -0.042234  -0.004793  -0.045699
     9  H   -0.054793   0.000368  -0.040022   0.005997   0.355045   0.008485
    10  H    0.362021   0.002090   0.002515   0.000386  -0.029448  -0.049275
    11  C   -0.050170  -0.005873  -0.033888  -0.007911   0.274679  -0.002901
    12  H    0.006343   0.000081   0.005419  -0.000022  -0.037963  -0.000191
    13  H   -0.006442  -0.000424   0.001228   0.002152  -0.044066   0.001317
    14  O   -0.001912   0.000024   0.001384   0.000107  -0.045055   0.000263
    15  H   -0.001223  -0.000002   0.000013   0.000008  -0.001712   0.000016
    16  O    0.003955   0.208384   0.000533  -0.034675   0.000005  -0.035531
    17  H    0.000593  -0.027874  -0.000041   0.005285  -0.000039  -0.006429
    18  O   -0.032320  -0.035668   0.000035   0.002175   0.002173   0.184338
    19  H   -0.002219   0.006537   0.000002  -0.000194   0.000395  -0.027879
    20  O    0.228866   0.002640  -0.003504   0.000940  -0.033979  -0.049137
    21  H   -0.031414  -0.001393   0.012273   0.000597  -0.006092  -0.002683
    22  H   -0.000296  -0.058739  -0.041446   0.376659   0.003099   0.006614
    23  O    0.001542  -0.025650  -0.041605   0.226403  -0.001315  -0.006759
    24  H    0.000019  -0.014072   0.003697  -0.027850  -0.000130   0.000108
               7          8          9         10         11         12
     1  C   -0.047872   0.001272  -0.054793   0.362021  -0.050170   0.006343
     2  C   -0.036682   0.346384   0.000368   0.002090  -0.005873   0.000081
     3  O    0.000262   0.002221  -0.040022   0.002515  -0.033888   0.005419
     4  C   -0.007659  -0.042234   0.005997   0.000386  -0.007911  -0.000022
     5  C    0.002759  -0.004793   0.355045  -0.029448   0.274679  -0.037963
     6  C    0.348332  -0.045699   0.008485  -0.049275  -0.002901  -0.000191
     7  H    0.611654   0.007171  -0.000435   0.002970  -0.000062   0.000008
     8  H    0.007171   0.611460  -0.000013   0.000044  -0.000368   0.000225
     9  H   -0.000435  -0.000013   0.637671  -0.003907  -0.047688  -0.010764
    10  H    0.002970   0.000044  -0.003907   0.558596  -0.005094   0.000467
    11  C   -0.000062  -0.000368  -0.047688  -0.005094   5.015511   0.357756
    12  H    0.000008   0.000225  -0.010764   0.000467   0.357756   0.615439
    13  H   -0.000046   0.008370   0.006497   0.000001   0.366683  -0.041364
    14  O   -0.000006   0.000058   0.001958   0.017259   0.231606  -0.030428
    15  H    0.000000  -0.000002   0.005322  -0.000224  -0.030998  -0.009622
    16  O    0.000090  -0.039980   0.000002  -0.000048   0.000081  -0.000003
    17  H   -0.000717  -0.001728   0.000001  -0.000013  -0.000007   0.000000
    18  O   -0.040906   0.001307  -0.000158   0.001848   0.001295   0.000007
    19  H   -0.003170  -0.000178  -0.000009   0.003877  -0.000054   0.000000
    20  O    0.004894  -0.000090   0.002197  -0.036313   0.004198  -0.000063
    21  H    0.001192   0.000010  -0.002581   0.005876   0.000733  -0.000015
    22  H    0.000035  -0.003753  -0.000307   0.000013   0.000926   0.000026
    23  O    0.007708   0.003832  -0.000161  -0.000009   0.000000   0.000007
    24  H    0.001260   0.001164   0.000009   0.000002   0.000007   0.000000
              13         14         15         16         17         18
     1  C   -0.006442  -0.001912  -0.001223   0.003955   0.000593  -0.032320
     2  C   -0.000424   0.000024  -0.000002   0.208384  -0.027874  -0.035668
     3  O    0.001228   0.001384   0.000013   0.000533  -0.000041   0.000035
     4  C    0.002152   0.000107   0.000008  -0.034675   0.005285   0.002175
     5  C   -0.044066  -0.045055  -0.001712   0.000005  -0.000039   0.002173
     6  C    0.001317   0.000263   0.000016  -0.035531  -0.006429   0.184338
     7  H   -0.000046  -0.000006   0.000000   0.000090  -0.000717  -0.040906
     8  H    0.008370   0.000058  -0.000002  -0.039980  -0.001728   0.001307
     9  H    0.006497   0.001958   0.005322   0.000002   0.000001  -0.000158
    10  H    0.000001   0.017259  -0.000224  -0.000048  -0.000013   0.001848
    11  C    0.366683   0.231606  -0.030998   0.000081  -0.000007   0.001295
    12  H   -0.041364  -0.030428  -0.009622  -0.000003   0.000000   0.000007
    13  H    0.574071  -0.032930   0.007258   0.000009   0.000004  -0.000246
    14  O   -0.032930   8.228529   0.235838   0.000000   0.000000  -0.000082
    15  H    0.007258   0.235838   0.399770   0.000000   0.000000   0.000000
    16  O    0.000009   0.000000   0.000000   8.302937   0.237736  -0.002906
    17  H    0.000004   0.000000   0.000000   0.237736   0.357202   0.016864
    18  O   -0.000246  -0.000082   0.000000  -0.002906   0.016864   8.325151
    19  H    0.000001  -0.000020   0.000000  -0.000064  -0.000741   0.236676
    20  O   -0.000050   0.000018  -0.000054  -0.000022  -0.000010   0.001939
    21  H   -0.000008  -0.000021   0.000001  -0.000013   0.000000  -0.000019
    22  H   -0.000546  -0.000003  -0.000001   0.001173  -0.000335  -0.000041
    23  O    0.000011   0.000000   0.000000  -0.009834   0.000249   0.000041
    24  H    0.000003   0.000000   0.000000   0.030260  -0.000844  -0.000047
              19         20         21         22         23         24
     1  C   -0.002219   0.228866  -0.031414  -0.000296   0.001542   0.000019
     2  C    0.006537   0.002640  -0.001393  -0.058739  -0.025650  -0.014072
     3  O    0.000002  -0.003504   0.012273  -0.041446  -0.041605   0.003697
     4  C   -0.000194   0.000940   0.000597   0.376659   0.226403  -0.027850
     5  C    0.000395  -0.033979  -0.006092   0.003099  -0.001315  -0.000130
     6  C   -0.027879  -0.049137  -0.002683   0.006614  -0.006759   0.000108
     7  H   -0.003170   0.004894   0.001192   0.000035   0.007708   0.001260
     8  H   -0.000178  -0.000090   0.000010  -0.003753   0.003832   0.001164
     9  H   -0.000009   0.002197  -0.002581  -0.000307  -0.000161   0.000009
    10  H    0.003877  -0.036313   0.005876   0.000013  -0.000009   0.000002
    11  C   -0.000054   0.004198   0.000733   0.000926   0.000000   0.000007
    12  H    0.000000  -0.000063  -0.000015   0.000026   0.000007   0.000000
    13  H    0.000001  -0.000050  -0.000008  -0.000546   0.000011   0.000003
    14  O   -0.000020   0.000018  -0.000021  -0.000003   0.000000   0.000000
    15  H    0.000000  -0.000054   0.000001  -0.000001   0.000000   0.000000
    16  O   -0.000064  -0.000022  -0.000013   0.001173  -0.009834   0.030260
    17  H   -0.000741  -0.000010   0.000000  -0.000335   0.000249  -0.000844
    18  O    0.236676   0.001939  -0.000019  -0.000041   0.000041  -0.000047
    19  H    0.384350   0.000613   0.000027   0.000005   0.000005   0.000002
    20  O    0.000613   8.289377   0.232700  -0.000008  -0.000676   0.000002
    21  H    0.000027   0.232700   0.379491   0.000222   0.005243   0.000007
    22  H    0.000005  -0.000008   0.000222   0.617901  -0.051606   0.002771
    23  O    0.000005  -0.000676   0.005243  -0.051606   8.297440   0.228080
    24  H    0.000002   0.000002   0.000007   0.002771   0.228080   0.357508
 Mulliken charges:
               1
     1  C    0.121002
     2  C    0.060672
     3  O   -0.509944
     4  C    0.337574
     5  C    0.053759
     6  C    0.111553
     7  H    0.149221
     8  H    0.155318
     9  H    0.137286
    10  H    0.166365
    11  C   -0.068463
    12  H    0.144657
    13  H    0.158514
    14  O   -0.606584
    15  H    0.395613
    16  O   -0.662091
    17  H    0.420844
    18  O   -0.661456
    19  H    0.402039
    20  O   -0.644480
    21  H    0.405868
    22  H    0.147636
    23  O   -0.632946
    24  H    0.418044
 Sum of Mulliken charges =   0.00000
 Mulliken charges with hydrogens summed into heavy atoms:
               1
     1  C    0.287367
     2  C    0.215989
     3  O   -0.509944
     4  C    0.485210
     5  C    0.191045
     6  C    0.260774
    11  C    0.234708
    14  O   -0.210971
    16  O   -0.241247
    18  O   -0.259417
    20  O   -0.238611
    23  O   -0.214903
 Electronic spatial extent (au):  <R**2>=           1937.1824
 Charge=              0.0000 electrons
 Dipole moment (field-independent basis, Debye):
    X=             -0.7617    Y=              1.1087    Z=             -0.6833  Tot=              1.5087
 Quadrupole moment (field-independent basis, Debye-Ang):
   XX=            -65.3693   YY=            -71.7129   ZZ=            -73.9587
   XY=              6.8585   XZ=             -2.0256   YZ=              4.7230
 Traceless Quadrupole moment (field-independent basis, Debye-Ang):
   XX=              4.9776   YY=             -1.3659   ZZ=             -3.6117
   XY=              6.8585   XZ=             -2.0256   YZ=              4.7230
 Octapole moment (field-independent basis, Debye-Ang**2):
  XXX=            -18.3282  YYY=             30.0816  ZZZ=            -11.5095  XYY=              0.9949
  XXY=             -6.8350  XXZ=             11.7806  XZZ=             10.5716  YZZ=             -2.5316
  YYZ=              8.2678  XYZ=             -4.0077
 Hexadecapole moment (field-independent basis, Debye-Ang**3):
 XXXX=           -969.9356 YYYY=           -624.2632 ZZZZ=           -533.8019 XXXY=             54.4882
 XXXZ=            -20.1704 YYYX=             15.0511 YYYZ=             31.3345 ZZZX=             17.2765
 ZZZY=            -21.3621 XXYY=           -287.0750 XXZZ=           -296.9523 YYZZ=           -167.7636
 XXYZ=             14.3300 YYXZ=            -22.4597 ZZXY=              6.2894
 N-N= 8.398612380568D+02 E-N=-3.290960502693D+03  KE= 6.811678622446D+02
 Calling FoFJK, ICntrl=      2127 FMM=F ISym2X=0 I1Cent= 0 IOpClX= 0 NMat=1 NMatS=1 NMatT=0.
 ***** Axes restored to original set *****
 -------------------------------------------------------------------
 Center     Atomic                   Forces (Hartrees/Bohr)
 Number     Number              X              Y              Z
 -------------------------------------------------------------------
      1        6          -0.007484254   -0.040649935    0.016210233
      2        6          -0.013636383    0.003320718   -0.002466957
      3        8          -0.061544750   -0.007161642    0.041615633
      4        6           0.027382657   -0.018270829   -0.013914128
      5        6           0.059000720    0.032838589   -0.029017631
      6        6          -0.031071614   -0.003059671   -0.002670853
      7        1           0.012744340   -0.001129157   -0.000943870
      8        1           0.003256689    0.004073272   -0.005852358
      9        1           0.001792252   -0.001267973   -0.000967956
     10        1           0.003875367    0.002921471    0.003712249
     11        6           0.002636898    0.006490688    0.001041456
     12        1           0.004303557   -0.006556101    0.002146936
     13        1          -0.005986382    0.001100738   -0.000036846
     14        8          -0.003652140   -0.000208853   -0.003212113
     15        1          -0.002244085   -0.000645545    0.003924372
     16        8           0.005965331   -0.000758099   -0.003906804
     17        1           0.006704202   -0.002396185   -0.000610413
     18        8          -0.002507066    0.006766326    0.004404249
     19        1           0.002124972    0.001138552    0.006380552
     20        8           0.003757233    0.001929195   -0.004690736
     21        1          -0.005122148    0.004238970   -0.000736022
     22        1           0.001128289    0.006101876   -0.002817957
     23        8          -0.002693479    0.011679897   -0.004563144
     24        1           0.001269793   -0.000496301   -0.003027894
 -------------------------------------------------------------------
 Cartesian Forces:  Max     0.061544750 RMS     0.015092247

 GradGradGradGradGradGradGradGradGradGradGradGradGradGradGradGradGradGrad
 Berny optimization.
 FormGI is forming the generalized inverse of G from B-inverse, IUseBI=4.
 Internal  Forces:  Max     0.041028803 RMS     0.006980620
 Search for a local minimum.
 Step number   1 out of a maximum of  144
 All quantities printed in internal units (Hartrees-Bohrs-Radians)
 Mixed Optimization -- RFO/linear search
 Second derivative matrix not updated -- first step.
 ITU=  0
     Eigenvalues ---    0.00230   0.00395   0.00525   0.01129   0.01165
     Eigenvalues ---    0.01165   0.01320   0.01329   0.01411   0.02772
     Eigenvalues ---    0.03098   0.04071   0.04390   0.04647   0.04712
     Eigenvalues ---    0.04760   0.05039   0.05222   0.05507   0.06195
     Eigenvalues ---    0.06500   0.07022   0.07218   0.07611   0.07808
     Eigenvalues ---    0.09593   0.10812   0.11791   0.13357   0.13978
     Eigenvalues ---    0.15859   0.16000   0.16000   0.16000   0.16000
     Eigenvalues ---    0.16000   0.17168   0.19153   0.19511   0.19921
     Eigenvalues ---    0.21045   0.21912   0.26396   0.28067   0.28284
     Eigenvalues ---    0.28778   0.28827   0.33583   0.33874   0.33993
     Eigenvalues ---    0.34040   0.34327   0.34332   0.34674   0.34944
     Eigenvalues ---    0.35832   0.39240   0.39607   0.39611   0.41357
     Eigenvalues ---    0.42278   0.51386   0.51462   0.51593   0.52123
     Eigenvalues ---    0.52496
 RFO step:  Lambda=-3.28712331D-02 EMin= 2.30000000D-03
 Linear search not attempted -- first point.
 Maximum step size (   0.300) exceeded in Quadratic search.
    -- Step size scaled by   0.950
 Iteration  1 RMS(Cart)=  0.05644979 RMS(Int)=  0.00209322
 Iteration  2 RMS(Cart)=  0.00279451 RMS(Int)=  0.00100413
 Iteration  3 RMS(Cart)=  0.00000544 RMS(Int)=  0.00100413
 Iteration  4 RMS(Cart)=  0.00000001 RMS(Int)=  0.00100413
 Variable       Old X    -DE/DX   Delta X   Delta X   Delta X     New X
                                 (Linear)    (Quad)   (Total)
    R1        2.78264   0.02686   0.00000   0.07598   0.07693   2.85957
    R2        2.90471   0.00887   0.00000   0.03451   0.03402   2.93872
    R3        2.06774  -0.00293   0.00000  -0.00740  -0.00740   2.06034
    R4        2.72085  -0.00278   0.00000  -0.00615  -0.00615   2.71470
    R5        2.89687   0.00155   0.00000  -0.00833  -0.00926   2.88761
    R6        2.88657  -0.00234   0.00000  -0.01216  -0.01350   2.87307
    R7        2.06207   0.00244   0.00000   0.00611   0.00611   2.06818
    R8        2.72600  -0.00739   0.00000  -0.01652  -0.01652   2.70948
    R9        2.90468  -0.04103   0.00000  -0.12980  -0.12925   2.77543
   R10        2.75609  -0.01589   0.00000  -0.03163  -0.03026   2.72584
   R11        2.06782   0.00095   0.00000   0.00239   0.00239   2.07022
   R12        2.69751  -0.01179   0.00000  -0.02508  -0.02508   2.67242
   R13        2.08040   0.00175   0.00000   0.00451   0.00451   2.08491
   R14        2.91523   0.00123   0.00000   0.00371   0.00371   2.91893
   R15        2.07543  -0.00096   0.00000  -0.00246  -0.00246   2.07297
   R16        2.72091   0.00390   0.00000   0.00865   0.00865   2.72955
   R17        2.07263   0.00143   0.00000   0.00365   0.00365   2.07628
   R18        2.05765   0.00246   0.00000   0.00612   0.00612   2.06377
   R19        2.68570   0.00233   0.00000   0.00485   0.00485   2.69055
   R20        1.84128  -0.00454   0.00000  -0.00774  -0.00774   1.83354
   R21        1.85118  -0.00698   0.00000  -0.01211  -0.01211   1.83907
   R22        1.84482  -0.00662   0.00000  -0.01135  -0.01135   1.83347
   R23        1.85192  -0.00611   0.00000  -0.01063  -0.01063   1.84130
   R24        1.84991  -0.00282   0.00000  -0.00489  -0.00489   1.84502
    A1        1.89943   0.00257   0.00000   0.05022   0.05069   1.95012
    A2        1.96947  -0.00677   0.00000  -0.05408  -0.05347   1.91600
    A3        1.91196   0.00235   0.00000   0.00116  -0.00148   1.91048
    A4        1.94639   0.00298   0.00000  -0.01155  -0.01133   1.93507
    A5        1.88019  -0.00086   0.00000   0.02115   0.02055   1.90074
    A6        1.85385  -0.00010   0.00000  -0.00519  -0.00536   1.84849
    A7        1.92493   0.00245   0.00000   0.01364   0.01366   1.93859
    A8        1.94766  -0.00017   0.00000  -0.00590  -0.00601   1.94165
    A9        1.91124  -0.00907   0.00000  -0.06057  -0.05998   1.85126
   A10        1.93578  -0.00033   0.00000  -0.00800  -0.00862   1.92716
   A11        1.90375   0.00189   0.00000   0.01343   0.01354   1.91729
   A12        1.83814   0.00516   0.00000   0.04776   0.04750   1.88564
   A13        1.90269   0.02287   0.00000   0.11601   0.11923   2.02192
   A14        2.01781  -0.00323   0.00000  -0.02091  -0.02129   1.99652
   A15        1.95370   0.00209   0.00000   0.00155  -0.00009   1.95362
   A16        1.89595  -0.00001   0.00000   0.01160   0.01226   1.90822
   A17        1.85844  -0.00266   0.00000  -0.01707  -0.01672   1.84172
   A18        1.84998   0.00020   0.00000  -0.01830  -0.01853   1.83145
   A19        1.88102   0.00403   0.00000   0.04711   0.04678   1.92781
   A20        2.05846  -0.01854   0.00000  -0.09915  -0.09946   1.95899
   A21        1.80765   0.00569   0.00000   0.04766   0.04807   1.85572
   A22        2.05247   0.00453   0.00000   0.00240   0.00056   2.05304
   A23        1.75930   0.00659   0.00000   0.04011   0.04109   1.80038
   A24        1.94332   0.00731   0.00000   0.02057   0.01704   1.96036
   A25        1.78403  -0.00253   0.00000   0.02292   0.02179   1.80582
   A26        2.01948  -0.00680   0.00000  -0.03174  -0.03329   1.98619
   A27        1.91295  -0.00424   0.00000  -0.02958  -0.03243   1.88052
   A28        1.93659   0.01399   0.00000   0.06404   0.06420   2.00078
   A29        1.88973   0.00021   0.00000  -0.01885  -0.01872   1.87101
   A30        1.87364  -0.00668   0.00000  -0.04257  -0.04171   1.83193
   A31        1.82028   0.00447   0.00000   0.06784   0.06729   1.88758
   A32        1.91710  -0.00685   0.00000  -0.03378  -0.03374   1.88336
   A33        1.97880   0.00197   0.00000   0.00282   0.00264   1.98145
   A34        1.95253  -0.00091   0.00000  -0.00527  -0.00532   1.94721
   A35        1.83746   0.00257   0.00000   0.01814   0.01820   1.85566
   A36        1.89463   0.00704   0.00000   0.04825   0.04836   1.94299
   A37        1.87814  -0.00324   0.00000  -0.02609  -0.02615   1.85198
   A38        1.87976  -0.00067   0.00000  -0.00328  -0.00328   1.87648
   A39        1.83008  -0.00079   0.00000  -0.00387  -0.00387   1.82621
   A40        1.86265   0.00124   0.00000   0.00609   0.00609   1.86874
   A41        1.87116  -0.00473   0.00000  -0.02328  -0.02328   1.84787
   A42        1.82368   0.00205   0.00000   0.01010   0.01010   1.83378
    D1        0.96351  -0.00719   0.00000  -0.05538  -0.05262   0.91089
    D2        2.88785  -0.00382   0.00000  -0.02021  -0.02072   2.86713
    D3       -1.44356  -0.00103   0.00000   0.04038   0.03969  -1.40387
    D4        3.13376  -0.00618   0.00000  -0.07088  -0.06860   3.06516
    D5       -1.22508  -0.00281   0.00000  -0.03571  -0.03670  -1.26178
    D6        0.72670  -0.00002   0.00000   0.02488   0.02371   0.75040
    D7       -1.08804  -0.00898   0.00000  -0.11056  -0.10798  -1.19602
    D8        0.83631  -0.00561   0.00000  -0.07538  -0.07608   0.76023
    D9        2.78809  -0.00282   0.00000  -0.01479  -0.01567   2.77241
   D10       -0.00722  -0.00689   0.00000  -0.05278  -0.05087  -0.05808
   D11       -2.14950   0.00122   0.00000   0.01925   0.01938  -2.13012
   D12        2.13265  -0.00965   0.00000  -0.08202  -0.08160   2.05105
   D13       -2.19104  -0.00215   0.00000  -0.01181  -0.01049  -2.20153
   D14        1.94986   0.00596   0.00000   0.06022   0.05976   2.00962
   D15       -0.05117  -0.00491   0.00000  -0.04105  -0.04122  -0.09240
   D16        2.06438  -0.00315   0.00000  -0.01180  -0.00989   2.05449
   D17       -0.07790   0.00496   0.00000   0.06023   0.06036  -0.01755
   D18       -2.07894  -0.00591   0.00000  -0.04105  -0.04063  -2.11957
   D19        0.78375   0.00410   0.00000   0.05787   0.05794   0.84169
   D20       -1.27981   0.00022   0.00000  -0.01503  -0.01517  -1.29498
   D21        2.91584  -0.00277   0.00000  -0.00967  -0.00961   2.90623
   D22        0.80927   0.00468   0.00000   0.02797   0.02732   0.83659
   D23        2.94133   0.00028   0.00000  -0.01013  -0.01106   2.93027
   D24       -1.26687   0.00653   0.00000   0.05659   0.05583  -1.21104
   D25       -1.35060   0.00345   0.00000   0.03260   0.03287  -1.31774
   D26        0.78146  -0.00095   0.00000  -0.00551  -0.00551   0.77595
   D27        2.85645   0.00530   0.00000   0.06121   0.06137   2.91782
   D28        2.90440   0.00280   0.00000   0.01477   0.01476   2.91916
   D29       -1.24672  -0.00160   0.00000  -0.02333  -0.02362  -1.27033
   D30        0.82827   0.00465   0.00000   0.04339   0.04327   0.87154
   D31       -0.81013   0.00397   0.00000   0.02779   0.02890  -0.78123
   D32        1.34438  -0.00632   0.00000  -0.04888  -0.04814   1.29624
   D33       -2.98297  -0.00429   0.00000  -0.00005   0.00056  -2.98241
   D34        1.35660   0.00527   0.00000   0.02429   0.02477   1.38137
   D35       -2.77207  -0.00502   0.00000  -0.05237  -0.05228  -2.82435
   D36       -0.81624  -0.00300   0.00000  -0.00354  -0.00357  -0.81981
   D37       -2.90977   0.01245   0.00000   0.08551   0.08594  -2.82384
   D38       -0.75526   0.00216   0.00000   0.00885   0.00889  -0.74637
   D39        1.20056   0.00418   0.00000   0.05767   0.05760   1.25816
   D40       -3.01665   0.00069   0.00000   0.01930   0.01856  -2.99809
   D41       -0.90860  -0.00071   0.00000   0.00716   0.00702  -0.90159
   D42        1.17005   0.00268   0.00000   0.03076   0.03164   1.20169
   D43        0.01424   0.00531   0.00000  -0.00779  -0.01025   0.00398
   D44       -2.16783   0.00693   0.00000   0.01830   0.01671  -2.15113
   D45        2.11553   0.00346   0.00000  -0.01917  -0.02043   2.09509
   D46       -0.96513   0.00366   0.00000   0.07075   0.06754  -0.89759
   D47       -2.91664   0.00026   0.00000   0.02869   0.02860  -2.88803
   D48        1.48493  -0.00240   0.00000  -0.02265  -0.02290   1.46203
   D49       -0.68894  -0.00209   0.00000  -0.00554  -0.00577  -0.69471
   D50       -2.86769   0.00169   0.00000   0.02408   0.02397  -2.84373
   D51        1.43119   0.00281   0.00000   0.03095   0.03129   1.46248
   D52       -2.92823  -0.00958   0.00000  -0.09582  -0.09630  -3.02453
   D53        1.30484  -0.00945   0.00000  -0.09765  -0.09815   1.20669
   D54       -0.82298  -0.00596   0.00000  -0.06136  -0.06189  -0.88487
   D55        0.90229   0.00649   0.00000   0.04143   0.04222   0.94451
   D56       -1.14782   0.00662   0.00000   0.03960   0.04036  -1.10746
   D57        3.00754   0.01011   0.00000   0.07589   0.07663   3.08417
   D58       -0.96321  -0.00228   0.00000  -0.02176  -0.02200  -0.98521
   D59       -3.01332  -0.00214   0.00000  -0.02359  -0.02385  -3.03718
   D60        1.14204   0.00135   0.00000   0.01270   0.01241   1.15445
   D61        0.97435   0.00364   0.00000   0.03957   0.04214   1.01649
   D62       -3.08659  -0.00023   0.00000   0.01245   0.01200  -3.07459
   D63       -1.08388  -0.00077   0.00000   0.00437   0.00225  -1.08163
   D64       -1.26087   0.00149   0.00000   0.00145   0.00158  -1.25929
   D65        0.85741  -0.00292   0.00000  -0.01165  -0.01158   0.84582
   D66        2.83771   0.00191   0.00000   0.02004   0.01983   2.85754
         Item               Value     Threshold  Converged?
 Maximum Force            0.041029     0.000450     NO 
 RMS     Force            0.006981     0.000300     NO 
 Maximum Displacement     0.204202     0.001800     NO 
 RMS     Displacement     0.056925     0.001200     NO 
 Predicted change in Energy=-1.984556D-02
 GradGradGradGradGradGradGradGradGradGradGradGradGradGradGradGradGradGrad

                          Input orientation:                          
 ---------------------------------------------------------------------
 Center     Atomic      Atomic             Coordinates (Angstroms)
 Number     Number       Type             X           Y           Z
 ---------------------------------------------------------------------
      1          6           0        0.013913   -0.021885    0.017647
      2          6           0       -0.030479   -0.006292    2.593673
      3          8           0        2.118394    0.022578    1.279436
      4          6           0        1.447699   -0.386528    2.520349
      5          6           0        1.296824    0.720919    0.321309
      6          6           0       -0.758215   -0.392108    1.315764
      7          1           0       -0.884281   -1.481711    1.330571
      8          1           0       -0.155669    1.061828    2.796740
      9          1           0        1.901398    0.685512   -0.600904
     10          1           0       -0.609510    0.575427   -0.648148
     11          6           0        1.194786    2.231615    0.626723
     12          1           0        2.215658    2.630692    0.702493
     13          1           0        0.707659    2.451957    1.579004
     14          8           0        0.443393    2.917373   -0.369416
     15          1           0        0.988523    2.956352   -1.171121
     16          8           0       -0.573360   -0.735631    3.702327
     17          1           0       -1.533377   -0.585094    3.649246
     18          8           0       -2.064254    0.213584    1.432987
     19          1           0       -2.578004   -0.065111    0.658558
     20          8           0        0.317635   -1.226951   -0.702955
     21          1           0        1.039807   -1.657266   -0.210310
     22          1           0        2.027876    0.068108    3.330811
     23          8           0        1.571056   -1.794920    2.554047
     24          1           0        0.907215   -2.092342    3.205279
 ---------------------------------------------------------------------
                    Distance matrix (angstroms):
                    1          2          3          4          5
     1  C    0.000000
     2  C    2.576455   0.000000
     3  O    2.454165   2.519068   0.000000
     4  C    2.907271   1.528060   1.468695   0.000000
     5  C    1.513219   2.730239   1.442451   2.466775   0.000000
     6  C    1.555106   1.520363   2.906572   2.513387   2.539874
     7  H    2.159077   2.121619   3.358803   2.837804   3.259971
     8  H    2.987733   1.094435   2.924656   2.178283   2.890279
     9  H    2.108463   3.796848   2.005554   3.331266   1.103285
    10  H    1.090286   3.344111   3.385659   3.898313   2.143625
    11  C    2.616046   3.221551   2.481720   3.241058   1.544633
    12  H    3.514664   3.946565   2.672935   3.605271   2.153320
    13  H    3.006496   2.759961   2.825208   3.080712   2.219325
    14  O    2.995582   4.189542   3.728831   4.502792   2.455576
    15  H    3.351557   4.897887   3.986085   5.001264   2.705468
    16  O    3.798841   1.433796   3.700111   2.367198   4.129215
    17  H    3.987458   1.925604   4.395531   3.193846   4.559701
    18  O    2.525353   2.351973   4.189821   3.725091   3.576319
    19  H    2.670331   3.199690   4.738072   4.447006   3.968107
    20  O    1.436558   3.532556   2.955322   3.517534   2.408761
    21  H    1.943937   3.425426   2.490896   3.039350   2.450396
    22  H    3.878298   2.187631   2.053876   1.095512   3.165075
    23  O    3.464342   2.401182   2.286375   1.414186   3.374873
    24  H    3.904583   2.367475   3.106237   1.915999   4.047655
                    6          7          8          9         10
     6  C    0.000000
     7  H    1.096971   0.000000
     8  H    2.161084   3.024916   0.000000
     9  H    3.450858   4.023364   3.989626   0.000000
    10  H    2.194354   2.867515   3.508534   2.513764   0.000000
    11  C    3.342591   4.313550   2.810890   2.096856   2.761112
    12  H    4.284547   5.188059   3.531345   2.362483   3.745653
    13  H    3.210419   4.250851   2.039773   3.049154   3.196327
    14  O    3.903378   4.899450   3.718395   2.675924   2.582829
    15  H    4.521934   5.427915   4.543382   2.513007   2.914793
    16  O    2.418236   2.505701   2.055581   5.163514   4.543877
    17  H    2.466426   2.569338   2.310238   5.610338   4.546200
    18  O    1.444418   2.068054   2.494401   4.481720   2.564826
    19  H    1.962264   2.308040   3.421918   4.713249   2.448006
    20  O    2.435086   2.375865   4.208372   2.485203   2.027602
    21  H    2.676267   2.471285   4.226699   2.526561   2.810137
    22  H    3.469079   3.857921   2.457759   3.981904   4.800551
    23  O    2.987763   2.761100   3.346862   4.026833   4.541747
    24  H    3.038867   2.663993   3.353418   4.815796   4.926088
                   11         12         13         14         15
    11  C    0.000000
    12  H    1.098719   0.000000
    13  H    1.092100   1.753362   0.000000
    14  O    1.423779   2.090956   2.020591   0.000000
    15  H    1.949367   2.263260   2.810069   0.970267   0.000000
    16  O    4.624958   5.301864   4.038593   5.563930   6.310366
    17  H    4.950997   5.751513   4.304861   5.685467   6.491361
    18  O    3.917122   4.969273   3.565829   4.104561   4.860412
    19  H    4.417002   5.499861   4.240098   4.368155   5.019669
    20  O    3.807771   4.523183   4.346702   4.159626   4.262546
    21  H    3.980959   4.538988   4.494183   4.616096   4.712882
    22  H    3.561867   3.675616   3.239527   4.931590   5.448817
    23  O    4.479860   4.840435   4.442086   5.658972   6.065543
    24  H    5.042643   5.503000   4.830656   6.171775   6.681976
                   16         17         18         19         20
    16  O    0.000000
    17  H    0.973196   0.000000
    18  O    2.876400   2.414855   0.000000
    19  H    3.705769   3.210272   0.970232   0.000000
    20  O    4.521259   4.772827   3.508673   3.404161   0.000000
    21  H    4.331333   4.760987   3.979409   4.047028   0.974373
    22  H    2.747808   3.634639   4.513139   5.326613   4.568738
    23  O    2.653142   3.507227   4.301900   4.878505   3.535776
    24  H    2.068774   2.902653   4.157877   4.768878   4.046084
                   21         22         23         24
    21  H    0.000000
    22  H    4.061124   0.000000
    23  O    2.818305   2.069522   0.000000
    24  H    3.445739   2.437043   0.976343   0.000000
 Stoichiometry    C6H12O6
 Framework group  C1[X(C6H12O6)]
 Deg. of freedom    66
 Full point group                 C1      NOp   1
 Largest Abelian subgroup         C1      NOp   1
 Largest concise Abelian subgroup C1      NOp   1
                         Standard orientation:                         
 ---------------------------------------------------------------------
 Center     Atomic      Atomic             Coordinates (Angstroms)
 Number     Number       Type             X           Y           Z
 ---------------------------------------------------------------------
      1          6           0       -0.737681    0.423397    1.008392
      2          6           0        1.096916    0.319821   -0.797611
      3          8           0       -0.164672   -1.722807   -0.034870
      4          6           0        1.096545   -1.190760   -0.567151
      5          6           0       -1.211579   -0.755540    0.186591
      6          6           0        0.552035    1.057899    0.414763
      7          1           0        1.327720    1.025756    1.189762
      8          1           0        0.526998    0.584477   -1.693679
      9          1           0       -1.931065   -1.304350    0.817770
     10          1           0       -1.534593    1.163459    1.085608
     11          6           0       -2.015245   -0.456405   -1.098139
     12          1           0       -2.379072   -1.412366   -1.499329
     13          1           0       -1.417722    0.001068   -1.889572
     14          8           0       -3.090572    0.441934   -0.845542
     15          1           0       -3.766649   -0.044508   -0.347835
     16          8           0        2.465291    0.687470   -1.017052
     17          1           0        2.459765    1.660593   -1.027659
     18          8           0        0.404799    2.428099   -0.017922
     19          1           0        0.115653    2.940825    0.753348
     20          8           0       -0.468525   -0.007169    2.352218
     21          1           0        0.076290   -0.810851    2.270523
     22          1           0        1.281361   -1.746046   -1.493243
     23          8           0        2.069125   -1.516027    0.406609
     24          1           0        2.831802   -0.940519    0.205709
 ---------------------------------------------------------------------
 Rotational constants (GHZ):      1.1592832      0.7686400      0.6907246
 Standard basis: 6-31G(d) (6D, 7F)
 There are   204 symmetry adapted cartesian basis functions of A   symmetry.
 There are   204 symmetry adapted basis functions of A   symmetry.
   204 basis functions,   384 primitive gaussians,   204 cartesian basis functions
    48 alpha electrons       48 beta electrons
       nuclear repulsion energy       840.6321411576 Hartrees.
 NAtoms=   24 NActive=   24 NUniq=   24 SFac= 1.00D+00 NAtFMM=   60 NAOKFM=F Big=F
 Integral buffers will be    131072 words long.
 Raffenetti 2 integral format.
 Two-electron integral symmetry is turned on.
 One-electron integrals computed using PRISM.
 NBasis=   204 RedAO= T EigKep=  1.27D-03  NBF=   204
 NBsUse=   204 1.00D-06 EigRej= -1.00D+00 NBFU=   204
 Initial guess from the checkpoint file:  "/home/iawad/scratch/MAIN/PRO_Halides/direct/optfreq/boat3_Alpha/boat3_Alpha_optfreq_B3LYP_6-31G_d.chk"
 B after Tr=     0.000000    0.000000    0.000000
         Rot=    0.999813   -0.012748   -0.005620    0.013385 Ang=  -2.21 deg.
 ExpMin= 1.61D-01 ExpMax= 5.48D+03 ExpMxC= 8.25D+02 IAcc=1 IRadAn=         1 AccDes= 0.00D+00
 Harris functional with IExCor=  402 and IRadAn=       1 diagonalized for initial guess.
 HarFok:  IExCor=  402 AccDes= 0.00D+00 IRadAn=         1 IDoV= 1 UseB2=F ITyADJ=14
 ICtDFT=  3500011 ScaDFX=  1.000000  1.000000  1.000000  1.000000
 FoFCou: FMM=F IPFlag=           0 FMFlag=      100000 FMFlg1=           0
         NFxFlg=           0 DoJE=T BraDBF=F KetDBF=T FulRan=T
         wScrn=  0.000000 ICntrl=     500 IOpCl=  0 I1Cent=   200000004 NGrid=           0
         NMat0=    1 NMatS0=      1 NMatT0=    0 NMatD0=    1 NMtDS0=    0 NMtDT0=    0
 Petite list used in FoFCou.
 Requested convergence on RMS density matrix=1.00D-08 within 128 cycles.
 Requested convergence on MAX density matrix=1.00D-06.
 Requested convergence on             energy=1.00D-06.
 No special actions if energy rises.
 Integral accuracy reduced to 1.0D-05 until final iterations.
 Initial convergence to 1.0D-05 achieved.  Increase integral accuracy.
 SCF Done:  E(RB3LYP) =  -687.124311941     A.U. after   12 cycles
            NFock= 12  Conv=0.45D-08     -V/T= 2.0086
 Calling FoFJK, ICntrl=      2127 FMM=F ISym2X=0 I1Cent= 0 IOpClX= 0 NMat=1 NMatS=1 NMatT=0.
 ***** Axes restored to original set *****
 -------------------------------------------------------------------
 Center     Atomic                   Forces (Hartrees/Bohr)
 Number     Number              X              Y              Z
 -------------------------------------------------------------------
      1        6          -0.004013772   -0.015305846    0.004256988
      2        6          -0.002047139   -0.001000117    0.004336443
      3        8          -0.022434298    0.000980975    0.018587956
      4        6           0.018144300   -0.004280659   -0.019961252
      5        6           0.020354830    0.009174828   -0.008320290
      6        6          -0.013200192    0.003538108   -0.000923211
      7        1           0.003449228   -0.000116914   -0.002412915
      8        1           0.001321048    0.001578779   -0.002924613
      9        1          -0.002129012   -0.004070579    0.001688499
     10        1          -0.001664679    0.002414326    0.000902439
     11        6          -0.001967304    0.001343920    0.002343145
     12        1           0.000986779   -0.001306341    0.000498489
     13        1          -0.002447860   -0.001045809   -0.000633294
     14        8           0.001074533   -0.000629105    0.000097716
     15        1          -0.000711653    0.000001895   -0.000240237
     16        8           0.000218926    0.002322204   -0.001103542
     17        1           0.000328959   -0.001709396    0.001173752
     18        8           0.007466645    0.000139283   -0.001232863
     19        1          -0.001050277   -0.000364166    0.000828724
     20        8           0.001208213    0.004935615    0.000446913
     21        1          -0.000870132   -0.000445599    0.000728594
     22        1          -0.000784020    0.000531498    0.001959954
     23        8          -0.001732548    0.003775167    0.000455054
     24        1           0.000499425   -0.000462067   -0.000552447
 -------------------------------------------------------------------
 Cartesian Forces:  Max     0.022434298 RMS     0.006293682

 GradGradGradGradGradGradGradGradGradGradGradGradGradGradGradGradGradGrad
 Berny optimization.
 Using GEDIIS/GDIIS optimizer.
 FormGI is forming the generalized inverse of G from B-inverse, IUseBI=4.
 Internal  Forces:  Max     0.020939820 RMS     0.002599721
 Search for a local minimum.
 Step number   2 out of a maximum of  144
 All quantities printed in internal units (Hartrees-Bohrs-Radians)
 Mixed Optimization -- RFO/linear search
 Update second derivatives using D2CorX and points    1    2
 DE= -2.00D-02 DEPred=-1.98D-02 R= 1.01D+00
 TightC=F SS=  1.41D+00  RLast= 4.66D-01 DXNew= 5.0454D-01 1.3967D+00
 Trust test= 1.01D+00 RLast= 4.66D-01 DXMaxT set to 5.05D-01
 ITU=  1  0
 Use linear search instead of GDIIS.
     Eigenvalues ---    0.00230   0.00396   0.00522   0.01130   0.01163
     Eigenvalues ---    0.01165   0.01290   0.01331   0.01411   0.02947
     Eigenvalues ---    0.03213   0.04239   0.04487   0.04750   0.04820
     Eigenvalues ---    0.04889   0.04910   0.05341   0.05624   0.06166
     Eigenvalues ---    0.06681   0.06832   0.07284   0.07509   0.07683
     Eigenvalues ---    0.09522   0.11108   0.11596   0.13323   0.13997
     Eigenvalues ---    0.15805   0.15980   0.16000   0.16000   0.16000
     Eigenvalues ---    0.16567   0.17311   0.18321   0.19276   0.19888
     Eigenvalues ---    0.20566   0.21942   0.23344   0.27745   0.28296
     Eigenvalues ---    0.28342   0.29165   0.33568   0.33870   0.33888
     Eigenvalues ---    0.34040   0.34325   0.34458   0.34670   0.34948
     Eigenvalues ---    0.35581   0.39222   0.39591   0.40226   0.41301
     Eigenvalues ---    0.42304   0.51412   0.51494   0.51590   0.52180
     Eigenvalues ---    0.52518
 RFO step:  Lambda=-4.96521298D-03 EMin= 2.29694140D-03
 Quartic linear search produced a step of  0.35893.
 Iteration  1 RMS(Cart)=  0.06756896 RMS(Int)=  0.00291296
 Iteration  2 RMS(Cart)=  0.00398748 RMS(Int)=  0.00079908
 Iteration  3 RMS(Cart)=  0.00001304 RMS(Int)=  0.00079903
 Iteration  4 RMS(Cart)=  0.00000001 RMS(Int)=  0.00079903
 Variable       Old X    -DE/DX   Delta X   Delta X   Delta X     New X
                                 (Linear)    (Quad)   (Total)
    R1        2.85957   0.00659   0.02761   0.00981   0.03830   2.89787
    R2        2.93872  -0.00298   0.01221  -0.01750  -0.00503   2.93370
    R3        2.06034   0.00172  -0.00266   0.00871   0.00605   2.06639
    R4        2.71470  -0.00428  -0.00221  -0.01272  -0.01492   2.69978
    R5        2.88761   0.00384  -0.00332   0.01088   0.00652   2.89413
    R6        2.87307   0.00229  -0.00485   0.01098   0.00539   2.87846
    R7        2.06818   0.00085   0.00219   0.00155   0.00375   2.07193
    R8        2.70948  -0.00047  -0.00593   0.00291  -0.00301   2.70647
    R9        2.77543  -0.02094  -0.04639  -0.06540  -0.11197   2.66346
   R10        2.72584  -0.00600  -0.01086  -0.00925  -0.01925   2.70658
   R11        2.07022   0.00125   0.00086   0.00419   0.00505   2.07527
   R12        2.67242  -0.00341  -0.00900  -0.00418  -0.01319   2.65924
   R13        2.08491  -0.00245   0.00162  -0.01092  -0.00931   2.07560
   R14        2.91893  -0.00098   0.00133  -0.00565  -0.00432   2.91462
   R15        2.07297  -0.00031  -0.00088  -0.00055  -0.00143   2.07155
   R16        2.72955  -0.00593   0.00310  -0.02226  -0.01916   2.71040
   R17        2.07628   0.00048   0.00131   0.00086   0.00217   2.07845
   R18        2.06377   0.00033   0.00220  -0.00043   0.00177   2.06554
   R19        2.69055  -0.00040   0.00174  -0.00258  -0.00084   2.68972
   R20        1.83354  -0.00020  -0.00278   0.00153  -0.00124   1.83230
   R21        1.83907  -0.00065  -0.00435   0.00153  -0.00282   1.83626
   R22        1.83347   0.00000  -0.00407   0.00301  -0.00106   1.83241
   R23        1.84130  -0.00008  -0.00381   0.00261  -0.00120   1.84009
   R24        1.84502  -0.00056  -0.00175  -0.00016  -0.00192   1.84310
    A1        1.95012  -0.00079   0.01819  -0.00407   0.01328   1.96340
    A2        1.91600  -0.00081  -0.01919  -0.00237  -0.02052   1.89548
    A3        1.91048   0.00023  -0.00053  -0.00348  -0.00551   1.90497
    A4        1.93507   0.00042  -0.00407  -0.01481  -0.01907   1.91600
    A5        1.90074   0.00060   0.00738   0.00793   0.01599   1.91673
    A6        1.84849   0.00043  -0.00192   0.01813   0.01602   1.86451
    A7        1.93859   0.00043   0.00490  -0.00601  -0.00176   1.93683
    A8        1.94165  -0.00087  -0.00216  -0.01416  -0.01640   1.92525
    A9        1.85126  -0.00066  -0.02153   0.01867  -0.00251   1.84875
   A10        1.92716  -0.00032  -0.00309  -0.01371  -0.01785   1.90930
   A11        1.91729   0.00042   0.00486   0.01320   0.01904   1.93632
   A12        1.88564   0.00103   0.01705   0.00404   0.02101   1.90664
   A13        2.02192   0.00789   0.04280   0.02550   0.06809   2.09001
   A14        1.99652  -0.00202  -0.00764  -0.00974  -0.01901   1.97751
   A15        1.95362  -0.00100  -0.00003  -0.02069  -0.02149   1.93213
   A16        1.90822   0.00037   0.00440   0.00320   0.00883   1.91704
   A17        1.84172   0.00045  -0.00600   0.01537   0.01020   1.85192
   A18        1.83145   0.00203  -0.00665   0.02402   0.01702   1.84846
   A19        1.92781   0.00039   0.01679  -0.00965   0.00676   1.93457
   A20        1.95899  -0.00262  -0.03570   0.00520  -0.03269   1.92631
   A21        1.85572   0.00028   0.01725  -0.01137   0.00678   1.86250
   A22        2.05304  -0.00185   0.00020  -0.02426  -0.02491   2.02813
   A23        1.80038   0.00084   0.01475  -0.00748   0.00711   1.80749
   A24        1.96036   0.00167   0.00612  -0.00115   0.00357   1.96394
   A25        1.80582   0.00251   0.00782   0.04427   0.05148   1.85729
   A26        1.98619  -0.00216  -0.01195  -0.00396  -0.01811   1.96809
[...]
 0079089,-0.10439561,-0.03653544,0.03993774,-0.01104249,-0.00208634,0.0
 0712436,-0.01481496,-0.03087483,0.03175689,-0.00195627,0.00099463,-0.0
 0457659,0.00843819,0.00844368,-0.00805911,0.00225938,0.00207061,0.0011
 1448,0.00358832,-0.00301532,-0.00103524,0.00048100,-0.00004216,0.00072
 665,0.00060285,0.00003327,-0.00048676,-0.00010227,0.00048099,-0.000095
 51,0.00003917,0.00014932,-0.00002479,-0.00009813,-0.00012006,-0.000043
 15,0.00040350,-0.00051714,0.00059591,-0.00002096,0.00009990,-0.0001066
 5,0.59864096,0.00368127,-0.00124299,-0.00027428,-0.00259676,-0.1504124
 4,0.06587292,-0.00002504,0.00297254,-0.00043331,-0.00399978,-0.0066033
 1,0.00415888,0.00070243,-0.00001967,-0.00101028,-0.00601695,-0.0061438
 9,0.01123776,0.00148332,0.00232737,-0.00021340,-0.01689205,-0.02944392
 ,0.03269928,-0.00009390,0.00003380,0.00021503,-0.00061101,-0.00001270,
 0.00075219,0.00066836,-0.00006022,-0.00085150,-0.00011269,-0.00000596,
 0.00007557,-0.00036857,0.00037312,0.00007042,-0.00013509,-0.00031244,0
 .00066312,0.00001486,0.00008323,0.00000758,-0.01690495,0.21622970,-0.0
 0764291,0.00315212,-0.00211745,0.00948779,0.07292389,-0.12238163,0.002
 30492,0.00024018,0.00087633,0.00995149,0.00932192,-0.01117463,-0.00118
 585,-0.00081400,0.00015134,0.01537166,0.02759747,-0.03266916,0.0024042
 6,0.00155435,0.00385346,0.00019263,0.00556570,0.00563535,0.00037288,0.
 00009856,-0.00000115,0.00126381,0.00017212,-0.00199601,0.00005926,-0.0
 0061585,0.00011025,0.00013537,0.00024696,-0.00001548,-0.00010973,-0.00
 015843,-0.00005621,0.00008678,0.00086258,-0.00020017,-0.00003671,-0.00
 029071,0.00010922,-0.11213638,-0.12790040,0.18901015,-0.00070088,0.000
 13228,-0.00022437,-0.01233073,0.00395284,-0.00057399,-0.00057255,0.000
 02942,0.00004572,0.00074546,-0.00252937,0.00197691,-0.00017815,0.00008
 004,0.00001009,0.00259669,0.00113425,-0.00106411,0.00025963,-0.0001185
 4,0.00039212,0.00079739,0.00089741,-0.00114479,0.00005663,-0.00003848,
 0.00005295,0.00013198,0.00002496,-0.00022062,-0.00005527,0.00001256,0.
 00011764,0.00000649,0.00001894,-0.00000558,0.00005212,-0.00005951,0.00
 000977,0.00002363,0.00004233,-0.00007753,-0.00000445,-0.00001126,-0.00
 000347,-0.47998641,0.04026972,0.07904478,0.48885738,-0.00024155,-0.000
 26004,-0.00024669,-0.03563730,-0.00016763,0.00872059,-0.00230672,0.000
 09046,0.00100761,0.00096653,-0.00633710,0.00352573,-0.00020657,0.00020
 029,-0.00027980,-0.00042612,0.00219467,0.00080100,0.00002200,-0.000253
 99,-0.00054298,-0.00063474,0.00014306,-0.00047331,0.00002116,-0.000061
 64,0.00005953,0.00006807,-0.00000214,0.00002354,-0.00011268,0.00009236
 ,0.00012531,0.00001690,0.00000123,-0.00002138,0.00002335,-0.00006541,-
 0.00001168,0.00005032,-0.00003793,-0.00006913,0.00000437,0.00001239,-0
 .00000449,0.08050853,-0.03498500,0.00608409,-0.04342512,0.03748414,0.0
 0044462,-0.00085597,-0.00040236,0.03144084,-0.00105453,-0.00728375,0.0
 0171545,0.00049767,-0.00088272,-0.00011679,0.00367411,-0.00337317,0.00
 036690,0.00005128,0.00125369,0.00124458,0.00077501,0.00031598,-0.00062
 422,-0.00102928,-0.00124549,-0.00096304,-0.00001735,0.00105452,-0.0002
 2682,-0.00011470,-0.00007367,-0.00016376,-0.00000246,0.00018574,0.0000
 1352,0.00010690,-0.00006584,-0.00006409,-0.00010507,0.00002038,0.00007
 515,0.00009889,0.00005941,-0.00008438,-0.00015964,-0.00003325,0.000006
 15,0.00008270,-0.00002191,0.04529084,0.01576412,-0.02655852,-0.0779884
 4,-0.01726440,0.03616064,-0.01739416,0.02492718,-0.00168179,-0.0271211
 9,0.02094490,-0.00599183,-0.00016858,0.00015527,-0.00034868,0.00030508
 ,0.00003150,-0.00349507,0.00183266,-0.00059024,0.00081721,-0.13307048,
 0.08316892,0.01782576,0.00799343,0.00679631,-0.00068696,0.00075816,0.0
 0113620,0.00145687,-0.00056720,-0.00015648,0.00018376,0.00301756,-0.00
 017394,-0.00157802,-0.00128344,-0.00118859,-0.00154868,-0.00049264,-0.
 00043601,0.00058254,-0.00194934,-0.00001142,0.00088981,0.00014902,-0.0
 0096130,0.00078372,0.00005401,0.00030711,-0.00013406,0.00000821,0.0007
 1554,-0.00263652,-0.00037024,0.00054577,-0.00001318,0.31271045,0.01033
 710,-0.00502704,0.00020731,0.00927185,-0.00467687,0.00295018,0.0004593
 0,0.00140525,-0.00102118,-0.00198469,-0.00173317,0.00095570,0.00146705
 ,-0.00183883,-0.00164756,0.06322312,-0.15225013,-0.03313187,0.03505252
 ,-0.03080416,-0.00158358,-0.00095939,0.00099426,0.00006094,0.00077211,
 0.00083687,0.00000665,-0.00180317,0.00041084,-0.00041613,0.00102112,-0
 .00257269,-0.00188148,-0.00106323,0.00046171,0.00087957,-0.00089331,0.
 00081274,0.00185813,-0.00071960,0.00103109,0.00029838,-0.00018061,-0.0
 0028028,0.00005400,0.00049677,0.00158594,0.00206062,-0.00011384,-0.000
 58059,-0.00109715,-0.14259450,0.21658862,0.01551234,-0.02102106,0.0011
 7899,-0.03039881,0.02641645,-0.00094601,0.00049409,-0.00097598,0.00285
 334,0.00084054,0.00074619,-0.00729126,-0.00150675,0.00048258,-0.001759
 52,-0.01920317,-0.00013780,-0.08866795,0.00328363,-0.00283723,0.003992
 08,0.00016715,0.00212277,0.00206713,0.00015694,0.00000891,0.00004176,0
 .00023181,-0.00220864,0.00405996,0.00019915,0.00035945,0.00035085,0.00
 031384,0.00025524,-0.00023391,0.00027211,0.00009956,-0.00053411,0.0003
 5075,0.00006038,0.00029108,0.00009910,-0.00007766,0.00014403,-0.000778
 23,0.00036708,-0.00193548,0.00032458,-0.00095847,0.00067690,0.20840497
 ,0.02994092,0.46572930,-0.00055874,0.00054136,-0.00140120,-0.00435764,
 0.00464803,0.00029047,0.00038062,-0.00033810,0.00133805,0.00059216,0.0
 0045435,-0.00221979,-0.00080419,-0.00027900,-0.00071201,-0.01674130,-0
 .00048780,-0.02801949,0.00172744,-0.00030246,0.00039033,0.00017460,0.0
 0043155,0.00036705,0.00020713,0.00004362,0.00003216,-0.00056263,-0.000
 20305,0.00253970,-0.00047208,-0.00015135,-0.00005315,0.00020893,0.0001
 3834,-0.00005997,-0.00012968,-0.00016703,-0.00029528,0.00038450,0.0003
 9558,-0.00001241,0.00010132,-0.00011227,0.00014308,-0.00044241,0.00021
 045,-0.00034665,0.00000888,0.00029727,-0.00012252,-0.13845529,0.025632
 14,-0.18371832,0.15749968,-0.00038785,0.00089644,-0.00046972,0.0037976
 5,-0.00374909,-0.00234853,-0.00025098,-0.00024385,-0.00001780,0.000367
 56,0.00054469,0.00136355,-0.00015760,0.00046828,-0.00003884,0.02108397
 ,-0.00475350,0.02904895,-0.00013006,-0.00004473,0.00051806,0.00006939,
 0.00044187,0.00018993,-0.00006466,-0.00009367,0.00002362,0.00013332,0.
 00081063,-0.00049488,-0.00059896,0.00026777,-0.00042912,0.00013585,-0.
 00009883,0.00000894,0.00006126,0.00022900,-0.00034721,0.00045424,-0.00
 027972,0.00024047,0.00016814,0.00007469,0.00008917,-0.00035845,0.00030
 923,0.00047894,-0.00002244,0.00003077,0.00010483,0.00486310,-0.0275627
 2,-0.02918129,-0.02873493,0.03330780,0.00209668,-0.00257604,0.00352444
 ,-0.00115700,0.00014672,0.00085325,-0.00027838,-0.00027200,0.00002846,
 0.00067017,0.00019481,-0.00016978,0.00017668,0.00029852,-0.00054805,0.
 00552893,-0.00433504,0.00057166,0.00067442,-0.00083386,0.00015161,0.00
 026976,0.00059895,0.00062549,0.00008039,-0.00000282,0.00002614,-0.0002
 9563,0.00018003,-0.00085192,0.00013568,0.00007758,0.00038065,-0.000019
 17,0.00000441,-0.00007158,-0.00012074,-0.00017449,-0.00006318,-0.00017
 152,-0.00013994,-0.00020475,0.00001417,0.00005404,-0.00001474,0.000058
 06,0.00020599,0.00007719,0.00001436,-0.00029239,-0.00005531,-0.2195623
 5,0.00492164,-0.37441728,0.21207823,0.00085795,0.37076230,-0.08647247,
 0.05246454,0.00820071,-0.00208662,0.00051616,-0.00086935,0.00321402,-0
 .00048253,0.00166657,-0.00269790,0.00473464,0.00169906,0.00823940,-0.0
 2463690,-0.00632131,-0.00596866,0.02342117,0.01050625,0.00197476,0.002
 56374,-0.00243284,0.00051963,0.00019022,0.00042835,0.00395712,0.001162
 53,-0.00139963,-0.00562767,0.02470841,0.00929282,-0.00470961,-0.001274
 99,-0.00373062,0.00035373,-0.00142774,-0.00000766,-0.00006599,-0.00084
 697,-0.00021195,0.00125530,0.00083488,0.00136624,-0.00003687,0.0001572
 3,-0.00014926,0.00105786,-0.00078642,0.00175637,0.00011616,-0.00005628
 ,-0.00062088,-0.00532731,0.00327280,0.00726390,0.00169420,-0.00067793,
 0.00005560,0.25086186,0.03397211,-0.19714202,-0.05956889,0.00107360,0.
 00008511,0.00097594,-0.00130279,0.00465670,-0.00504496,-0.00010280,-0.
 00978870,0.00160869,0.01014226,-0.04548192,-0.01147166,0.00590932,-0.0
 1484968,-0.00943180,0.00070837,0.00287645,0.00058778,-0.00037944,0.000
 13775,0.00028415,0.00227853,0.00217139,0.00041161,0.01147967,-0.027222
 67,-0.00848404,-0.00831961,0.00053184,-0.00315935,0.00040016,-0.003139
 84,-0.00011871,0.00028575,0.00016350,0.00005869,0.00018650,-0.00109128
 ,0.00123171,0.00001091,0.00038548,-0.00043289,-0.00020720,0.00177604,-
 0.00168775,-0.00006738,-0.00014789,0.00019443,0.00322612,0.00180847,-0
 .00394080,-0.00192197,-0.00040306,0.00060627,-0.17078274,0.37434548,-0
 .00722515,-0.02867834,-0.10650757,-0.00033680,0.00053710,0.00156326,0.
 00134689,-0.00087340,0.00449098,0.00036203,0.00756294,-0.00089176,0.00
 272390,-0.01535036,-0.00285644,0.01226075,-0.03039162,-0.00816004,-0.0
 0176684,-0.00170099,0.00219585,0.00028056,-0.00017325,0.00009475,-0.00
 115686,0.00049273,0.00091451,-0.00532483,0.02064399,0.01346782,-0.0032
 7956,0.00046882,-0.00098639,0.00027022,-0.00073699,0.00003006,0.000060
 63,0.00046256,0.00011414,0.00089928,0.00010970,0.00172124,-0.00004768,
 -0.00024665,-0.00013965,0.00020923,0.00011042,-0.00083522,-0.00009591,
 -0.00020700,0.00028230,0.00610915,-0.00367295,-0.00533615,-0.00018591,
 0.00045866,-0.00070230,0.17487916,-0.02960234,0.36464356,-0.00959459,0
 .00972514,-0.00711226,0.00107223,0.00061676,0.00158738,-0.00083310,0.0
 0200317,-0.00088888,0.00189979,-0.00473690,-0.00028986,0.00383369,-0.0
 0298286,0.00129030,-0.00026121,0.00063930,-0.00065011,-0.00112659,-0.0
 0039212,0.00049679,-0.00039581,-0.00003688,-0.00020784,-0.00022798,-0.
 00019260,0.00024991,0.00122792,0.00050860,0.00117568,-0.00056711,-0.00
 032623,0.00005929,-0.00005880,-0.00029117,0.00003465,0.00000661,0.0002
 5116,0.00004424,-0.00022745,-0.00006203,-0.00021099,0.00004848,0.00002
 112,0.00003431,-0.00090473,0.00015539,-0.00088493,-0.00008586,0.000183
 87,0.00037818,0.00089212,-0.00149142,-0.00062212,-0.00020767,0.0001460
 6,-0.00000478,-0.16071039,0.11144519,-0.17193423,0.17243889,0.02873809
 ,-0.02723923,0.02760506,0.00052724,0.00000620,-0.00086659,-0.00100609,
 0.00001494,0.00116303,-0.00089294,0.00225021,-0.00651187,-0.00011060,0
 .00018301,0.00116819,0.00079225,0.00145353,-0.00042420,-0.00021682,0.0
 0008321,-0.00029605,0.00005435,-0.00006542,0.00007717,-0.00056509,-0.0
 0058694,0.00025334,0.00154377,-0.00537332,-0.00331692,0.00099823,-0.00
 034572,0.00093012,-0.00007148,0.00043365,0.00003896,-0.00007595,0.0002
 1456,0.00001898,-0.00037837,0.00018439,-0.00058879,-0.00000707,-0.0001
 7294,0.00008825,-0.00032889,-0.00051682,0.00030757,-0.00000560,0.00004
 334,0.00000171,-0.00083795,0.00031105,0.00031356,-0.00001483,-0.000006
 18,0.00007708,0.08861981,-0.09950581,0.08247970,-0.11876487,0.13804464
 ,0.00986828,-0.00550513,0.01184743,0.00098868,-0.00015015,0.00011835,-
 0.00041381,0.00401512,-0.00489242,0.00055337,-0.01663919,-0.00088535,0
 .00255310,-0.00308387,0.00374428,0.00054934,-0.00278151,0.00212715,0.0
 0018223,0.00018146,0.00028808,-0.00071121,0.00023451,0.00016171,0.0002
 9731,0.00071335,-0.00064410,0.00144144,-0.00363596,-0.00015361,-0.0006
 3998,-0.00009349,-0.00046345,-0.00005828,-0.00054142,-0.00002973,0.000
 10939,-0.00015063,0.00001209,-0.00031465,-0.00012978,-0.00036700,0.000
 01950,0.00019104,-0.00000763,-0.00091240,0.00071191,-0.00028479,0.0000
 8074,0.00028014,0.00011510,0.00097878,0.00016769,-0.00200756,-0.000647
 74,0.00010231,0.00005852,-0.18985831,0.12152366,-0.24804822,0.17585435
 ,-0.10706799,0.23869608,-0.00034495,0.00022296,0.00111755,-0.01799497,
 -0.00303345,-0.03018629,0.01062251,-0.00244428,0.01859081,-0.12649592,
 -0.01833509,-0.11650002,-0.00108213,-0.00142463,0.00122928,-0.00347442
 ,0.00017920,0.00423302,-0.00049414,-0.00014719,-0.00085152,0.00115963,
 0.00025655,0.00027696,0.00033442,-0.00017047,0.00057814,0.00014408,0.0
 0011154,-0.00009013,-0.00001359,0.00034872,0.00037279,0.00003874,0.000
 01190,-0.00002628,-0.00002889,-0.00013098,-0.00005703,0.00020701,-0.00
 024738,0.00011874,0.00000405,0.00003804,-0.00005036,0.00253288,0.00028
 416,0.00068354,0.00035846,0.00017573,0.00015647,-0.00128243,0.00047600
 ,-0.00153353,-0.00034627,0.00032237,-0.00001325,0.00061389,-0.00025937
 ,0.00001228,-0.00029145,0.00026139,-0.00023667,0.12612283,-0.00003746,
 -0.00161819,-0.00015660,0.00418670,0.00377270,0.00432919,0.00854618,-0
 .00477810,0.02918663,-0.02055733,-0.04886084,-0.03537986,-0.00328773,0
 .00113787,0.00223422,0.00085329,0.00046177,-0.00067318,0.00017924,0.00
 015975,0.00013420,-0.00059420,0.00030638,0.00063268,0.00054260,-0.0004
 4072,0.00111529,0.00014564,0.00022850,0.00003897,-0.00004570,0.0005735
 8,0.00017169,-0.00004310,-0.00002654,-0.00000109,0.00004906,-0.0000736
 7,-0.00002572,0.00018204,-0.00036525,0.00010495,0.00000441,0.00011165,
 -0.00008284,-0.00019763,0.00040028,-0.00036423,0.00012386,0.00006743,0
 .00002996,0.00000471,0.00010494,0.00011414,0.00000098,-0.00008547,0.00
 006077,-0.00084059,0.00149500,-0.00111991,0.00091745,-0.00093548,0.002
 64634,0.02046363,0.07433953,0.00053747,-0.00005362,-0.00016655,0.00209
 273,0.00053066,0.00419763,-0.00858192,0.01212264,-0.03158093,-0.108857
 91,-0.03181856,-0.23146900,0.00410678,0.00001406,0.00121184,0.00163170
 ,0.00062419,-0.00011014,0.00015360,-0.00000309,0.00039573,-0.00071667,
 0.00031624,0.00053797,-0.00053691,0.00040121,-0.00100700,-0.00018606,-
 0.00007418,0.00000719,0.00001387,-0.00075928,-0.00055314,0.00005218,0.
 00008050,0.00002011,-0.00007401,0.00012182,0.00003226,-0.00026840,0.00
 068346,-0.00020359,-0.00002161,-0.00016809,0.00010988,-0.00041855,-0.0
 0053993,0.00113844,-0.00017581,-0.00016024,0.00019412,-0.00003824,-0.0
 0004633,0.00030646,0.00015744,-0.00004290,-0.00000916,-0.00046944,0.00
 003493,-0.00022002,0.00028749,-0.00008503,0.00078884,0.11469529,0.0338
 4705,0.26203819,-0.00047303,-0.00322178,0.00042366,-0.00517404,0.03854
 498,0.01734955,0.00771076,-0.02509391,0.00065727,-0.08775456,0.0063455
 8,0.01952780,-0.00229309,0.00039208,-0.00323852,0.00323891,-0.00165420
 ,0.00120871,0.00024283,0.00062391,-0.00008403,-0.00809436,0.00100089,0
 .00214180,0.00019480,0.00006624,0.00001603,0.00019638,0.00022907,-0.00
 013253,-0.00003319,0.00031713,0.00085891,0.00010559,0.00033976,-0.0000
 3547,0.00005464,-0.00026347,-0.00006315,0.00052047,-0.00028624,0.00024
 734,-0.00002947,-0.00003576,-0.00008704,-0.00186113,0.00154846,0.00201
 462,0.00107965,0.00163026,-0.00002027,-0.00020787,0.00096682,-0.000595
 85,0.00001831,-0.00030578,-0.00016166,0.00178883,0.00216205,-0.0071029
 0,-0.00805772,0.00088439,-0.00077620,0.00947010,-0.01132679,-0.0033385
 2,0.26897861,0.00039812,-0.00458200,-0.00135577,0.00825706,-0.03202280
 ,-0.00995869,-0.00877034,-0.04852621,0.01895716,0.04230706,-0.15204451
 ,-0.06804633,-0.00396533,0.00077733,-0.00818447,-0.00164919,0.00052830
 ,-0.00134724,0.00135611,0.00037217,0.00066988,0.00453175,0.00119728,-0
 .00098005,0.00032683,-0.00046608,0.00127801,0.00014880,0.00096847,0.00
 051838,0.00042213,0.00119487,0.00073539,0.00005634,0.00053532,-0.00000
 707,-0.00013802,0.00008781,-0.00013477,0.00098602,-0.00150683,0.001676
 31,0.00000580,0.00018735,-0.00029864,-0.00150139,0.00468409,0.00100585
 ,-0.00021209,0.00071200,0.00016482,0.00043710,0.00068258,0.00053007,-0
 .00005746,-0.00005678,0.00037824,-0.00016989,0.00826445,0.00076502,0.0
 0144188,-0.00929404,0.00698297,0.00309991,-0.02627996,-0.01425856,0.11
 221724,0.42662771,0.00327582,-0.00905392,-0.00260351,0.00288115,-0.010
 15714,-0.00144844,-0.00008240,0.02804342,0.01341066,0.02144530,-0.0204
 9766,-0.11132731,-0.00191627,0.00179705,0.00269737,0.00144731,0.000294
 80,-0.00103573,0.00064638,0.00035597,0.00028128,0.00184393,0.00047455,
 0.00125188,0.00037511,-0.00042081,0.00102804,-0.00054001,0.00095674,0.
 00057215,0.00033985,0.00000876,-0.00039303,0.00002841,0.00024533,-0.00
 001719,-0.00016000,0.00011153,-0.00000611,-0.00010012,0.00050809,0.000
 02284,-0.00003843,-0.00017790,0.00004542,0.00328272,-0.00087275,0.0014
 2556,-0.00041829,-0.00149872,-0.00002010,-0.00064027,0.00071025,0.0015
 4820,0.00054352,-0.00014178,0.00006504,-0.00970329,0.00693165,-0.01485
 432,-0.00173212,0.00219273,0.00147231,0.00740198,-0.03562027,-0.004006
 22,-0.19608829,-0.07779614,0.28694254,0.00086300,-0.00039934,-0.000337
 57,0.00135074,0.00569889,-0.00176401,0.00052180,0.00511624,-0.00160779
 ,0.00449311,0.00023316,-0.00260597,0.00078509,-0.00028077,0.00067740,-
 0.00041502,0.00081758,-0.00017414,-0.00057433,-0.00017979,-0.00037309,
 -0.00013479,-0.00099996,0.00042309,-0.00021902,0.00003125,-0.00012028,
 -0.00015507,-0.00004227,0.00012100,0.00016473,-0.00007268,-0.00009635,
 -0.00006073,-0.00005743,0.00001100,-0.00001083,0.00010409,0.00003523,-
 0.00015891,0.00004874,-0.00006767,0.00000834,0.00000328,0.00002441,-0.
 00061293,-0.00119076,-0.00015048,-0.00080603,-0.00146706,-0.00012432,-
 0.00003052,-0.00064494,0.00044189,0.00008014,0.00008672,-0.00006865,-0
 .00194327,0.00006275,-0.00095741,0.00213072,0.00085700,0.00109275,0.00
 024057,0.00073075,-0.00004449,-0.17962142,-0.15952843,0.16790800,0.174
 10466,-0.00040971,-0.00035108,0.00039182,0.00164851,-0.00215654,0.0019
 8295,0.00045869,-0.00940258,-0.00082135,-0.02569618,-0.02567589,0.0261
 0718,-0.00050105,-0.00028079,-0.00156735,0.00082278,-0.00021458,0.0006
 3795,0.00005570,0.00011870,0.00003418,-0.00107582,0.00025626,0.0003010
 1,-0.00001750,0.00004073,-0.00001043,0.00012203,0.00005650,-0.00013049
 ,0.00002796,0.00000987,0.00046577,0.00002967,0.00014367,-0.00001124,0.
 00001744,-0.00007082,-0.00003237,0.00016381,-0.00005999,0.00001780,0.0
 0000440,-0.00003917,-0.00000672,-0.00169461,-0.00101598,0.00015848,-0.
 00011501,0.00182723,0.00015413,-0.00030930,0.00029214,-0.00047838,-0.0
 0002343,-0.00000358,-0.00003643,-0.00066315,0.00007520,-0.00133785,0.0
 0122197,0.00081915,0.00202862,-0.00005928,0.00030481,-0.00076694,-0.12
 508093,-0.17204052,0.11360622,0.15107300,0.20736727,-0.00007720,0.0010
 2855,-0.00004778,-0.00036779,-0.00255059,0.00297073,0.00030177,-0.0010
 0349,0.00173550,-0.00656279,-0.00593147,0.00609921,0.00026713,-0.00065
 834,-0.00016074,-0.00002964,0.00142118,-0.00042693,-0.00041361,-0.0002
 2251,0.00004391,0.00056675,0.00035884,-0.00072027,-0.00005159,-0.00001
 214,-0.00001287,0.00004524,-0.00013081,-0.00003911,-0.00003424,0.00006
 742,0.00009745,-0.00003049,-0.00006019,-0.00000869,0.00002724,0.000019
 84,0.00000106,0.00000170,-0.00014151,0.00002720,0.00000990,0.00004315,
 -0.00001311,-0.00063261,-0.00081642,-0.00216137,-0.00007675,0.00140316
 ,-0.00030269,0.00032310,-0.00057377,-0.00011083,-0.00008561,0.00002670
 ,-0.00001669,-0.00134050,-0.00150631,0.00001960,0.00304556,0.00244201,
 -0.00164607,0.00007824,-0.00122235,-0.00165288,0.16727875,0.14870560,-
 0.17505133,-0.16224255,-0.14068654,0.17137669\\0.00001426,-0.00000286,
 -0.00001838,0.00000032,-0.00001097,-0.00001862,-0.00001515,-0.00000443
 ,0.00002145,-0.00001443,0.00001720,0.00002667,0.00000452,-0.00000546,0
 .00001194,0.00001301,-0.00001125,0.00000088,0.00000269,-0.00000584,-0.
 00001417,-0.00000938,-0.00000261,0.00000172,0.00000499,0.00001040,0.00
 000684,0.00000924,0.00000150,-0.00000425,0.00000914,0.00001203,0.00000
 906,-0.00000684,0.00000241,0.00001120,-0.00000955,0.00000031,0.0000001
 7,-0.00001194,-0.00000137,-0.00000194,0.00000585,0.00001245,0.00001679
 ,0.00000467,0.00000190,0.00000211,-0.00000922,-0.00001497,-0.00002212,
 -0.00001506,-0.00000616,-0.00001222,0.00000279,-0.00000647,-0.00001530
 ,0.00000916,0.00000961,0.00000223,0.00000919,0.00000643,0.00000223,-0.
 00000792,0.00000328,0.00000367,0.00000881,-0.00000715,-0.00000970,0.00
 000089,0.00000203,-0.00000023\\\@


 THE BEST WAY TO CONVINCE A FOOL THAT HE IS WRONG 
 IS TO LET HIM HAVE HIS OWN WAY.

                                         JOSH BILLINGS
 Job cpu time:       0 days  0 hours 47 minutes 18.9 seconds.
 File lengths (MBytes):  RWF=    129 Int=      0 D2E=      0 Chk=      4 Scr=      1
 Normal termination of Gaussian 09 at Tue Jun 14 02:11:38 2016.
