 Entering Gaussian System, Link 0=g09
 Initial command:
 /usr/local/gaussian/g09.D01/g09/l1.exe "/nqs/iawad/Gau-30974.inp" -scrdir="/nqs/iawad/"
 Entering Link 1 = /usr/local/gaussian/g09.D01/g09/l1.exe PID=     30975.
  
 Copyright (c) 1988,1990,1992,1993,1995,1998,2003,2009,2013,
            Gaussian, Inc.  All Rights Reserved.
  
 This is part of the Gaussian(R) 09 program.  It is based on
 the Gaussian(R) 03 system (copyright 2003, Gaussian, Inc.),
 the Gaussian(R) 98 system (copyright 1998, Gaussian, Inc.),
 the Gaussian(R) 94 system (copyright 1995, Gaussian, Inc.),
 the Gaussian 92(TM) system (copyright 1992, Gaussian, Inc.),
 the Gaussian 90(TM) system (copyright 1990, Gaussian, Inc.),
 the Gaussian 88(TM) system (copyright 1988, Gaussian, Inc.),
 the Gaussian 86(TM) system (copyright 1986, Carnegie Mellon
 University), and the Gaussian 82(TM) system (copyright 1983,
 Carnegie Mellon University). Gaussian is a federally registered
 trademark of Gaussian, Inc.
  
 This software contains proprietary and confidential information,
 including trade secrets, belonging to Gaussian, Inc.
  
 This software is provided under written license and may be
 used, copied, transmitted, or stored only in accord with that
 written license.
  
 The following legend is applicable only to US Government
 contracts under FAR:
  
                    RESTRICTED RIGHTS LEGEND
  
 Use, reproduction and disclosure by the US Government is
 subject to restrictions as set forth in subparagraphs (a)
 and (c) of the Commercial Computer Software - Restricted
 Rights clause in FAR 52.227-19.
  
 Gaussian, Inc.
 340 Quinnipiac St., Bldg. 40, Wallingford CT 06492
  
  
 ---------------------------------------------------------------
 Warning -- This program may not be used in any manner that
 competes with the business of Gaussian, Inc. or will provide
 assistance to any competitor of Gaussian, Inc.  The licensee
 of this program is prohibited from giving any competitor of
 Gaussian, Inc. access to this program.  By using this program,
 the user acknowledges that Gaussian, Inc. is engaged in the
 business of creating and licensing software in the field of
 computational chemistry and represents and warrants to the
 licensee that it is not a competitor of Gaussian, Inc. and that
 it will not use this program in any manner prohibited above.
 ---------------------------------------------------------------
  

 Cite this work as:
 Gaussian 09, Revision D.01,
 M. J. Frisch, G. W. Trucks, H. B. Schlegel, G. E. Scuseria, 
 M. A. Robb, J. R. Cheeseman, G. Scalmani, V. Barone, B. Mennucci, 
 G. A. Petersson, H. Nakatsuji, M. Caricato, X. Li, H. P. Hratchian, 
 A. F. Izmaylov, J. Bloino, G. Zheng, J. L. Sonnenberg, M. Hada, 
 M. Ehara, K. Toyota, R. Fukuda, J. Hasegawa, M. Ishida, T. Nakajima, 
 Y. Honda, O. Kitao, H. Nakai, T. Vreven, J. A. Montgomery, Jr., 
 J. E. Peralta, F. Ogliaro, M. Bearpark, J. J. Heyd, E. Brothers, 
 K. N. Kudin, V. N. Staroverov, T. Keith, R. Kobayashi, J. Normand, 
 K. Raghavachari, A. Rendell, J. C. Burant, S. S. Iyengar, J. Tomasi, 
 M. Cossi, N. Rega, J. M. Millam, M. Klene, J. E. Knox, J. B. Cross, 
 V. Bakken, C. Adamo, J. Jaramillo, R. Gomperts, R. E. Stratmann, 
 O. Yazyev, A. J. Austin, R. Cammi, C. Pomelli, J. W. Ochterski, 
 R. L. Martin, K. Morokuma, V. G. Zakrzewski, G. A. Voth, 
 P. Salvador, J. J. Dannenberg, S. Dapprich, A. D. Daniels, 
 O. Farkas, J. B. Foresman, J. V. Ortiz, J. Cioslowski, 
 and D. J. Fox, Gaussian, Inc., Wallingford CT, 2013.
 
 ******************************************
 Gaussian 09:  AM64L-G09RevD.01 24-Apr-2013
                14-Jun-2016 
 ******************************************
 %NPROCS=4
 Will use up to    4 processors via shared memory.
 %rwf=/nqs/iawad//boat4_Beta_optfreq_B3LYP_6-31G_d.rwf
 %nosave
 %chk=/home/iawad/scratch/MAIN/PRO_Halides/direct/optfreq/boat4_Beta/boat4_Beta_o
 ptfreq_B3LYP_6-31G_d.chk
 -----------------------------------------
 # opt=(MaxCycle=1000) freq B3LYP/6-31G(d)
 -----------------------------------------
 1/6=1000,14=-1,18=20,19=15,26=3,38=1/1,3;
 2/9=110,12=2,17=6,18=5,40=1/2;
 3/5=1,6=6,7=1,11=2,16=1,25=1,30=1,71=1,74=-5/1,2,3;
 4//1;
 5/5=2,38=5/2;
 6/7=2,8=2,9=2,10=2,28=1/1;
 7//1,2,3,16;
 1/6=1000,14=-1,18=20,19=15,26=3/3(2);
 2/9=110/2;
 99//99;
 2/9=110/2;
 3/5=1,6=6,7=1,11=2,16=1,25=1,30=1,71=1,74=-5/1,2,3;
 4/5=5,16=3,69=1/1;
 5/5=2,38=5/2;
 7//1,2,3,16;
 1/6=1000,14=-1,18=20,19=15,26=3/3(-5);
 2/9=110/2;
 6/7=2,8=2,9=2,10=2,19=2,28=1/1;
 99/9=1/99;
 ------------------------
 boat4_Beta_B3LYP_6-31G_d
 ------------------------
 Symbolic Z-matrix:
 Charge =  0 Multiplicity = 1
 O
 C                    1    B1
 C                    1    B2       2    A1
 C                    2    B3       1    A2       3    D1       0
 C                    3    B4       1    A3       2    D2       0
 C                    1    B5       5    A4       3    D3       0
 H                    4    B6       2    A5       1    D4       0
 H                    6    B7       1    A6       5    D5       0
 H                    2    B8       1    A7       5    D6       0
 H                    5    B9       3    A8       1    D7       0
 C                    6    B10      1    A9       5    D8       0
 H                    11   B11      6    A10      1    D9       0
 H                    11   B12      6    A11      1    D10      0
 H                    3    B13      1    A12      5    D11      0
 O                    5    B14      3    A13      1    D12      0
 H                    15   B15      5    A14      3    D13      0
 O                    11   B16      6    A15      1    D14      0
 H                    17   B17      11   A16      6    D15      0
 O                    3    B18      1    A17      5    D16      0
 H                    19   B19      3    A18      1    D17      0
 O                    4    B20      2    A19      1    D18      0
 H                    21   B21      4    A20      2    D19      0
 O                    2    B22      1    A21      5    D20      0
 H                    23   B23      2    A22      1    D21      0
       Variables:
  B1                    2.58829                  
  B2                    2.51141                  
  B3                    1.53174                  
  B4                    1.45842                  
  B5                    1.53709                  
  B6                    1.09817                  
  B7                    1.09718                  
  B8                    1.09552                  
  B9                    1.09714                  
  B10                   1.53083                  
  B11                   1.09533                  
  B12                   1.09563                  
  B13                   1.09659                  
  B14                   1.4203                   
  B15                   0.97257                  
  B16                   1.42618                  
  B17                   0.97557                  
  B18                   1.43919                  
  B19                   0.97279                  
  B20                   1.44037                  
  B21                   0.9781                   
  B22                   1.43851                  
  B23                   0.98183                  
  A1                   60.88222                  
  A2                   87.28521                  
  A3                   31.19609                  
  A4                  108.83609                  
  A5                  108.55926                  
  A6                  105.04394                  
  A7                   99.61936                  
  A8                  107.36963                  
  A9                  107.24574                  
  A10                 110.33621                  
  A11                 111.10209                  
  A12                 142.44392                  
  A13                 113.39055                  
  A14                 105.6409                   
  A15                 111.08373                  
  A16                 106.82743                  
  A17                  95.93407                  
  A18                 107.41062                  
  A19                 108.78292                  
  A20                 104.74818                  
  A21                 143.27538                  
  A22                 105.85527                  
  D1                  -15.62557                  
  D2                 -113.44716                  
  D3                   55.20139                  
  D4                  -97.60938                  
  D5                 -119.18315                  
  D6                   65.17277                  
  D7                 -115.64259                  
  D8                  125.65427                  
  D9                  -66.0843                   
  D10                  52.00984                  
  D11                   5.80163                  
  D12                 127.96911                  
  D13                 154.50188                  
  D14                 173.80578                  
  D15                 -83.2127                   
  D16                -122.24973                  
  D17                 103.49497                  
  D18                 149.1854                   
  D19                  48.40609                  
  D20                -162.16955                  
  D21                 -63.44472                  
 

 GradGradGradGradGradGradGradGradGradGradGradGradGradGradGradGradGradGrad
 Berny optimization.
 Initialization pass.
                           ----------------------------
                           !    Initial Parameters    !
                           ! (Angstroms and Degrees)  !
 --------------------------                            --------------------------
 ! Name  Definition              Value          Derivative Info.                !
 --------------------------------------------------------------------------------
 ! R1    R(1,5)                  1.4724         estimate D2E/DX2                !
 ! R2    R(1,6)                  1.5371         estimate D2E/DX2                !
 ! R3    R(2,4)                  1.5317         estimate D2E/DX2                !
 ! R4    R(2,6)                  1.5379         estimate D2E/DX2                !
 ! R5    R(2,9)                  1.0955         estimate D2E/DX2                !
 ! R6    R(2,23)                 1.4385         estimate D2E/DX2                !
 ! R7    R(3,4)                  1.5371         estimate D2E/DX2                !
 ! R8    R(3,5)                  1.4584         estimate D2E/DX2                !
 ! R9    R(3,14)                 1.0966         estimate D2E/DX2                !
 ! R10   R(3,19)                 1.4392         estimate D2E/DX2                !
 ! R11   R(4,7)                  1.0982         estimate D2E/DX2                !
 ! R12   R(4,21)                 1.4404         estimate D2E/DX2                !
 ! R13   R(5,10)                 1.0971         estimate D2E/DX2                !
 ! R14   R(5,15)                 1.4203         estimate D2E/DX2                !
 ! R15   R(6,8)                  1.0972         estimate D2E/DX2                !
 ! R16   R(6,11)                 1.5308         estimate D2E/DX2                !
 ! R17   R(11,12)                1.0953         estimate D2E/DX2                !
 ! R18   R(11,13)                1.0956         estimate D2E/DX2                !
 ! R19   R(11,17)                1.4262         estimate D2E/DX2                !
 ! R20   R(15,16)                0.9726         estimate D2E/DX2                !
 ! R21   R(17,18)                0.9756         estimate D2E/DX2                !
 ! R22   R(19,20)                0.9728         estimate D2E/DX2                !
 ! R23   R(21,22)                0.9781         estimate D2E/DX2                !
 ! R24   R(23,24)                0.9818         estimate D2E/DX2                !
 ! A1    A(5,1,6)              108.8361         estimate D2E/DX2                !
 ! A2    A(4,2,6)              109.8035         estimate D2E/DX2                !
 ! A3    A(4,2,9)              109.9647         estimate D2E/DX2                !
 ! A4    A(4,2,23)             108.3124         estimate D2E/DX2                !
 ! A5    A(6,2,9)              111.7486         estimate D2E/DX2                !
 ! A6    A(6,2,23)             111.4802         estimate D2E/DX2                !
 ! A7    A(9,2,23)             105.4003         estimate D2E/DX2                !
 ! A8    A(4,3,5)              109.0246         estimate D2E/DX2                !
 ! A9    A(4,3,14)             109.4952         estimate D2E/DX2                !
 ! A10   A(4,3,19)             108.6468         estimate D2E/DX2                !
 ! A11   A(5,3,14)             111.3473         estimate D2E/DX2                !
 ! A12   A(5,3,19)             111.3059         estimate D2E/DX2                !
 ! A13   A(14,3,19)            106.9614         estimate D2E/DX2                !
 ! A14   A(2,4,3)              114.751          estimate D2E/DX2                !
 ! A15   A(2,4,7)              108.5593         estimate D2E/DX2                !
 ! A16   A(2,4,21)             108.7829         estimate D2E/DX2                !
 ! A17   A(3,4,7)              109.3469         estimate D2E/DX2                !
 ! A18   A(3,4,21)             110.3462         estimate D2E/DX2                !
 ! A19   A(7,4,21)             104.5461         estimate D2E/DX2                !
 ! A20   A(1,5,3)              117.9375         estimate D2E/DX2                !
 ! A21   A(1,5,10)             103.0042         estimate D2E/DX2                !
 ! A22   A(1,5,15)             108.2324         estimate D2E/DX2                !
 ! A23   A(3,5,10)             107.3696         estimate D2E/DX2                !
 ! A24   A(3,5,15)             113.3905         estimate D2E/DX2                !
 ! A25   A(10,5,15)            105.7123         estimate D2E/DX2                !
 ! A26   A(1,6,2)              114.6454         estimate D2E/DX2                !
 ! A27   A(1,6,8)              105.0439         estimate D2E/DX2                !
 ! A28   A(1,6,11)             107.2457         estimate D2E/DX2                !
 ! A29   A(2,6,8)              109.2804         estimate D2E/DX2                !
 ! A30   A(2,6,11)             111.8799         estimate D2E/DX2                !
 ! A31   A(8,6,11)             108.3731         estimate D2E/DX2                !
 ! A32   A(6,11,12)            110.3362         estimate D2E/DX2                !
 ! A33   A(6,11,13)            111.1021         estimate D2E/DX2                !
 ! A34   A(6,11,17)            111.0837         estimate D2E/DX2                !
 ! A35   A(12,11,13)           106.6687         estimate D2E/DX2                !
 ! A36   A(12,11,17)           108.2935         estimate D2E/DX2                !
 ! A37   A(13,11,17)           109.2166         estimate D2E/DX2                !
 ! A38   A(5,15,16)            105.6409         estimate D2E/DX2                !
 ! A39   A(11,17,18)           106.8274         estimate D2E/DX2                !
 ! A40   A(3,19,20)            107.4106         estimate D2E/DX2                !
 ! A41   A(4,21,22)            104.7482         estimate D2E/DX2                !
 ! A42   A(2,23,24)            105.8553         estimate D2E/DX2                !
 ! D1    D(6,1,5,3)             55.2014         estimate D2E/DX2                !
 ! D2    D(6,1,5,10)           173.1891         estimate D2E/DX2                !
 ! D3    D(6,1,5,15)           -75.1752         estimate D2E/DX2                !
 ! D4    D(5,1,6,2)              0.783          estimate D2E/DX2                !
 ! D5    D(5,1,6,8)           -119.1832         estimate D2E/DX2                !
 ! D6    D(5,1,6,11)           125.6543         estimate D2E/DX2                !
 ! D7    D(6,2,4,3)             49.1506         estimate D2E/DX2                !
 ! D8    D(6,2,4,7)            -73.5058         estimate D2E/DX2                !
 ! D9    D(6,2,4,21)           173.289          estimate D2E/DX2                !
 ! D10   D(9,2,4,3)            -74.204          estimate D2E/DX2                !
 ! D11   D(9,2,4,7)            163.1396         estimate D2E/DX2                !
 ! D12   D(9,2,4,21)            49.9344         estimate D2E/DX2                !
 ! D13   D(23,2,4,3)           171.0976         estimate D2E/DX2                !
 ! D14   D(23,2,4,7)            48.4412         estimate D2E/DX2                !
 ! D15   D(23,2,4,21)          -64.7641         estimate D2E/DX2                !
 ! D16   D(4,2,6,1)            -49.0909         estimate D2E/DX2                !
 ! D17   D(4,2,6,8)             68.4921         estimate D2E/DX2                !
 ! D18   D(4,2,6,11)          -171.4858         estimate D2E/DX2                !
 ! D19   D(9,2,6,1)             73.2101         estimate D2E/DX2                !
 ! D20   D(9,2,6,8)           -169.2068         estimate D2E/DX2                !
 ! D21   D(9,2,6,11)           -49.1847         estimate D2E/DX2                !
 ! D22   D(23,2,6,1)          -169.1289         estimate D2E/DX2                !
 ! D23   D(23,2,6,8)           -51.5459         estimate D2E/DX2                !
 ! D24   D(23,2,6,11)           68.4762         estimate D2E/DX2                !
 ! D25   D(4,2,23,24)         -174.5562         estimate D2E/DX2                !
 ! D26   D(6,2,23,24)          -53.6428         estimate D2E/DX2                !
 ! D27   D(9,2,23,24)           67.7845         estimate D2E/DX2                !
 ! D28   D(5,3,4,2)             -0.6369         estimate D2E/DX2                !
 ! D29   D(5,3,4,7)            121.5939         estimate D2E/DX2                !
 ! D30   D(5,3,4,21)          -123.9429         estimate D2E/DX2                !
 ! D31   D(14,3,4,2)           121.405          estimate D2E/DX2                !
 ! D32   D(14,3,4,7)          -116.3641         estimate D2E/DX2                !
 ! D33   D(14,3,4,21)           -1.9009         estimate D2E/DX2                !
 ! D34   D(19,3,4,2)          -122.1026         estimate D2E/DX2                !
 ! D35   D(19,3,4,7)             0.1283         estimate D2E/DX2                !
 ! D36   D(19,3,4,21)          114.5915         estimate D2E/DX2                !
 ! D37   D(4,3,5,1)            -55.2912         estimate D2E/DX2                !
 ! D38   D(4,3,5,10)          -170.9338         estimate D2E/DX2                !
 ! D39   D(4,3,5,15)            72.6779         estimate D2E/DX2                !
 ! D40   D(14,3,5,1)          -176.2069         estimate D2E/DX2                !
 ! D41   D(14,3,5,10)           68.1505         estimate D2E/DX2                !
 ! D42   D(14,3,5,15)          -48.2378         estimate D2E/DX2                !
 ! D43   D(19,3,5,1)            64.5431         estimate D2E/DX2                !
 ! D44   D(19,3,5,10)          -51.0995         estimate D2E/DX2                !
 ! D45   D(19,3,5,15)         -167.4878         estimate D2E/DX2                !
 ! D46   D(4,3,19,20)         -164.4942         estimate D2E/DX2                !
 ! D47   D(5,3,19,20)           75.4478         estimate D2E/DX2                !
 ! D48   D(14,3,19,20)         -46.3849         estimate D2E/DX2                !
 ! D49   D(2,4,21,22)           48.4061         estimate D2E/DX2                !
 ! D50   D(3,4,21,22)          175.1165         estimate D2E/DX2                !
 ! D51   D(7,4,21,22)          -67.4154         estimate D2E/DX2                !
 ! D52   D(1,5,15,16)          -72.6605         estimate D2E/DX2                !
 ! D53   D(3,5,15,16)          154.5019         estimate D2E/DX2                !
 ! D54   D(10,5,15,16)          37.1423         estimate D2E/DX2                !
 ! D55   D(1,6,11,12)          -66.0843         estimate D2E/DX2                !
 ! D56   D(1,6,11,13)           52.0098         estimate D2E/DX2                !
 ! D57   D(1,6,11,17)          173.8058         estimate D2E/DX2                !
 ! D58   D(2,6,11,12)           60.4418         estimate D2E/DX2                !
 ! D59   D(2,6,11,13)          178.5359         estimate D2E/DX2                !
 ! D60   D(2,6,11,17)          -59.6682         estimate D2E/DX2                !
 ! D61   D(8,6,11,12)         -179.0064         estimate D2E/DX2                !
 ! D62   D(8,6,11,13)          -60.9123         estimate D2E/DX2                !
 ! D63   D(8,6,11,17)           60.8836         estimate D2E/DX2                !
 ! D64   D(6,11,17,18)         -83.2127         estimate D2E/DX2                !
 ! D65   D(12,11,17,18)        155.4721         estimate D2E/DX2                !
 ! D66   D(13,11,17,18)         39.6765         estimate D2E/DX2                !
 --------------------------------------------------------------------------------
 Trust Radius=3.00D-01 FncErr=1.00D-07 GrdErr=1.00D-06
 Number of steps in this run=    144 maximum allowed number of steps=    144.
 GradGradGradGradGradGradGradGradGradGradGradGradGradGradGradGradGradGrad

                          Input orientation:                          
 ---------------------------------------------------------------------
 Center     Atomic      Atomic             Coordinates (Angstroms)
 Number     Number       Type             X           Y           Z
 ---------------------------------------------------------------------
      1          8           0        0.000000    0.000000    0.000000
      2          6           0        0.000000    0.000000    2.588287
      3          6           0        2.194023    0.000000    1.222070
      4          6           0        1.473475   -0.412111    2.515737
      5          6           0        1.250421    0.693037    0.352420
      6          6           0       -0.720619   -0.412040    1.293670
      7          1           0        1.538060   -1.501667    2.636883
      8          1           0       -0.785177   -1.506346    1.247537
      9          1           0       -0.078540    1.077258    2.771351
     10          1           0        1.740025    0.828680   -0.620004
     11          6           0       -2.139507    0.158385    1.224228
     12          1           0       -2.111388    1.253042    1.250171
     13          1           0       -2.631575   -0.121201    0.286088
     14          1           0        3.052078    0.636961    1.468082
     15          8           0        0.922575    1.999285    0.803520
     16          1           0        0.657740    2.492561    0.008258
     17          8           0       -2.929124   -0.295274    2.321810
     18          1           0       -3.270061   -1.176553    2.079247
     19          8           0        2.716572   -1.182495    0.589689
     20          1           0        3.367152   -0.894481   -0.073720
     21          8           0        2.161184    0.120905    3.663608
     22          1           0        1.596913   -0.119182    4.425600
     23          8           0       -0.588534   -0.627330    3.741278
     24          1           0       -1.545976   -0.413093    3.703794
 ---------------------------------------------------------------------
                    Distance matrix (angstroms):
                    1          2          3          4          5
     1  O    0.000000
     2  C    2.588287   0.000000
     3  C    2.511413   2.584626   0.000000
     4  C    2.944469   1.531740   1.537075   0.000000
     5  C    1.472431   2.653857   1.458416   2.439477   0.000000
     6  C    1.537092   1.537889   2.944494   2.511473   2.447886
     7  H    3.402026   2.150115   2.164946   1.098171   3.180917
     8  H    2.107588   2.164068   3.338467   2.811973   3.127648
     9  H    2.974397   1.095520   2.953862   2.166174   2.786573
    10  H    2.024550   3.742663   2.070280   3.382822   1.097141
    11  C    2.470083   2.542289   4.336424   3.879059   3.540835
    12  H    2.755178   2.796182   4.484136   4.150379   3.524390
    13  H    2.649853   3.498571   4.917027   4.680535   3.967024
    14  H    3.446181   3.312968   1.096585   2.165668   2.119862
    15  O    2.343914   2.834374   2.406015   3.008323   1.420302
    16  H    2.577896   3.647195   3.169601   3.923009   1.925618
    17  O    3.749367   2.956004   5.248166   4.408417   4.724812
    18  H    4.049795   3.512364   5.654666   4.824524   5.187683
    19  O    3.020892   3.573857   1.439186   2.418356   2.392387
    20  H    3.484716   4.384529   1.963517   3.244068   2.679992
    21  O    4.255274   2.416950   2.444750   1.440366   3.481492
    22  H    4.706407   2.437223   3.260882   1.936135   4.167800
    23  O    3.838890   1.438507   3.805598   2.408351   4.075473
    24  H    4.034697   1.950653   4.507461   3.244776   4.502785
                    6          7          8          9         10
     6  C    0.000000
     7  H    2.844844   0.000000
     8  H    1.097179   2.706979   0.000000
     9  H    2.194041   3.046691   3.081615   0.000000
    10  H    3.355042   4.009816   3.913655   3.856197   0.000000
    11  C    1.530833   4.275027   2.146178   2.735964   4.347557
    12  H    2.169938   4.778061   3.061546   2.545066   4.302444
    13  H    2.179808   4.981744   2.500439   3.759099   4.564446
    14  H    3.919702   2.869160   4.400788   3.419523   2.473528
    15  O    2.958855   3.999588   3.924668   2.392639   2.016175
    16  H    3.462494   4.861943   4.428214   3.190592   2.081959
    17  O    2.438893   4.637929   2.686497   3.195584   5.631917
    18  H    2.775115   4.851255   2.641051   3.967931   6.033894
    19  O    3.592140   2.383646   3.577693   4.204614   2.542012
    20  H    4.337323   3.325902   4.400220   4.884155   2.432129
    21  O    3.769008   2.018709   4.143233   2.593664   4.362069
    22  H    3.907135   2.261468   4.206978   2.641051   5.135859
    23  O    2.460605   2.550795   2.651430   2.026443   5.153924
    24  H    2.547531   3.440141   2.794140   2.289971   5.570910
                   11         12         13         14         15
    11  C    0.000000
    12  H    1.095326   0.000000
    13  H    1.095631   1.757440   0.000000
    14  H    5.219296   5.204654   5.854557   0.000000
    15  O    3.597534   3.156154   4.170873   2.613877   0.000000
    16  H    3.840775   3.278235   4.210527   3.362617   0.972575
    17  O    1.426179   2.052897   2.064704   6.113320   4.733475
    18  H    1.947118   2.816527   2.176431   6.605437   5.412174
    19  O    5.077608   5.447686   5.460879   2.048063   3.658944
    20  H    5.754692   6.031496   6.059055   2.195846   3.888366
    21  O    4.944483   5.035999   5.868287   2.424941   3.639033
    22  H    4.928149   5.071277   5.917405   3.381741   4.249952
    23  O    3.059150   3.472823   4.045803   4.474361   4.220542
    24  H    2.612875   3.019266   3.597839   5.219495   4.508315
                   16         17         18         19         20
    16  H    0.000000
    17  O    5.098052   0.000000
    18  H    5.760123   0.975566   0.000000
    19  O    4.252398   5.971707   6.169165   0.000000
    20  H    4.338166   6.763187   6.983368   0.972788   0.000000
    21  O    4.609412   5.280611   5.804482   3.384713   4.056228
    22  H    5.216911   4.994191   5.505528   4.135032   4.896806
    23  O    5.022186   2.757446   3.202277   4.600484   5.502093
    24  H    5.191934   1.958790   2.488874   5.334693   6.216122
                   21         22         23         24
    21  O    0.000000
    22  H    0.978098   0.000000
    23  O    2.850761   2.345782   0.000000
    24  H    3.745638   3.238077   0.981834   0.000000
 Stoichiometry    C6H12O6
 Framework group  C1[X(C6H12O6)]
 Deg. of freedom    66
 Full point group                 C1      NOp   1
 Largest Abelian subgroup         C1      NOp   1
 Largest concise Abelian subgroup C1      NOp   1
                         Standard orientation:                         
 ---------------------------------------------------------------------
 Center     Atomic      Atomic             Coordinates (Angstroms)
 Number     Number       Type             X           Y           Z
 ---------------------------------------------------------------------
      1          8           0        0.002543   -1.666527   -0.478657
      2          6           0        0.498642    0.772809    0.230395
      3          6           0       -1.914607   -0.085219   -0.116449
      4          6           0       -0.942855    1.104614   -0.167373
      5          6           0       -1.185036   -1.277396    0.299987
      6          6           0        0.974363   -0.476724   -0.529513
      7          1           0       -0.937361    1.526723   -1.181165
      8          1           0        1.074625   -0.236265   -1.595312
      9          1           0        0.565655    0.638004    1.315523
     10          1           0       -1.857188   -2.134761    0.170158
     11          6           0        2.328491   -0.974568   -0.017716
     12          1           0        2.260075   -1.241285    1.042435
     13          1           0        2.642885   -1.879288   -0.549735
     14          1           0       -2.735493    0.142004    0.574214
     15          8           0       -0.831771   -1.270461    1.675637
     16          1           0       -0.745157   -2.205497    1.928833
     17          8           0        3.332125    0.028202   -0.163174
     18          1           0        3.656830   -0.028311   -1.081380
     19          8           0       -2.498717   -0.258421   -1.420318
     20          1           0       -3.275865   -0.834332   -1.316952
     21          8           0       -1.419494    2.176615    0.668261
     22          1           0       -0.710089    2.849347    0.639069
     23          8           0        1.322991    1.914237   -0.064384
     24          1           0        2.245675    1.633392    0.119403
 ---------------------------------------------------------------------
 Rotational constants (GHZ):      1.2668081      0.7607674      0.5973486
 Standard basis: 6-31G(d) (6D, 7F)
 There are   204 symmetry adapted cartesian basis functions of A   symmetry.
 There are   204 symmetry adapted basis functions of A   symmetry.
   204 basis functions,   384 primitive gaussians,   204 cartesian basis functions
    48 alpha electrons       48 beta electrons
       nuclear repulsion energy       834.1354571483 Hartrees.
 NAtoms=   24 NActive=   24 NUniq=   24 SFac= 1.00D+00 NAtFMM=   60 NAOKFM=F Big=F
 Integral buffers will be    131072 words long.
 Raffenetti 2 integral format.
 Two-electron integral symmetry is turned on.
 One-electron integrals computed using PRISM.
 NBasis=   204 RedAO= T EigKep=  1.25D-03  NBF=   204
 NBsUse=   204 1.00D-06 EigRej= -1.00D+00 NBFU=   204
 ExpMin= 1.61D-01 ExpMax= 5.48D+03 ExpMxC= 8.25D+02 IAcc=1 IRadAn=         1 AccDes= 0.00D+00
 Harris functional with IExCor=  402 and IRadAn=       1 diagonalized for initial guess.
 HarFok:  IExCor=  402 AccDes= 0.00D+00 IRadAn=         1 IDoV= 1 UseB2=F ITyADJ=14
 ICtDFT=  3500011 ScaDFX=  1.000000  1.000000  1.000000  1.000000
 FoFCou: FMM=F IPFlag=           0 FMFlag=      100000 FMFlg1=           0
         NFxFlg=           0 DoJE=T BraDBF=F KetDBF=T FulRan=T
         wScrn=  0.000000 ICntrl=     500 IOpCl=  0 I1Cent=   200000004 NGrid=           0
         NMat0=    1 NMatS0=      1 NMatT0=    0 NMatD0=    1 NMtDS0=    0 NMtDT0=    0
 Petite list used in FoFCou.
 Requested convergence on RMS density matrix=1.00D-08 within 128 cycles.
 Requested convergence on MAX density matrix=1.00D-06.
 Requested convergence on             energy=1.00D-06.
 No special actions if energy rises.
 Integral accuracy reduced to 1.0D-05 until final iterations.
 Initial convergence to 1.0D-05 achieved.  Increase integral accuracy.
 SCF Done:  E(RB3LYP) =  -687.114673682     A.U. after   14 cycles
            NFock= 14  Conv=0.33D-08     -V/T= 2.0087

 **********************************************************************

            Population analysis using the SCF density.

 **********************************************************************

 Orbital symmetries:
       Occupied  (A) (A) (A) (A) (A) (A) (A) (A) (A) (A) (A) (A)
                 (A) (A) (A) (A) (A) (A) (A) (A) (A) (A) (A) (A)
                 (A) (A) (A) (A) (A) (A) (A) (A) (A) (A) (A) (A)
                 (A) (A) (A) (A) (A) (A) (A) (A) (A) (A) (A) (A)
       Virtual   (A) (A) (A) (A) (A) (A) (A) (A) (A) (A) (A) (A)
                 (A) (A) (A) (A) (A) (A) (A) (A) (A) (A) (A) (A)
                 (A) (A) (A) (A) (A) (A) (A) (A) (A) (A) (A) (A)
                 (A) (A) (A) (A) (A) (A) (A) (A) (A) (A) (A) (A)
                 (A) (A) (A) (A) (A) (A) (A) (A) (A) (A) (A) (A)
                 (A) (A) (A) (A) (A) (A) (A) (A) (A) (A) (A) (A)
                 (A) (A) (A) (A) (A) (A) (A) (A) (A) (A) (A) (A)
                 (A) (A) (A) (A) (A) (A) (A) (A) (A) (A) (A) (A)
                 (A) (A) (A) (A) (A) (A) (A) (A) (A) (A) (A) (A)
                 (A) (A) (A) (A) (A) (A) (A) (A) (A) (A) (A) (A)
                 (A) (A) (A) (A) (A) (A) (A) (A) (A) (A) (A) (A)
                 (A) (A) (A) (A) (A) (A) (A) (A) (A) (A) (A) (A)
                 (A) (A) (A) (A) (A) (A) (A) (A) (A) (A) (A) (A)
 The electronic state is 1-A.
 Alpha  occ. eigenvalues --  -19.17559 -19.16048 -19.15850 -19.15208 -19.13803
 Alpha  occ. eigenvalues --  -19.12932 -10.28646 -10.24403 -10.24259 -10.24255
 Alpha  occ. eigenvalues --  -10.23298 -10.23059  -1.05932  -1.04595  -1.02339
 Alpha  occ. eigenvalues --   -1.01399  -0.99139  -0.98120  -0.78092  -0.76976
 Alpha  occ. eigenvalues --   -0.69547  -0.64192  -0.61956  -0.55458  -0.55272
 Alpha  occ. eigenvalues --   -0.53992  -0.52339  -0.50809  -0.49353  -0.46655
 Alpha  occ. eigenvalues --   -0.45578  -0.44020  -0.43320  -0.41415  -0.40383
 Alpha  occ. eigenvalues --   -0.39830  -0.38348  -0.36959  -0.35077  -0.34721
 Alpha  occ. eigenvalues --   -0.32487  -0.31804  -0.30759  -0.29047  -0.27998
 Alpha  occ. eigenvalues --   -0.26416  -0.26143  -0.24993
 Alpha virt. eigenvalues --    0.03955   0.05301   0.05917   0.08573   0.10646
 Alpha virt. eigenvalues --    0.11643   0.13629   0.14567   0.14726   0.15236
 Alpha virt. eigenvalues --    0.16376   0.16882   0.18212   0.19426   0.20454
 Alpha virt. eigenvalues --    0.21646   0.22367   0.23587   0.25241   0.27411
 Alpha virt. eigenvalues --    0.29945   0.30711   0.32221   0.35100   0.52290
 Alpha virt. eigenvalues --    0.52892   0.53494   0.55326   0.57085   0.58991
 Alpha virt. eigenvalues --    0.59717   0.62118   0.63038   0.63430   0.66835
 Alpha virt. eigenvalues --    0.70694   0.71354   0.72472   0.74916   0.76940
 Alpha virt. eigenvalues --    0.77946   0.78616   0.79390   0.81208   0.82735
 Alpha virt. eigenvalues --    0.83420   0.84892   0.86011   0.86781   0.87687
 Alpha virt. eigenvalues --    0.88310   0.89710   0.90873   0.91905   0.93018
 Alpha virt. eigenvalues --    0.96164   0.97920   0.99703   1.00115   1.00735
 Alpha virt. eigenvalues --    1.02418   1.04307   1.05940   1.06324   1.09115
 Alpha virt. eigenvalues --    1.10201   1.14033   1.14888   1.17417   1.19797
 Alpha virt. eigenvalues --    1.22511   1.25456   1.29222   1.30773   1.32528
 Alpha virt. eigenvalues --    1.35924   1.41313   1.42664   1.46162   1.50428
 Alpha virt. eigenvalues --    1.52510   1.55210   1.56936   1.60333   1.61387
 Alpha virt. eigenvalues --    1.62312   1.64189   1.67554   1.70665   1.72321
 Alpha virt. eigenvalues --    1.73131   1.75392   1.77243   1.77443   1.80470
 Alpha virt. eigenvalues --    1.83980   1.85620   1.87652   1.88850   1.89945
 Alpha virt. eigenvalues --    1.90253   1.91732   1.93323   1.96444   1.98575
 Alpha virt. eigenvalues --    2.00951   2.02367   2.02707   2.05909   2.07084
 Alpha virt. eigenvalues --    2.09508   2.11453   2.15871   2.18303   2.19577
 Alpha virt. eigenvalues --    2.24569   2.27422   2.30089   2.30723   2.34702
 Alpha virt. eigenvalues --    2.37571   2.41487   2.42690   2.45505   2.47729
 Alpha virt. eigenvalues --    2.49820   2.51126   2.52107   2.53548   2.54488
 Alpha virt. eigenvalues --    2.57314   2.60329   2.63068   2.66816   2.73125
 Alpha virt. eigenvalues --    2.76429   2.82780   2.85346   2.88970   2.92879
 Alpha virt. eigenvalues --    2.94596   3.01194   3.05215   3.08137   3.68397
 Alpha virt. eigenvalues --    3.76349   3.83590   3.88688   3.96803   4.05004
 Alpha virt. eigenvalues --    4.26401   4.34748   4.45473   4.55972   4.57278
 Alpha virt. eigenvalues --    4.81883
          Condensed to atoms (all electrons):
               1          2          3          4          5          6
     1  O    8.349904  -0.020827  -0.028127  -0.008607   0.217753   0.161958
     2  C   -0.020827   4.980276  -0.034089   0.341238   0.001156   0.269933
     3  C   -0.028127  -0.034089   4.992565   0.298750   0.277241  -0.021722
     4  C   -0.008607   0.341238   0.298750   4.911490  -0.038137  -0.030537
     5  C    0.217753   0.001156   0.277241  -0.038137   4.847828  -0.023108
     6  C    0.161958   0.269933  -0.021722  -0.030537  -0.023108   5.060378
     7  H    0.000599  -0.041580  -0.047826   0.348655   0.001323  -0.003781
     8  H   -0.028930  -0.046823   0.001249  -0.007973   0.000294   0.353760
     9  H    0.002013   0.355613  -0.002569  -0.042043  -0.003640  -0.044000
    10  H   -0.047848   0.000465  -0.059259   0.007069   0.373636   0.005696
    11  C   -0.027559  -0.020545   0.000178   0.003594   0.000155   0.317902
    12  H    0.003817  -0.009104   0.000034  -0.000021   0.000478  -0.042041
    13  H    0.002966   0.004487   0.000002  -0.000121  -0.000008  -0.041874
    14  H    0.002922   0.002709   0.354920  -0.039055  -0.043285   0.000396
    15  O   -0.069439  -0.009203  -0.039136   0.002314   0.170787   0.004856
    16  H    0.005691   0.000477   0.007048  -0.000431  -0.009936  -0.001113
    17  O    0.001201  -0.002142  -0.000001   0.000011  -0.000003  -0.040262
    18  H   -0.000018  -0.000860   0.000001   0.000000  -0.000002  -0.000761
    19  O    0.001077   0.001391   0.218511  -0.035564  -0.042160   0.001203
    20  H   -0.000024  -0.000275  -0.021902   0.007174  -0.002931  -0.000013
    21  O    0.000027  -0.033593  -0.028215   0.216303   0.000820   0.003936
    22  H   -0.000009  -0.010129   0.006340  -0.028486  -0.000312   0.000782
    23  O    0.000855   0.206545   0.002678  -0.038062  -0.000083  -0.030181
    24  H   -0.000020  -0.020244  -0.000227   0.004674   0.000078  -0.006602
               7          8          9         10         11         12
     1  O    0.000599  -0.028930   0.002013  -0.047848  -0.027559   0.003817
     2  C   -0.041580  -0.046823   0.355613   0.000465  -0.020545  -0.009104
     3  C   -0.047826   0.001249  -0.002569  -0.059259   0.000178   0.000034
     4  C    0.348655  -0.007973  -0.042043   0.007069   0.003594  -0.000021
     5  C    0.001323   0.000294  -0.003640   0.373636   0.000155   0.000478
     6  C   -0.003781   0.353760  -0.044000   0.005696   0.317902  -0.042041
     7  H    0.614525   0.005051   0.006947  -0.000382  -0.000164   0.000005
     8  H    0.005051   0.623742   0.006567  -0.000213  -0.058889   0.006092
     9  H    0.006947   0.006567   0.599811   0.000153  -0.010227   0.005227
    10  H   -0.000382  -0.000213   0.000153   0.656586  -0.000141   0.000025
    11  C   -0.000164  -0.058889  -0.010227  -0.000141   4.963709   0.365657
    12  H    0.000005   0.006092   0.005227   0.000025   0.365657   0.565807
    13  H    0.000006  -0.005097   0.000002   0.000002   0.366760  -0.037275
    14  H    0.004100  -0.000004   0.000219  -0.003372   0.000013  -0.000003
    15  O    0.000024  -0.000113   0.009800  -0.037563  -0.000801   0.002630
    16  H    0.000009   0.000044   0.000136  -0.012293   0.000052   0.000297
    17  O   -0.000009   0.003376   0.000155   0.000001   0.208886  -0.031876
    18  H    0.000001   0.003780   0.000068   0.000000  -0.026496   0.006504
    19  O    0.003329   0.000328  -0.000029  -0.000139   0.000006   0.000000
    20  H    0.000102  -0.000005   0.000010   0.005853  -0.000001   0.000000
    21  O   -0.041024  -0.000024   0.001737  -0.000100  -0.000062  -0.000002
    22  H   -0.003271  -0.000007  -0.000254   0.000009  -0.000010   0.000000
    23  O   -0.000180   0.003495  -0.044425   0.000004   0.000212   0.000100
    24  H   -0.000125  -0.000184  -0.002327   0.000000  -0.004777  -0.000185
              13         14         15         16         17         18
     1  O    0.002966   0.002922  -0.069439   0.005691   0.001201  -0.000018
     2  C    0.004487   0.002709  -0.009203   0.000477  -0.002142  -0.000860
     3  C    0.000002   0.354920  -0.039136   0.007048  -0.000001   0.000001
     4  C   -0.000121  -0.039055   0.002314  -0.000431   0.000011   0.000000
     5  C   -0.000008  -0.043285   0.170787  -0.009936  -0.000003  -0.000002
     6  C   -0.041874   0.000396   0.004856  -0.001113  -0.040262  -0.000761
     7  H    0.000006   0.004100   0.000024   0.000009  -0.000009   0.000001
     8  H   -0.005097  -0.000004  -0.000113   0.000044   0.003376   0.003780
     9  H    0.000002   0.000219   0.009800   0.000136   0.000155   0.000068
    10  H    0.000002  -0.003372  -0.037563  -0.012293   0.000001   0.000000
    11  C    0.366760   0.000013  -0.000801   0.000052   0.208886  -0.026496
    12  H   -0.037275  -0.000003   0.002630   0.000297  -0.031876   0.006504
    13  H    0.601919   0.000000   0.000044   0.000004  -0.028829  -0.010524
    14  H    0.000000   0.583949   0.006104  -0.000244   0.000000   0.000000
    15  O    0.000044   0.006104   8.335422   0.227133   0.000005   0.000000
    16  H    0.000004  -0.000244   0.227133   0.380237   0.000001   0.000000
    17  O   -0.028829   0.000000   0.000005   0.000001   8.239663   0.237327
    18  H   -0.010524   0.000000   0.000000   0.000000   0.237327   0.385028
    19  O    0.000000  -0.032730   0.001526  -0.000125   0.000000   0.000000
    20  H    0.000000  -0.007313  -0.000068  -0.000015   0.000000   0.000000
    21  O    0.000000   0.003329   0.000085   0.000008   0.000000   0.000000
    22  H    0.000000  -0.000112   0.000005  -0.000001   0.000005   0.000000
    23  O   -0.000221  -0.000049   0.000093  -0.000005  -0.015994   0.001596
    24  H    0.000632   0.000004  -0.000009   0.000000   0.047238  -0.002462
              19         20         21         22         23         24
     1  O    0.001077  -0.000024   0.000027  -0.000009   0.000855  -0.000020
     2  C    0.001391  -0.000275  -0.033593  -0.010129   0.206545  -0.020244
     3  C    0.218511  -0.021902  -0.028215   0.006340   0.002678  -0.000227
     4  C   -0.035564   0.007174   0.216303  -0.028486  -0.038062   0.004674
     5  C   -0.042160  -0.002931   0.000820  -0.000312  -0.000083   0.000078
     6  C    0.001203  -0.000013   0.003936   0.000782  -0.030181  -0.006602
     7  H    0.003329   0.000102  -0.041024  -0.003271  -0.000180  -0.000125
     8  H    0.000328  -0.000005  -0.000024  -0.000007   0.003495  -0.000184
     9  H   -0.000029   0.000010   0.001737  -0.000254  -0.044425  -0.002327
    10  H   -0.000139   0.005853  -0.000100   0.000009   0.000004   0.000000
    11  C    0.000006  -0.000001  -0.000062  -0.000010   0.000212  -0.004777
    12  H    0.000000   0.000000  -0.000002   0.000000   0.000100  -0.000185
    13  H    0.000000   0.000000   0.000000   0.000000  -0.000221   0.000632
    14  H   -0.032730  -0.007313   0.003329  -0.000112  -0.000049   0.000004
    15  O    0.001526  -0.000068   0.000085   0.000005   0.000093  -0.000009
    16  H   -0.000125  -0.000015   0.000008  -0.000001  -0.000005   0.000000
    17  O    0.000000   0.000000   0.000000   0.000005  -0.015994   0.047238
    18  H    0.000000   0.000000   0.000000   0.000000   0.001596  -0.002462
    19  O    8.279857   0.228805   0.000722  -0.000137  -0.000008   0.000001
    20  H    0.228805   0.397569  -0.000163   0.000013   0.000001   0.000000
    21  O    0.000722  -0.000163   8.303419   0.234113  -0.003225   0.000021
    22  H   -0.000137   0.000013   0.234113   0.378653   0.017718  -0.000314
    23  O   -0.000008   0.000001  -0.003225   0.017718   8.359743   0.223043
    24  H    0.000001   0.000000   0.000021  -0.000314   0.223043   0.341696
 Mulliken charges:
               1
     1  O   -0.519373
     2  C    0.085125
     3  C    0.123557
     4  C    0.127764
     5  C    0.272054
     6  C    0.105197
     7  H    0.153667
     8  H    0.140486
     9  H    0.161059
    10  H    0.111812
    11  C   -0.077452
    12  H    0.163834
    13  H    0.147125
    14  H    0.167504
    15  O   -0.604495
    16  H    0.403025
    17  O   -0.618753
    18  H    0.406817
    19  O   -0.625864
    20  H    0.393182
    21  O   -0.658113
    22  H    0.405404
    23  O   -0.683651
    24  H    0.420088
 Sum of Mulliken charges =   0.00000
 Mulliken charges with hydrogens summed into heavy atoms:
               1
     1  O   -0.519373
     2  C    0.246184
     3  C    0.291061
     4  C    0.281431
     5  C    0.383867
     6  C    0.245683
    11  C    0.233507
    15  O   -0.201470
    17  O   -0.211936
    19  O   -0.232681
    21  O   -0.252708
    23  O   -0.263563
 Electronic spatial extent (au):  <R**2>=           2029.2518
 Charge=              0.0000 electrons
 Dipole moment (field-independent basis, Debye):
    X=              1.0063    Y=             -3.1788    Z=             -0.2783  Tot=              3.3458
 Quadrupole moment (field-independent basis, Debye-Ang):
   XX=            -60.3264   YY=            -68.6268   ZZ=            -71.6831
   XY=              5.7231   XZ=             -4.5459   YZ=             -3.5828
 Traceless Quadrupole moment (field-independent basis, Debye-Ang):
   XX=              6.5524   YY=             -1.7480   ZZ=             -4.8043
   XY=              5.7231   XZ=             -4.5459   YZ=             -3.5828
 Octapole moment (field-independent basis, Debye-Ang**2):
  XXX=            -11.5219  YYY=             -6.7783  ZZZ=              2.0218  XYY=             -3.0574
  XXY=            -27.3406  XXZ=            -25.9297  XZZ=             16.9941  YZZ=             -6.3631
  YYZ=             14.6408  XYZ=              3.9339
 Hexadecapole moment (field-independent basis, Debye-Ang**3):
 XXXX=          -1187.1839 YYYY=           -666.8611 ZZZZ=           -311.6025 XXXY=             72.0460
 XXXZ=            -57.7701 YYYX=             27.6866 YYYZ=            -27.0939 ZZZX=            -12.0866
 ZZZY=            -15.2256 XXYY=           -335.4693 XXZZ=           -252.0334 YYZZ=           -151.0738
 XXYZ=             13.2772 YYXZ=              4.6309 ZZXY=             10.9318
 N-N= 8.341354571483D+02 E-N=-3.280277447364D+03  KE= 6.811640389876D+02
 Calling FoFJK, ICntrl=      2127 FMM=F ISym2X=0 I1Cent= 0 IOpClX= 0 NMat=1 NMatS=1 NMatT=0.
 ***** Axes restored to original set *****
 -------------------------------------------------------------------
 Center     Atomic                   Forces (Hartrees/Bohr)
 Number     Number              X              Y              Z
 -------------------------------------------------------------------
      1        8           0.014907802   -0.002358788    0.054665374
      2        6          -0.002963823    0.000329712    0.000156471
      3        6           0.016253465   -0.024234837    0.033187028
      4        6           0.007752499   -0.007731514    0.031883309
      5        6          -0.041340061    0.030950802   -0.067583098
      6        6           0.002628805    0.004933001   -0.028929704
      7        1          -0.005209151   -0.002675536   -0.011004164
      8        1           0.002904257   -0.000186703    0.001998361
      9        1           0.004316006    0.001720971   -0.009314417
     10        1          -0.001708487   -0.006707987   -0.005174475
     11        6           0.002035263    0.002228471   -0.010255889
     12        1           0.000607802   -0.000654656    0.003742719
     13        1           0.002947840   -0.000238822   -0.003331950
     14        1          -0.006884438    0.006995556    0.003250123
     15        8           0.008776852   -0.000962858    0.006695916
     16        1          -0.001787345   -0.001984193    0.004757894
     17        8          -0.007360344   -0.003313555    0.002587500
     18        1           0.002552710    0.004478092    0.004603453
     19        8          -0.006002377    0.002252918    0.001154364
     20        1          -0.002623871   -0.000621105    0.001638372
     21        8          -0.001945836    0.003827691   -0.002922691
     22        1           0.003021409    0.001402180   -0.004451493
     23        8           0.003355391   -0.005475167   -0.006367185
     24        1           0.005765636   -0.001973674   -0.000985817
 -------------------------------------------------------------------
 Cartesian Forces:  Max     0.067583098 RMS     0.014684651

 GradGradGradGradGradGradGradGradGradGradGradGradGradGradGradGradGradGrad
 Berny optimization.
 FormGI is forming the generalized inverse of G from B-inverse, IUseBI=4.
 Internal  Forces:  Max     0.038025260 RMS     0.007111980
 Search for a local minimum.
 Step number   1 out of a maximum of  144
 All quantities printed in internal units (Hartrees-Bohrs-Radians)
 Mixed Optimization -- RFO/linear search
 Second derivative matrix not updated -- first step.
 ITU=  0
     Eigenvalues ---    0.00358   0.00365   0.00509   0.01158   0.01173
     Eigenvalues ---    0.01182   0.01345   0.01409   0.01423   0.02884
     Eigenvalues ---    0.03102   0.04158   0.04515   0.04675   0.04739
     Eigenvalues ---    0.04892   0.05182   0.05324   0.05706   0.05939
     Eigenvalues ---    0.06688   0.06981   0.07106   0.07408   0.07602
     Eigenvalues ---    0.09734   0.11112   0.11587   0.13185   0.13888
     Eigenvalues ---    0.15940   0.16000   0.16000   0.16000   0.16000
     Eigenvalues ---    0.16000   0.17094   0.18029   0.19761   0.19927
     Eigenvalues ---    0.20568   0.21971   0.26281   0.27637   0.28466
     Eigenvalues ---    0.28779   0.29347   0.33885   0.33996   0.34000
     Eigenvalues ---    0.34049   0.34063   0.34170   0.34182   0.34204
     Eigenvalues ---    0.35647   0.39535   0.39697   0.39791   0.41543
     Eigenvalues ---    0.42415   0.51030   0.51756   0.52256   0.52811
     Eigenvalues ---    0.52854
 RFO step:  Lambda=-2.94967947D-02 EMin= 3.58089529D-03
 Linear search not attempted -- first point.
 Maximum step size (   0.300) exceeded in Quadratic search.
    -- Step size scaled by   0.976
 Iteration  1 RMS(Cart)=  0.05673677 RMS(Int)=  0.00203635
 Iteration  2 RMS(Cart)=  0.00246550 RMS(Int)=  0.00104055
 Iteration  3 RMS(Cart)=  0.00000522 RMS(Int)=  0.00104055
 Iteration  4 RMS(Cart)=  0.00000001 RMS(Int)=  0.00104055
 Variable       Old X    -DE/DX   Delta X   Delta X   Delta X     New X
                                 (Linear)    (Quad)   (Total)
    R1        2.78249  -0.02786   0.00000  -0.06970  -0.06869   2.71380
    R2        2.90468  -0.03115   0.00000  -0.10430  -0.10331   2.80137
    R3        2.89457  -0.00589   0.00000  -0.02009  -0.02130   2.87327
    R4        2.90619   0.00040   0.00000  -0.00616  -0.00638   2.89981
    R5        2.07023  -0.00017   0.00000  -0.00045  -0.00045   2.06978
    R6        2.71838  -0.00638   0.00000  -0.01457  -0.01457   2.70381
    R7        2.90465  -0.00497   0.00000  -0.00683  -0.00778   2.89687
    R8        2.75601   0.03803   0.00000   0.09951   0.09999   2.85600
    R9        2.07225  -0.00060   0.00000  -0.00157  -0.00157   2.07067
   R10        2.71967  -0.00569   0.00000  -0.01302  -0.01302   2.70664
   R11        2.07524   0.00114   0.00000   0.00302   0.00302   2.07826
   R12        2.72190  -0.00343   0.00000  -0.00788  -0.00788   2.71401
   R13        2.07330   0.00299   0.00000   0.00791   0.00791   2.08121
   R14        2.68398  -0.00069   0.00000  -0.00149  -0.00149   2.68249
   R15        2.07337  -0.00007   0.00000  -0.00019  -0.00019   2.07318
   R16        2.89285   0.00034   0.00000   0.00104   0.00104   2.89389
   R17        2.06987  -0.00054   0.00000  -0.00143  -0.00143   2.06844
   R18        2.07044   0.00159   0.00000   0.00418   0.00418   2.07463
   R19        2.69509   0.00782   0.00000   0.01715   0.01715   2.71223
   R20        1.83790  -0.00441   0.00000  -0.00772  -0.00772   1.83018
   R21        1.84355  -0.00609   0.00000  -0.01077  -0.01077   1.83278
   R22        1.83830  -0.00306   0.00000  -0.00536  -0.00536   1.83294
   R23        1.84834  -0.00555   0.00000  -0.00990  -0.00990   1.83843
   R24        1.85540  -0.00601   0.00000  -0.01087  -0.01087   1.84453
    A1        1.89955   0.01711   0.00000   0.08438   0.08645   1.98600
    A2        1.91643   0.00511   0.00000   0.02152   0.02141   1.93784
    A3        1.91925   0.00039   0.00000  -0.01449  -0.01380   1.90545
    A4        1.89041  -0.00952   0.00000  -0.04912  -0.04933   1.84107
    A5        1.95038  -0.00521   0.00000  -0.02420  -0.02496   1.92542
    A6        1.94570   0.00135   0.00000  -0.00860  -0.00795   1.93775
    A7        1.83958   0.00766   0.00000   0.07468   0.07481   1.91439
    A8        1.90284   0.00782   0.00000   0.05693   0.05804   1.96087
    A9        1.91105   0.00045   0.00000  -0.01393  -0.01328   1.89777
   A10        1.89624  -0.00831   0.00000  -0.03885  -0.03905   1.85719
   A11        1.94338  -0.00538   0.00000  -0.03532  -0.03506   1.90832
   A12        1.94265  -0.00159   0.00000  -0.02397  -0.02403   1.91862
   A13        1.86683   0.00676   0.00000   0.05372   0.05358   1.92041
   A14        2.00278  -0.00977   0.00000  -0.03905  -0.04033   1.96246
   A15        1.89472  -0.00020   0.00000  -0.01222  -0.01386   1.88085
   A16        1.89862   0.00791   0.00000   0.02854   0.02781   1.92643
   A17        1.90846  -0.00048   0.00000  -0.02338  -0.02473   1.88373
   A18        1.92591  -0.00023   0.00000  -0.01477  -0.01331   1.91259
   A19        1.82467   0.00406   0.00000   0.07142   0.07127   1.89594
   A20        2.05840  -0.01647   0.00000  -0.08113  -0.08178   1.97661
   A21        1.79776   0.00214   0.00000   0.00537   0.00540   1.80316
   A22        1.88901   0.01671   0.00000   0.05248   0.04588   1.93489
   A23        1.87395   0.00937   0.00000   0.04967   0.05018   1.92414
   A24        1.97904  -0.01345   0.00000  -0.06770  -0.06758   1.91146
   A25        1.84503   0.00528   0.00000   0.06540   0.06563   1.91065
   A26        2.00094  -0.00208   0.00000  -0.01130  -0.01078   1.99015
   A27        1.83336   0.00392   0.00000   0.00984   0.01013   1.84349
   A28        1.87179  -0.00725   0.00000  -0.03069  -0.03077   1.84102
   A29        1.90730  -0.00506   0.00000  -0.01887  -0.01870   1.88860
   A30        1.95267   0.00868   0.00000   0.02417   0.02302   1.97569
   A31        1.89147   0.00170   0.00000   0.02846   0.02856   1.92003
   A32        1.92573  -0.00091   0.00000  -0.01133  -0.01138   1.91435
   A33        1.93910  -0.00473   0.00000  -0.01952  -0.01983   1.91926
   A34        1.93878   0.00458   0.00000   0.01780   0.01774   1.95652
   A35        1.86172   0.00215   0.00000   0.01066   0.01065   1.87237
   A36        1.89008  -0.00415   0.00000  -0.02984  -0.02973   1.86035
   A37        1.90619   0.00298   0.00000   0.03188   0.03196   1.93815
   A38        1.84378   0.00245   0.00000   0.01264   0.01264   1.85642
   A39        1.86449   0.00474   0.00000   0.02444   0.02444   1.88893
   A40        1.87467  -0.00046   0.00000  -0.00238  -0.00238   1.87229
   A41        1.82820  -0.00033   0.00000  -0.00172  -0.00172   1.82648
   A42        1.84752  -0.00125   0.00000  -0.00645  -0.00645   1.84107
    D1        0.96345  -0.00718   0.00000  -0.04730  -0.04555   0.91790
    D2        3.02272  -0.00282   0.00000  -0.02513  -0.02343   2.99929
    D3       -1.31205   0.01037   0.00000   0.07034   0.07332  -1.23874
    D4        0.01367  -0.00734   0.00000  -0.03471  -0.03301  -0.01934
    D5       -2.08014  -0.00254   0.00000  -0.01154  -0.01057  -2.09071
    D6        2.19308  -0.00310   0.00000  -0.03491  -0.03387   2.15921
    D7        0.85784  -0.00393   0.00000  -0.01871  -0.01975   0.83809
    D8       -1.28292   0.00363   0.00000   0.04816   0.04719  -1.23573
    D9        3.02446  -0.00507   0.00000  -0.04395  -0.04485   2.97961
   D10       -1.29510  -0.00107   0.00000   0.00697   0.00667  -1.28843
   D11        2.84732   0.00649   0.00000   0.07384   0.07362   2.92094
   D12        0.87152  -0.00221   0.00000  -0.01827  -0.01842   0.85309
   D13        2.98622  -0.00514   0.00000  -0.04703  -0.04752   2.93870
   D14        0.84546   0.00242   0.00000   0.01984   0.01943   0.86489
   D15       -1.13035  -0.00628   0.00000  -0.07226  -0.07261  -1.20296
   D16       -0.85680  -0.00504   0.00000  -0.00243  -0.00330  -0.86009
   D17        1.19541  -0.00493   0.00000  -0.01031  -0.01001   1.18541
   D18       -2.99299  -0.00065   0.00000   0.02811   0.02802  -2.96497
   D19        1.27776  -0.00450   0.00000  -0.02223  -0.02303   1.25473
   D20       -2.95322  -0.00439   0.00000  -0.03011  -0.02974  -2.98296
   D21       -0.85844  -0.00012   0.00000   0.00831   0.00829  -0.85015
   D22       -2.95186   0.00263   0.00000   0.05037   0.04946  -2.90240
   D23       -0.89965   0.00274   0.00000   0.04249   0.04275  -0.85690
   D24        1.19514   0.00702   0.00000   0.08090   0.08078   1.27591
   D25       -3.04658   0.00035   0.00000   0.02003   0.01908  -3.02750
   D26       -0.93624   0.00128   0.00000   0.00913   0.00942  -0.92683
   D27        1.18306   0.00054   0.00000   0.02194   0.02260   1.20566
   D28       -0.01112   0.00389   0.00000   0.01686   0.01587   0.00476
   D29        2.12221  -0.00364   0.00000  -0.04460  -0.04533   2.07688
   D30       -2.16321   0.00084   0.00000   0.01980   0.01867  -2.14454
   D31        2.11892   0.00250   0.00000   0.00062   0.00058   2.11950
   D32       -2.03094  -0.00503   0.00000  -0.06084  -0.06062  -2.09156
   D33       -0.03318  -0.00055   0.00000   0.00356   0.00338  -0.02980
   D34       -2.13109   0.00616   0.00000   0.03528   0.03536  -2.09573
   D35        0.00224  -0.00137   0.00000  -0.02618  -0.02584  -0.02360
   D36        2.00000   0.00311   0.00000   0.03822   0.03816   2.03816
   D37       -0.96501   0.00707   0.00000   0.05465   0.05294  -0.91208
   D38       -2.98336   0.00733   0.00000   0.05989   0.06086  -2.92250
   D39        1.26847   0.00246   0.00000  -0.01386  -0.01110   1.25737
   D40       -3.07539   0.00476   0.00000   0.05681   0.05463  -3.02076
   D41        1.18945   0.00501   0.00000   0.06205   0.06255   1.25200
   D42       -0.84191   0.00014   0.00000  -0.01170  -0.00941  -0.85132
   D43        1.12649   0.00085   0.00000   0.02844   0.02602   1.15251
   D44       -0.89185   0.00110   0.00000   0.03368   0.03393  -0.85792
   D45       -2.92321  -0.00377   0.00000  -0.04007  -0.03802  -2.96124
   D46       -2.87096   0.00073   0.00000   0.00252   0.00330  -2.86766
   D47        1.31681  -0.00260   0.00000  -0.02808  -0.02884   1.28798
   D48       -0.80957   0.00058   0.00000  -0.00505  -0.00508  -0.81465
   D49        0.84485   0.00404   0.00000   0.02293   0.02415   0.86899
   D50        3.05636  -0.00292   0.00000  -0.01681  -0.01693   3.03943
   D51       -1.17662  -0.00136   0.00000  -0.01189  -0.01299  -1.18961
   D52       -1.26816  -0.00862   0.00000  -0.02173  -0.02383  -1.29199
   D53        2.69657   0.01062   0.00000   0.10098   0.10103   2.79760
   D54        0.64825   0.00316   0.00000   0.03579   0.03784   0.68609
   D55       -1.15339   0.00091   0.00000   0.00980   0.00981  -1.14358
   D56        0.90774   0.00003   0.00000   0.00362   0.00377   0.91152
   D57        3.03348   0.00374   0.00000   0.04312   0.04313   3.07662
   D58        1.05491  -0.00110   0.00000  -0.01049  -0.01094   1.04397
   D59        3.11604  -0.00197   0.00000  -0.01667  -0.01697   3.09907
   D60       -1.04141   0.00173   0.00000   0.02283   0.02239  -1.01902
   D61       -3.12425  -0.00087   0.00000  -0.00007   0.00021  -3.12404
   D62       -1.06312  -0.00175   0.00000  -0.00626  -0.00582  -1.06894
   D63        1.06262   0.00196   0.00000   0.03324   0.03354   1.09616
   D64       -1.45234   0.00115   0.00000   0.01656   0.01628  -1.43605
   D65        2.71350   0.00214   0.00000   0.03900   0.03887   2.75237
   D66        0.69248   0.00027   0.00000   0.02559   0.02599   0.71847
         Item               Value     Threshold  Converged?
 Maximum Force            0.038025     0.000450     NO 
 RMS     Force            0.007112     0.000300     NO 
 Maximum Displacement     0.234713     0.001800     NO 
 RMS     Displacement     0.057102     0.001200     NO 
 Predicted change in Energy=-1.735963D-02
 GradGradGradGradGradGradGradGradGradGradGradGradGradGradGradGradGradGrad

                          Input orientation:                          
 ---------------------------------------------------------------------
 Center     Atomic      Atomic             Coordinates (Angstroms)
 Number     Number       Type             X           Y           Z
 ---------------------------------------------------------------------
      1          8           0        0.004668   -0.008814    0.066478
      2          6           0        0.014511   -0.016579    2.597216
      3          6           0        2.164135    0.007014    1.248220
      4          6           0        1.482302   -0.411184    2.555954
      5          6           0        1.218259    0.719602    0.309257
      6          6           0       -0.701585   -0.422960    1.302304
      7          1           0        1.537412   -1.506994    2.631134
      8          1           0       -0.745828   -1.518488    1.264326
      9          1           0       -0.063017    1.065027    2.751344
     10          1           0        1.667803    0.804524   -0.692552
     11          6           0       -2.111473    0.162853    1.183268
     12          1           0       -2.059459    1.255996    1.203747
     13          1           0       -2.556846   -0.124453    0.221832
     14          1           0        3.005713    0.667360    1.485630
     15          8           0        0.937174    2.016514    0.813270
     16          1           0        0.608055    2.534913    0.064328
     17          8           0       -2.952832   -0.227968    2.278404
     18          1           0       -3.303884   -1.112367    2.090669
     19          8           0        2.642458   -1.197356    0.638166
     20          1           0        3.282100   -0.940232   -0.044148
     21          8           0        2.185461    0.161044    3.669855
     22          1           0        1.644613   -0.067061    4.445678
     23          8           0       -0.534524   -0.704752    3.725116
     24          1           0       -1.495498   -0.537298    3.690107
 ---------------------------------------------------------------------
                    Distance matrix (angstroms):
                    1          2          3          4          5
     1  O    0.000000
     2  C    2.530769   0.000000
     3  C    2.461720   2.537958   0.000000
     4  C    2.922806   1.520469   1.532956   0.000000
     5  C    1.436083   2.688072   1.511329   2.529040   0.000000
     6  C    1.482422   1.534515   2.898303   2.518162   2.444870
     7  H    3.342351   2.131130   2.144168   1.099767   3.232755
     8  H    2.068139   2.147194   3.285621   2.803389   3.127113
     9  H    2.892443   1.095280   2.887729   2.146017   2.779348
    10  H    2.000916   3.772289   2.156146   3.473493   1.101328
    11  C    2.398904   2.559541   4.278940   3.889601   3.487259
    12  H    2.674649   2.804025   4.404621   4.141500   3.439661
    13  H    2.568825   3.502280   4.833055   4.673870   3.869301
    14  H    3.387843   3.263539   1.095752   2.151658   2.140462
    15  O    2.351429   2.857838   2.394306   3.037734   1.419513
    16  H    2.614312   3.643889   3.195819   3.956260   1.930723
    17  O    3.699656   2.991897   5.224926   4.447585   4.708867
    18  H    4.032579   3.531159   5.644641   4.859601   5.194162
    19  O    2.949135   3.483995   1.432294   2.375277   2.410654
    20  H    3.409008   4.301985   1.953800   3.206196   2.671962
    21  O    4.215334   2.427989   2.426622   1.436194   3.541340
    22  H    4.676559   2.465075   3.240236   1.927647   4.232091
    23  O    3.763069   1.430797   3.731539   2.349619   4.095012
    24  H    3.957332   1.935377   4.433058   3.188965   4.513803
                    6          7          8          9         10
     6  C    0.000000
     7  H    2.820289   0.000000
     8  H    1.097078   2.661106   0.000000
     9  H    2.172923   3.031685   3.058105   0.000000
    10  H    3.331691   4.050557   3.879609   3.863162   0.000000
    11  C    1.531381   4.266036   2.167594   2.732938   4.267712
    12  H    2.161580   4.754896   3.070351   2.533240   4.206217
    13  H    2.167607   4.947637   2.511954   3.745995   4.421171
    14  H    3.868652   2.862849   4.347524   3.343244   2.559941
    15  O    2.979214   4.009990   3.941089   2.379463   2.066455
    16  H    3.463633   4.877418   4.438812   3.135436   2.165682
    17  O    2.461485   4.682160   2.750393   3.201021   5.589534
    18  H    2.805131   4.887329   2.718718   3.959893   6.011528
    19  O    3.496197   2.299767   3.460590   4.111386   2.593894
    20  H    4.236773   3.243808   4.274422   4.798505   2.463850
    21  O    3.779074   2.069121   4.147271   2.591621   4.439891
    22  H    3.938542   2.318937   4.235782   2.658645   5.211680
    23  O    2.444859   2.476551   2.600444   2.074287   5.161778
    24  H    2.518923   3.355633   2.721976   2.345362   5.569080
                   11         12         13         14         15
    11  C    0.000000
    12  H    1.094572   0.000000
    13  H    1.097844   1.765557   0.000000
    14  H    5.150878   5.107046   5.759012   0.000000
    15  O    3.587088   3.116195   4.140255   2.559519   0.000000
    16  H    3.778165   3.170100   4.136863   3.355088   0.968489
    17  O    1.435253   2.038419   2.096905   6.077365   4.724030
    18  H    1.967589   2.818576   2.242007   6.583656   5.422935
    19  O    4.974652   5.333558   5.325150   2.080220   3.642473
    20  H    5.640387   5.908715   5.901655   2.236283   3.869908
    21  O    4.964550   5.029906   5.870251   2.387469   3.627819
    22  H    4.980397   5.097131   5.957888   3.339739   4.246898
    23  O    3.114562   3.539387   4.086507   4.408091   4.248533
    24  H    2.674673   3.117040   3.650456   5.154786   4.551487
                   16         17         18         19         20
    16  H    0.000000
    17  O    5.021510   0.000000
    18  H    5.719439   0.969868   0.000000
    19  O    4.289279   5.910784   6.121763   0.000000
    20  H    4.386219   6.691483   6.925479   0.969951   0.000000
    21  O    4.596008   5.337558   5.852206   3.353392   4.026070
    22  H    5.200092   5.085220   5.579100   4.095169   4.858223
    23  O    5.020188   2.858061   3.241439   4.457032   5.369303
    24  H    5.197084   2.052416   2.481767   5.183888   6.077207
                   21         22         23         24
    21  O    0.000000
    22  H    0.972857   0.000000
    23  O    2.854991   2.382120   0.000000
    24  H    3.746672   3.263787   0.976083   0.000000
 Stoichiometry    C6H12O6
 Framework group  C1[X(C6H12O6)]
 Deg. of freedom    66
 Full point group                 C1      NOp   1
 Largest Abelian subgroup         C1      NOp   1
 Largest concise Abelian subgroup C1      NOp   1
                         Standard orientation:                         
 ---------------------------------------------------------------------
 Center     Atomic      Atomic             Coordinates (Angstroms)
 Number     Number       Type             X           Y           Z
 ---------------------------------------------------------------------
      1          8           0        0.065243   -1.595814   -0.498277
      2          6           0        0.459484    0.795676    0.229830
      3          6           0       -1.876971   -0.130706   -0.122344
      4          6           0       -0.979054    1.111489   -0.147921
      5          6           0       -1.122349   -1.377137    0.278988
      6          6           0        0.975615   -0.426641   -0.541069
      7          1           0       -0.977421    1.506993   -1.174109
      8          1           0        1.057189   -0.154299   -1.600671
      9          1           0        0.517107    0.616921    1.308888
     10          1           0       -1.728963   -2.272903    0.072721
     11          6           0        2.323794   -0.939230   -0.026487
     12          1           0        2.231860   -1.226119    1.025811
     13          1           0        2.621295   -1.836740   -0.584367
     14          1           0       -2.695739    0.041393    0.585239
     15          8           0       -0.816782   -1.321225    1.664095
     16          1           0       -0.632413   -2.231149    1.939807
     17          8           0        3.344057    0.068298   -0.088934
     18          1           0        3.695899    0.088159   -0.992514
     19          8           0       -2.397719   -0.280908   -1.448137
     20          1           0       -3.147800   -0.893598   -1.395264
     21          8           0       -1.517955    2.113151    0.728956
     22          1           0       -0.851573    2.821937    0.731816
     23          8           0        1.208569    1.967755   -0.105253
     24          1           0        2.144148    1.728646    0.037068
 ---------------------------------------------------------------------
 Rotational constants (GHZ):      1.2570193      0.7722489      0.6054137
 Standard basis: 6-31G(d) (6D, 7F)
 There are   204 symmetry adapted cartesian basis functions of A   symmetry.
 There are   204 symmetry adapted basis functions of A   symmetry.
   204 basis functions,   384 primitive gaussians,   204 cartesian basis functions
    48 alpha electrons       48 beta electrons
       nuclear repulsion energy       837.0868343604 Hartrees.
 NAtoms=   24 NActive=   24 NUniq=   24 SFac= 1.00D+00 NAtFMM=   60 NAOKFM=F Big=F
 Integral buffers will be    131072 words long.
 Raffenetti 2 integral format.
 Two-electron integral symmetry is turned on.
 One-electron integrals computed using PRISM.
 NBasis=   204 RedAO= T EigKep=  1.17D-03  NBF=   204
 NBsUse=   204 1.00D-06 EigRej= -1.00D+00 NBFU=   204
 Initial guess from the checkpoint file:  "/home/iawad/scratch/MAIN/PRO_Halides/direct/optfreq/boat4_Beta/boat4_Beta_optfreq_B3LYP_6-31G_d.chk"
 B after Tr=     0.000000    0.000000    0.000000
         Rot=    0.999850   -0.007795    0.004663   -0.014732 Ang=  -1.98 deg.
 ExpMin= 1.61D-01 ExpMax= 5.48D+03 ExpMxC= 8.25D+02 IAcc=1 IRadAn=         1 AccDes= 0.00D+00
 Harris functional with IExCor=  402 and IRadAn=       1 diagonalized for initial guess.
 HarFok:  IExCor=  402 AccDes= 0.00D+00 IRadAn=         1 IDoV= 1 UseB2=F ITyADJ=14
 ICtDFT=  3500011 ScaDFX=  1.000000  1.000000  1.000000  1.000000
 FoFCou: FMM=F IPFlag=           0 FMFlag=      100000 FMFlg1=           0
         NFxFlg=           0 DoJE=T BraDBF=F KetDBF=T FulRan=T
         wScrn=  0.000000 ICntrl=     500 IOpCl=  0 I1Cent=   200000004 NGrid=           0
         NMat0=    1 NMatS0=      1 NMatT0=    0 NMatD0=    1 NMtDS0=    0 NMtDT0=    0
 Petite list used in FoFCou.
 Requested convergence on RMS density matrix=1.00D-08 within 128 cycles.
 Requested convergence on MAX density matrix=1.00D-06.
 Requested convergence on             energy=1.00D-06.
 No special actions if energy rises.
 Integral accuracy reduced to 1.0D-05 until final iterations.
 Initial convergence to 1.0D-05 achieved.  Increase integral accuracy.
 SCF Done:  E(RB3LYP) =  -687.132204519     A.U. after   12 cycles
            NFock= 12  Conv=0.60D-08     -V/T= 2.0086
 Calling FoFJK, ICntrl=      2127 FMM=F ISym2X=0 I1Cent= 0 IOpClX= 0 NMat=1 NMatS=1 NMatT=0.
 ***** Axes restored to original set *****
 -------------------------------------------------------------------
 Center     Atomic                   Forces (Hartrees/Bohr)
 Number     Number              X              Y              Z
 -------------------------------------------------------------------
      1        8           0.005644584    0.001497824    0.021460862
      2        6          -0.001985359   -0.002632121    0.004037970
      3        6           0.009844718   -0.008865462    0.007645856
      4        6           0.005280648    0.002106970    0.010038664
      5        6          -0.020028612    0.005198901   -0.016215754
      6        6           0.005029752    0.003355334   -0.018942960
      7        1          -0.001215678    0.000335586   -0.003802387
      8        1          -0.000383898   -0.000845004    0.001569999
      9        1           0.000617462    0.000898294   -0.001730268
     10        1          -0.000080986   -0.002505156    0.001729296
     11        6          -0.000773469   -0.000472525   -0.000268931
     12        1           0.000957901   -0.000370244    0.001561364
     13        1           0.000722487   -0.000501298    0.000018119
     14        1          -0.001561388    0.002689192    0.001412815
     15        8           0.007078586   -0.002616403   -0.000909583
     16        1          -0.002813828    0.001156127    0.000847378
     17        8          -0.000370198    0.000806941    0.001104502
     18        1           0.001171287   -0.000178431    0.000109162
     19        8          -0.000026323    0.002610800   -0.000790121
     20        1          -0.000345272   -0.001204511   -0.000872783
     21        8          -0.004190997   -0.001226050   -0.006287693
     22        1           0.000774616    0.000182746    0.000109671
     23        8          -0.003461237    0.000110429   -0.003209838
     24        1           0.000115204    0.000468061    0.001384661
 -------------------------------------------------------------------
 Cartesian Forces:  Max     0.021460862 RMS     0.005514798

 GradGradGradGradGradGradGradGradGradGradGradGradGradGradGradGradGradGrad
 Berny optimization.
 Using GEDIIS/GDIIS optimizer.
 FormGI is forming the generalized inverse of G from B-inverse, IUseBI=4.
 Internal  Forces:  Max     0.014275525 RMS     0.002415112
 Search for a local minimum.
 Step number   2 out of a maximum of  144
 All quantities printed in internal units (Hartrees-Bohrs-Radians)
 Mixed Optimization -- RFO/linear search
 Update second derivatives using D2CorX and points    1    2
 DE= -1.75D-02 DEPred=-1.74D-02 R= 1.01D+00
 TightC=F SS=  1.41D+00  RLast= 4.23D-01 DXNew= 5.0454D-01 1.2693D+00
 Trust test= 1.01D+00 RLast= 4.23D-01 DXMaxT set to 5.05D-01
 ITU=  1  0
 Use linear search instead of GDIIS.
     Eigenvalues ---    0.00358   0.00373   0.00505   0.01158   0.01173
     Eigenvalues ---    0.01187   0.01348   0.01375   0.01419   0.03021
     Eigenvalues ---    0.03221   0.04200   0.04566   0.04599   0.04820
     Eigenvalues ---    0.04854   0.05389   0.05764   0.05845   0.06051
     Eigenvalues ---    0.06787   0.07109   0.07295   0.07528   0.07705
     Eigenvalues ---    0.09244   0.11028   0.11551   0.12364   0.13965
     Eigenvalues ---    0.15678   0.15891   0.16000   0.16000   0.16000
     Eigenvalues ---    0.16050   0.16913   0.17776   0.18403   0.20521
     Eigenvalues ---    0.21327   0.22429   0.24602   0.27005   0.28321
     Eigenvalues ---    0.28707   0.29423   0.32926   0.33891   0.33996
     Eigenvalues ---    0.34050   0.34097   0.34176   0.34194   0.34204
     Eigenvalues ---    0.34970   0.39575   0.39738   0.39986   0.41616
     Eigenvalues ---    0.42456   0.51061   0.51768   0.52276   0.52815
     Eigenvalues ---    0.52934
 RFO step:  Lambda=-4.43991656D-03 EMin= 3.58388738D-03
 Quartic linear search produced a step of  0.27116.
 Iteration  1 RMS(Cart)=  0.03776037 RMS(Int)=  0.00124570
 Iteration  2 RMS(Cart)=  0.00136701 RMS(Int)=  0.00043805
 Iteration  3 RMS(Cart)=  0.00000422 RMS(Int)=  0.00043803
 Iteration  4 RMS(Cart)=  0.00000000 RMS(Int)=  0.00043803
 Variable       Old X    -DE/DX   Delta X   Delta X   Delta X     New X
                                 (Linear)    (Quad)   (Total)
    R1        2.71380  -0.01109  -0.01863  -0.02941  -0.04754   2.66627
    R2        2.80137  -0.01428  -0.02801  -0.05500  -0.08264   2.71873
    R3        2.87327   0.00261  -0.00578   0.01208   0.00580   2.87908
    R4        2.89981  -0.00048  -0.00173  -0.00764  -0.00956   2.89026
    R5        2.06978   0.00060  -0.00012   0.00226   0.00214   2.07192
    R6        2.70381  -0.00043  -0.00395   0.00059  -0.00336   2.70045
    R7        2.89687   0.00060  -0.00211   0.01146   0.00900   2.90587
    R8        2.85600   0.00991   0.02711   0.02617   0.05351   2.90951
    R9        2.07067   0.00073  -0.00043   0.00291   0.00248   2.07315
   R10        2.70664  -0.00061  -0.00353  -0.00017  -0.00370   2.70294
   R11        2.07826  -0.00066   0.00082  -0.00284  -0.00202   2.07624
   R12        2.71401  -0.00688  -0.00214  -0.02080  -0.02293   2.69108
   R13        2.08121  -0.00180   0.00215  -0.00773  -0.00559   2.07562
   R14        2.68249  -0.00220  -0.00040  -0.00631  -0.00672   2.67578
   R15        2.07318   0.00081  -0.00005   0.00300   0.00294   2.07612
   R16        2.89389  -0.00205   0.00028  -0.00887  -0.00859   2.88531
   R17        2.06844  -0.00030  -0.00039  -0.00089  -0.00128   2.06717
   R18        2.07463  -0.00017   0.00113  -0.00120  -0.00007   2.07456
   R19        2.71223   0.00027   0.00465  -0.00147   0.00317   2.71541
   R20        1.83018   0.00092  -0.00209   0.00318   0.00109   1.83127
   R21        1.83278  -0.00028  -0.00292   0.00073  -0.00219   1.83059
   R22        1.83294   0.00007  -0.00145   0.00085  -0.00061   1.83234
   R23        1.83843  -0.00038  -0.00269   0.00037  -0.00232   1.83612
   R24        1.84453  -0.00008  -0.00295   0.00122  -0.00172   1.84281
    A1        1.98600   0.00715   0.02344   0.03195   0.05602   2.04202
    A2        1.93784  -0.00127   0.00581  -0.01017  -0.00429   1.93355
    A3        1.90545   0.00026  -0.00374  -0.00908  -0.01309   1.89236
    A4        1.84107   0.00230  -0.01338   0.04436   0.03100   1.87207
    A5        1.92542  -0.00041  -0.00677  -0.00729  -0.01459   1.91083
    A6        1.93775  -0.00098  -0.00216  -0.00919  -0.01109   1.92666
    A7        1.91439   0.00022   0.02029  -0.00681   0.01350   1.92789
    A8        1.96087  -0.00212   0.01574  -0.01113   0.00469   1.96557
    A9        1.89777   0.00151  -0.00360   0.00153  -0.00200   1.89577
   A10        1.85719   0.00034  -0.01059   0.01277   0.00229   1.85948
   A11        1.90832  -0.00010  -0.00951  -0.00774  -0.01684   1.89148
   A12        1.91862  -0.00034  -0.00652  -0.00704  -0.01374   1.90488
   A13        1.92041   0.00079   0.01453   0.01270   0.02708   1.94749
   A14        1.96246  -0.00026  -0.01093   0.00348  -0.00839   1.95407
   A15        1.88085  -0.00034  -0.00376  -0.00260  -0.00692   1.87394
   A16        1.92643   0.00055   0.00754   0.00025   0.00740   1.93383
   A17        1.88373  -0.00201  -0.00671  -0.01653  -0.02375   1.85998
   A18        1.91259   0.00033  -0.00361  -0.00334  -0.00611   1.90648
   A19        1.89594   0.00173   0.01932   0.01912   0.03831   1.93426
   A20        1.97661  -0.00273  -0.02218   0.00191  -0.02085   1.95576
   A21        1.80316   0.00101   0.00146   0.00037   0.00155   1.80470
   A22        1.93489   0.00363   0.01244   0.02277   0.03318   1.96807
   A23        1.92414   0.00056   0.01361  -0.01214   0.00165   1.92579
   A24        1.91146  -0.00322  -0.01833  -0.01428  -0.03210   1.87936
   A25        1.91065   0.00115   0.01780   0.00220   0.01969   1.93034
   A26        1.99015  -0.00013  -0.00292  -0.00163  -0.00442   1.98573
[...]
 913,-0.00038778,0.00036961,0.00004236,0.00006134,-0.00006282,-0.000185
 94,0.00014002,0.00003951,0.00016023,-0.00021412,-0.00012928,0.00009484
 ,-0.00148316,-0.00038990,-0.00057639,-0.00137597,0.00048031,-0.0003096
 9,0.00031163,0.00055399,-0.00005731,0.00001104,-0.00007012,0.00032448,
 0.00018661,0.00051667,-0.19032353,0.09339767,-0.21098291,0.19806177,-0
 .00130580,0.00534831,-0.00233903,0.00044198,0.00008187,0.00049013,-0.0
 0015505,-0.00536088,-0.00420724,0.00060173,0.00023086,0.00015913,0.033
 94117,-0.02033830,0.03611644,-0.00151522,-0.00108814,0.00225437,-0.000
 00597,-0.00000624,-0.00006336,0.00027511,0.00018283,-0.00030659,-0.000
 22532,-0.00009579,0.00022885,-0.00044228,0.00130529,-0.00080967,-0.000
 63044,-0.00034654,0.00028379,-0.00013190,0.00020375,0.00012020,-0.0000
 7531,-0.00003060,-0.00002012,0.00014413,0.00038634,-0.00011464,0.06352
 692,-0.06888943,0.05736330,-0.09641955,0.08936143,0.00056358,-0.002219
 88,-0.00046534,0.00014672,-0.00021444,-0.00063336,-0.00119382,-0.00114
 360,0.00207851,0.00009623,-0.00024836,0.00025271,0.00527697,-0.0059923
 5,0.00470482,-0.00024296,0.00073662,-0.00089442,0.00001689,0.00004219,
 -0.00005577,0.00007443,-0.00014817,0.00010559,-0.00012355,0.00028047,0
 .00000573,0.00081189,-0.00092902,0.00114544,0.00043020,0.00158187,0.00
 002974,0.00050676,-0.00049315,-0.00033349,-0.00006646,-0.00024753,-0.0
 0003605,0.00055223,-0.00008021,0.00030434,-0.22739884,0.09854520,-0.27
 940530,0.22014114,-0.08923520,0.27294413,-0.01355860,0.00145384,0.0025
 3048,0.00491301,0.00045706,-0.00147766,0.00056745,-0.00068276,-0.00001
 394,0.00027403,-0.00028565,0.00093963,0.00288613,0.00518362,0.00161808
 ,-0.01590373,-0.01153906,0.03483076,0.00002053,-0.00008281,-0.00006737
 ,0.00277915,0.00005260,-0.00084074,-0.00018335,-0.00043999,0.00000813,
 -0.00091444,-0.00072689,0.00010977,-0.11712887,-0.00936158,0.07620029,
 -0.00928726,-0.00515915,0.01352690,0.00931555,0.00145807,0.00014529,-0
 .00024953,0.00004100,-0.00014408,-0.00067204,-0.00207589,-0.00014598,0
 .00026331,0.00063237,-0.00040836,0.22602529,0.00535675,0.00261124,-0.0
 0078832,-0.00183262,-0.00141414,0.00222877,0.00012060,0.00006327,0.000
 17272,0.00010433,0.00024309,-0.00025853,0.00043372,-0.00268456,-0.0009
 7699,0.00411358,0.00401197,-0.01058500,-0.00014323,0.00000684,-0.00001
 084,-0.00158090,0.00299643,-0.00062766,0.00059903,0.00044801,-0.000045
 06,0.00028028,0.00039865,0.00003452,-0.03435369,-0.09380701,0.02720454
 ,-0.02457992,-0.00276570,0.03224088,0.00515347,0.00443328,-0.00200606,
 0.00008293,0.00000385,0.00004952,-0.00144975,0.00096104,0.00047322,0.0
 0054548,0.00011618,-0.00055881,0.19177350,0.50940151,0.00622729,0.0004
 5188,0.00169735,0.00360319,0.00185486,-0.00738784,-0.00043306,0.000730
 81,-0.00058946,-0.00023420,-0.00009008,0.00035754,-0.00228021,-0.00281
 116,-0.00094424,0.01039433,0.00421054,-0.00983741,0.00000603,0.0000387
 4,0.00003453,-0.00153079,-0.00106350,0.00030768,-0.00007802,-0.0002553
 4,0.00076755,0.00043844,0.00027719,0.00004128,0.05668133,-0.01399345,-
 0.16565410,0.00621841,0.00455037,-0.00500909,0.02928468,0.00943869,-0.
 03381689,0.00015864,-0.00006734,0.00019234,0.00069856,0.00074985,0.000
 41782,-0.00052682,-0.00047959,0.00031484,-0.11021035,0.02857885,0.2537
 9493,0.00139798,0.00155625,-0.00066326,-0.00085638,-0.00074144,0.00032
 991,-0.00018333,0.00007419,0.00018589,-0.00023002,0.00020044,-0.000160
 30,-0.00047119,-0.00085512,-0.00024533,-0.00137886,-0.00348438,0.00075
 161,-0.00005684,0.00004640,0.00002059,-0.00065661,0.00146941,0.0002576
 1,0.00025593,0.00030181,0.00008278,0.00016690,0.00011463,-0.00005178,-
 0.01094524,-0.02533605,-0.00182343,-0.00133556,0.00111193,0.00287615,0
 .00205456,0.00126302,-0.00029843,0.00006584,0.00000503,0.00000718,-0.0
 0001619,0.00051423,0.00000256,-0.00000090,-0.00012262,0.00001757,-0.07
 627818,-0.14730573,0.00694334,0.08798082,0.00104910,-0.00037458,-0.000
 21136,0.00010121,-0.00039125,-0.00000293,-0.00001231,0.00004472,-0.000
 01002,0.00001136,0.00012282,0.00005935,-0.00011421,-0.00033478,-0.0000
 3945,-0.00011694,0.00323675,-0.00145442,0.00001860,-0.00002451,-0.0000
 0661,-0.00061251,-0.00049358,-0.00005059,-0.00009186,-0.00006126,-0.00
 003405,0.00003034,0.00005086,-0.00000140,0.00122510,-0.00922151,-0.004
 50818,-0.00120840,0.00177881,0.00297523,0.00146175,0.00127290,-0.00107
 454,0.00001134,-0.00000547,0.00001534,-0.00008037,0.00006350,0.0000429
 3,0.00001085,-0.00000683,-0.00003289,-0.17370622,-0.42344688,-0.032447
 20,0.17204416,0.42775630,-0.00058472,-0.00052638,-0.00004418,-0.000550
 73,-0.00076188,0.00094523,0.00003119,-0.00007397,0.00005405,0.00016673
 ,0.00011471,-0.00011533,0.00007482,0.00042645,0.00014870,0.00011148,0.
 00012138,-0.00015310,-0.00005278,0.00001428,0.00002345,0.00039952,-0.0
 0062566,0.00026209,0.00006878,0.00021000,-0.00023452,-0.00002985,-0.00
 004305,-0.00001784,0.01776565,0.03791647,-0.00205809,0.00445568,0.0009
 8096,-0.00516384,-0.00082436,0.00083797,0.00077274,-0.00001378,0.00000
 547,-0.00002491,0.00021930,-0.00013698,-0.00013564,-0.00007586,-0.0000
 2544,0.00011379,-0.01374102,-0.07410262,-0.04116638,-0.00677571,0.0370
 7376,0.04748180,-0.00161791,-0.00159579,-0.00131389,0.00122952,-0.0022
 8054,0.00333925,-0.14175828,0.08191667,0.04428228,-0.02802176,0.015913
 09,0.01428439,-0.02177411,0.02666444,0.01480959,0.00135987,0.00079776,
 -0.00055709,0.00095658,0.00141492,-0.00122612,-0.00025203,-0.00020931,
 0.00012434,0.00009376,0.00001729,-0.00015192,0.00200158,-0.00084809,0.
 00126530,0.00053128,-0.00006163,-0.00015363,0.00012499,-0.00005729,-0.
 00001749,-0.00013272,0.00001695,-0.00008138,0.00646631,0.00205731,0.00
 204710,-0.00569399,0.00390348,-0.00562350,-0.00062248,0.00191310,0.000
 49981,-0.00077388,0.00002606,0.00022498,0.00024979,0.00002521,0.000002
 45,0.44008863,0.00486856,0.00226236,0.00143931,-0.00131071,-0.00107426
 ,0.00279933,0.03307456,-0.15719906,-0.01884173,-0.00692786,0.00995583,
 0.00296732,0.01677457,-0.01499693,-0.00784585,-0.00059947,-0.00051079,
 0.00138650,-0.00018672,0.00202359,-0.00052255,0.00030376,0.00017853,-0
 .00016281,-0.00034824,0.00027450,0.00027413,-0.00111902,0.00047527,-0.
 00091746,-0.00029240,-0.00005610,0.00000187,-0.00012885,0.00009706,0.0
 0003439,-0.00000059,0.00001675,-0.00000123,0.03192703,-0.02280024,-0.0
 1515615,0.00421312,-0.00151426,0.00395898,0.00083452,-0.00103675,0.000
 16878,0.00045928,0.00006364,-0.00031954,-0.00008630,-0.00002623,0.0000
 0706,0.06741002,0.36169023,-0.00048711,0.00046857,0.00222003,-0.001281
 48,0.00256377,-0.00378654,0.04565162,-0.04575466,-0.08579981,0.0271566
 9,-0.02021783,-0.01280235,-0.00712129,0.00957513,0.00651172,0.00010672
 ,0.00015056,-0.00164293,-0.00111778,-0.00116026,0.00161481,0.00000848,
 0.00000216,0.00017572,-0.00007025,0.00000066,0.00000871,-0.00023125,-0
 .00014827,0.00533912,0.00005012,0.00014093,0.00018076,0.00001531,-0.00
 002679,-0.00005027,0.00022476,-0.00004961,0.00009786,0.01422601,-0.012
 90030,-0.00458926,-0.00415401,0.00344305,0.00013571,-0.00010243,0.0008
 6341,-0.00026650,0.00005149,-0.00012112,0.00044924,-0.00012732,0.00000
 365,-0.00005366,-0.24066539,-0.07136335,0.20223876,0.00144661,0.000418
 80,-0.00092655,0.00034898,-0.00057657,0.00097932,-0.01966951,-0.018835
 54,0.01298498,-0.00285609,0.00322746,0.00117311,-0.00234208,-0.0001711
 7,0.00211353,-0.00027453,-0.00009273,0.00072606,0.00022504,0.00058525,
 -0.00020494,0.00010613,0.00006390,-0.00011381,-0.00002223,0.00007003,0
 .00002026,-0.00046683,0.00033350,-0.00158190,-0.00017744,0.00001344,-0
 .00004210,-0.00003051,0.00001980,0.00001527,-0.00002511,0.00001084,-0.
 00000763,0.00332342,0.00029283,-0.00069870,0.00098526,-0.00093547,-0.0
 0049464,-0.00001513,-0.00000299,0.00009580,0.00025112,0.00000533,-0.00
 019695,-0.00004717,-0.00000844,0.00001536,-0.25170755,-0.14748904,0.16
 480896,0.27143663,-0.00051617,-0.00004298,0.00020619,0.00020467,0.0010
 8381,-0.00072340,0.02903023,0.00831082,-0.01858487,0.00303152,-0.00347
 852,-0.00081270,0.00097606,-0.00019613,-0.00132353,0.00000794,-0.00003
 133,-0.00020610,0.00015068,0.00076188,0.00002638,0.00001172,-0.0000043
 9,0.00002485,-0.00020564,0.00004259,0.00002963,-0.00014157,0.00026414,
 0.00043644,0.00006261,0.00001667,0.00001016,0.00000623,-0.00000921,-0.
 00000316,-0.00000593,-0.00000458,-0.00000314,0.00062145,0.00084455,-0.
 00097248,-0.00010128,-0.00034872,0.00024763,0.00001380,-0.00010089,-0.
 00001741,-0.00007832,-0.00000700,0.00005390,0.00001965,0.00000209,-0.0
 0000297,-0.19633699,-0.17928646,0.13367591,0.16281859,0.17200354,-0.00
 016000,0.00006818,-0.00077212,-0.00030745,0.00065460,-0.00119117,0.011
 13686,0.01151834,-0.01065707,0.00565366,-0.00367300,-0.00053264,-0.001
 26104,0.00039169,0.00305341,-0.00001526,-0.00000959,-0.00004076,-0.000
 23784,-0.00055064,0.00029438,0.00001392,0.00001084,-0.00002156,0.00011
 331,-0.00012132,-0.00001705,-0.00043222,0.00029733,-0.00091204,-0.0000
 2536,0.00005581,0.00002344,0.00000222,-0.00000408,-0.00000125,0.000008
 98,-0.00000912,0.00000365,-0.00095478,0.00101280,0.00093594,-0.0000241
 5,-0.00036722,-0.00090467,-0.00017353,0.00012636,0.00001924,0.00005467
 ,-0.00001792,-0.00002642,-0.00001765,-0.00000332,0.00000708,0.16529860
 ,0.10270414,-0.10960253,-0.17855431,-0.11206570,0.12080153,0.00301133,
 0.00121193,-0.00098954,-0.02944583,-0.01031177,-0.04223536,0.01092541,
 0.00490281,0.01249700,-0.12726996,-0.02910627,-0.03455053,-0.00422469,
 -0.00244278,0.00290021,-0.00917476,0.00376325,0.00672002,-0.00201683,-
 0.00572264,-0.01169385,-0.00017863,-0.00006902,-0.00047145,0.00311426,
 -0.00080672,0.00052662,0.00080708,-0.00018078,0.00048075,0.00010076,-0
 .00169261,-0.00314197,0.00000434,0.00013781,0.00009793,-0.00129300,0.0
 0058494,-0.00023469,0.00125940,0.00101061,-0.00046788,0.00111673,0.000
 47745,-0.00019233,-0.00015070,-0.00038953,0.00015278,-0.00064222,0.000
 10305,0.00012894,0.00041240,0.00005167,-0.00007712,0.00179239,-0.00067
 604,0.00034754,-0.00023461,-0.00006997,-0.00065349,0.35524556,-0.00015
 639,0.00047423,-0.00016483,0.00449533,0.00505476,0.00803970,0.00771033
 ,0.00316150,0.01319062,-0.02688714,-0.08025485,-0.01581071,-0.00187779
 ,-0.00138155,0.00201856,0.00212221,0.00054210,-0.00100865,-0.02071421,
 0.00055728,-0.03325065,0.00085445,0.00046644,0.00060133,-0.00285107,0.
 00232917,0.00086371,0.00037442,-0.00014580,0.00059027,0.00019274,0.000
 50576,0.00034682,-0.00018302,0.00006079,-0.00006542,0.00019313,-0.0001
 0506,0.00004214,0.00172322,0.00174421,-0.00048145,-0.00001739,0.000311
 06,0.00026968,-0.00000709,-0.00002917,-0.00001552,0.00003854,0.0000421
 0,-0.00005966,-0.00001217,-0.00004327,0.00002803,-0.00049821,0.0010476
 3,0.00071533,0.00006918,0.00019658,0.00003316,0.13495743,0.11710114,-0
 .00116212,0.00009573,0.00119792,-0.01605470,-0.00068072,-0.01788346,-0
 .02025616,-0.00125286,-0.04041270,-0.08290436,-0.03380777,-0.18617798,
 0.00683843,-0.00073402,-0.00255312,-0.00088324,0.00136181,0.00224291,-
 0.01397702,-0.01095655,-0.01989186,-0.00000319,-0.00002642,-0.00002441
 ,0.00058517,0.00085028,0.00079239,-0.00126891,0.00064292,-0.00162243,0
 .00090561,-0.00049658,-0.00171230,-0.00004579,0.00001074,-0.00001019,-
 0.00056705,0.00021579,-0.00000884,-0.00116958,-0.00171089,0.00201187,-
 0.00081277,0.00156975,-0.00015786,-0.00009586,-0.00008379,0.00012917,-
 0.00047777,-0.00023946,0.00117163,0.00019607,0.00001945,-0.00016291,0.
 00176702,-0.00053283,0.00016854,-0.00005694,0.00022152,-0.00005370,-0.
 09643039,-0.06279687,0.53305276,-0.00080498,-0.00028181,0.00122431,0.0
 0051717,0.00220757,-0.00654374,-0.00253996,-0.00038458,-0.00403384,0.0
 1194405,0.00568250,-0.02210351,0.00184096,0.00075845,-0.00084075,0.000
 12063,-0.00038898,-0.00029930,-0.00048089,-0.00079170,-0.00064523,-0.0
 0002636,-0.00002561,-0.00001582,-0.00026726,-0.00017462,0.00041192,-0.
 00030826,0.00004661,-0.00023905,0.00017821,0.00033198,-0.00049326,-0.0
 0002349,-0.00003707,-0.00001231,0.00005442,-0.00002315,0.00016570,-0.0
 0006221,0.00017488,0.00010052,-0.00045546,-0.00010153,0.00011824,0.000
 03342,0.00011947,-0.00004369,0.00066304,-0.00043132,0.00092981,-0.0002
 7467,-0.00001651,-0.00011211,-0.00002145,0.00003355,0.00008661,0.00004
 678,0.00001452,-0.00002592,-0.20417540,-0.09942171,0.22069032,0.192948
 56,0.00044195,0.00006523,-0.00014113,-0.00073040,0.00152245,0.00110722
 ,-0.00041052,-0.00097624,0.00121913,0.00316646,0.00195770,-0.00962840,
 -0.00056458,0.00044408,0.00034419,-0.00038226,-0.00007873,0.00064645,-
 0.00007593,-0.00008926,-0.00116166,-0.00017538,-0.00013861,-0.00019345
 ,0.00038716,-0.00055929,0.00034991,0.00009796,-0.00000712,0.00004658,0
 .00002915,-0.00010994,-0.00015621,0.00003152,-0.00003125,0.00004086,-0
 .00012155,0.00002346,-0.00003769,0.00025131,0.00058065,0.00000698,0.00
 017000,-0.00007035,-0.00019574,-0.00000924,-0.00000378,0.00003031,-0.0
 0004268,-0.00003478,0.00001004,0.00003303,0.00002487,-0.00003304,0.000
 07890,0.00011229,0.00006993,0.00007295,0.00003186,-0.00001591,-0.09495
 614,-0.05366235,0.10831173,0.09290832,0.05318998,-0.00037121,-0.000321
 36,0.00045941,0.00061611,0.00182277,0.00005186,-0.00476959,-0.00172294
 ,-0.00505248,0.02111008,0.01285267,-0.03694327,0.00172628,0.00063871,-
 0.00104759,0.00112355,-0.00029252,-0.00126320,0.00070985,-0.00005394,0
 .00102177,-0.00001933,0.00000918,0.00006883,-0.00020735,0.00003738,-0.
 00003046,-0.00033053,0.00008329,-0.00022103,-0.00007300,0.00024802,0.0
 0040057,0.00000559,-0.00003210,-0.00002070,0.00022416,-0.00008064,0.00
 005628,-0.00034507,-0.00025052,0.00018935,-0.00026712,-0.00011323,0.00
 009290,0.00003845,0.00012516,-0.00000941,0.00035944,-0.00012323,0.0001
 5642,-0.00016723,-0.00000319,0.00001226,0.00005178,0.00005431,0.000367
 72,0.00007796,-0.00005976,-0.00003930,0.16973526,0.08708246,-0.2744030
 3,-0.19052387,-0.09952571,0.31566432,0.00331911,0.00044406,-0.00349149
 ,-0.10567737,-0.02853629,0.05746792,-0.00460881,0.00399615,-0.00395167
 ,-0.02831443,-0.02216246,0.03798289,-0.00352879,-0.00070526,-0.0023809
 5,0.00714113,0.00476744,-0.00355604,0.00300429,-0.00032937,-0.00077037
 ,0.00120682,0.00174685,0.00016534,0.00011040,-0.00701054,0.00725007,0.
 00049349,0.00008561,0.00034433,-0.00467468,-0.00151410,0.00729925,0.00
 008484,0.00031244,-0.00054805,0.00125224,-0.00038798,-0.00065088,-0.00
 014501,-0.00043681,0.00068009,0.00094002,0.00008232,0.00099197,-0.0002
 2371,-0.00015518,0.00021029,-0.00765795,0.00503536,-0.01155946,0.00149
 383,0.00043862,0.00067030,-0.00258192,-0.00056617,0.00277496,-0.000298
 15,0.00042330,0.00053277,-0.00001811,-0.00004828,0.00479794,0.00168264
 ,-0.00041973,0.00133811,0.54833214,0.00176430,0.00237244,-0.00177141,-
 0.00225069,-0.11178474,0.05409075,0.00252335,-0.00043407,0.00014919,0.
 00290006,0.00720666,-0.00743581,0.00029873,-0.00264974,-0.00171792,-0.
 00149758,0.00107965,0.00211743,-0.00166186,0.00208645,-0.00031009,0.00
 204402,0.00308695,0.00028345,-0.01847377,-0.01408233,0.03836105,-0.000
 00607,0.00027757,0.00014072,-0.00064340,-0.00025177,0.00015819,-0.0003
 5139,0.00047353,-0.00038465,0.00015474,0.00005844,0.00017140,0.0003925
 5,0.00030409,-0.00025227,-0.00097899,0.00026509,0.00227193,-0.00020723
 ,0.00007793,0.00014319,0.00244870,0.00265719,0.00035240,0.00141161,-0.
 00043031,0.00153963,0.00009774,0.00050580,-0.00023840,0.00018371,-0.00
 012825,-0.00013826,-0.00047084,0.00193504,-0.00028581,-0.00073708,-0.0
 0175965,-0.00045398,-0.12569318,0.19078732,-0.00253702,0.00116209,-0.0
 1258709,0.02755058,0.06779662,-0.16451636,-0.00087244,-0.00001748,0.00
 226998,0.01013367,0.00561015,-0.01376023,-0.00460158,-0.00362758,0.001
 39093,0.02126115,0.01919790,-0.03693113,-0.00099726,-0.00012765,0.0007
 3494,0.00231479,0.00114318,0.00299104,0.00647334,0.01123433,-0.0074977
 4,0.00058688,0.00025027,-0.00008868,0.00241819,-0.00061251,-0.00023254
 ,-0.00028908,0.00014414,0.00005955,-0.00050615,-0.00000859,-0.00029136
 ,0.00039437,0.00008918,-0.00023557,0.00086359,0.00202498,-0.00041913,-
 0.00004614,-0.00065382,0.00010792,-0.00638039,0.00186020,0.00147893,0.
 00045091,0.00023527,-0.00065256,0.00146196,-0.00039397,-0.00036502,-0.
 00027266,-0.00004034,-0.00026083,-0.00065387,0.00023611,0.00388199,0.0
 0066752,-0.00145207,-0.00038130,-0.09917378,-0.10437701,0.25835288,-0.
 00176073,-0.00002048,-0.00138903,-0.01931808,0.00630331,0.00477989,-0.
 00044721,0.00042220,-0.00005635,-0.00091210,-0.00221033,0.00225710,0.0
 0008938,0.00025519,0.00059433,0.00311059,0.00022265,0.00047556,0.00022
 523,-0.00011122,-0.00004906,0.00008836,-0.00009394,0.00022708,0.000953
 92,0.00097770,-0.00200758,-0.00004020,-0.00003343,-0.00006730,0.005905
 95,0.00189542,-0.00346861,-0.00038068,-0.00027263,0.00043400,-0.001093
 77,-0.00007408,0.00102366,-0.00004015,-0.00004306,0.00002078,-0.000051
 55,0.00016295,-0.00046475,0.00015773,-0.00001883,-0.00011563,-0.004708
 56,-0.00205631,0.00511187,-0.00134692,-0.00051154,-0.00114321,0.000063
 38,-0.00016759,-0.00015099,-0.00000302,0.00006291,0.00002798,0.0010350
 9,-0.00005652,0.00038530,-0.00058948,0.00021969,-0.00004231,-0.4113320
 1,0.13875258,0.04175343,0.43039481,-0.00013778,-0.00056392,0.00054758,
 -0.02181582,0.00539258,0.00590546,-0.00043457,0.00093124,-0.00006502,-
 0.00152255,-0.00218985,0.00285019,0.00004700,0.00063880,0.00002906,0.0
 0027595,0.00144623,-0.00008109,0.00001987,0.00020655,0.00009986,0.0000
 4042,-0.00062042,-0.00046558,-0.00108246,0.00006295,0.00019419,-0.0000
 2538,-0.00007458,0.00000176,-0.00058914,0.00015844,0.00120116,0.000080
 84,-0.00031614,0.00026619,0.00020602,-0.00011041,-0.00022925,-0.000008
 50,-0.00004503,-0.00009327,0.00019422,-0.00036401,-0.00020388,-0.00003
 033,0.00003855,0.00004790,0.00018243,-0.00429823,0.00028875,-0.0022219
 8,0.00050685,-0.00294419,-0.00036509,-0.00020242,0.00030755,-0.0000736
 5,0.00007992,0.00010284,-0.00030586,0.00009224,0.00030484,0.00053783,-
 0.00043124,0.00007916,0.17063320,-0.08165328,0.00032659,-0.14360465,0.
 08131517,-0.00223367,-0.00035749,0.00105357,0.03815784,-0.01133445,-0.
 00697500,0.00139157,-0.00097846,0.00094567,0.00158350,0.00425683,-0.00
 701989,0.00143037,0.00081936,0.00055816,0.00263408,-0.00101893,-0.0011
 2960,-0.00045221,0.00004480,0.00009398,-0.00014609,-0.00038190,-0.0002
 4878,-0.00060127,0.00071795,0.00074756,-0.00025550,-0.00011861,-0.0000
 1965,0.00191120,0.00242591,-0.00651632,-0.00016363,-0.00027480,0.00022
 881,-0.00031500,0.00004651,0.00076514,-0.00000362,0.00014298,-0.000207
 64,-0.00049449,-0.00048387,-0.00011307,0.00016078,0.00020736,-0.000156
 34,0.00353272,-0.00238160,0.00324975,-0.00179172,-0.00054485,0.0001617
 7,0.00033153,0.00026134,-0.00054984,0.00014049,-0.00011706,-0.00010558
 ,-0.00179459,-0.00040418,0.00042561,0.00153743,0.00035768,0.00087009,0
 .00357645,0.01758628,-0.03304861,-0.04813616,-0.00847079,0.04699020\\-
 0.00002498,-0.00003070,0.00001642,-0.00000301,-0.00000752,-0.00000440,
 -0.00002324,-0.00000991,-0.00001635,-0.00000377,-0.00002337,-0.0000102
 0,0.00002156,0.00007301,-0.00000374,0.00000190,-0.00000393,-0.00000191
 ,0.00001314,0.00001458,0.00001051,0.00000667,-0.00000229,0.00001156,0.
 00000767,0.00001226,-0.00000518,-0.00000299,-0.00002236,-0.00000433,-0
 .00000403,0.00000247,0.00000291,0.00000342,-0.00000326,-0.00000578,-0.
 00000094,-0.00001338,0.00000676,0.00000083,0.00000868,0.00000474,0.000
 00166,-0.00004240,-0.00002785,-0.00000112,-0.00001143,-0.00000817,-0.0
 0000090,-0.00000414,-0.00000049,-0.00000068,0.00000539,0.00001000,-0.0
 0000354,0.00000308,0.00001461,-0.00000923,-0.00000729,-0.00001141,0.00
 002115,0.00001552,0.00001636,-0.00000325,0.00002113,0.00000027,-0.0000
 0110,0.00001666,-0.00000287,0.00000477,0.00000920,0.00000855\\\@


 WE ARE PERHAPS NOT FAR REMOVED FROM THE TIME WHEN WE SHALL BE ABLE TO SUBMIT
 THE BULK OF CHEMICAL PHENOMENA TO CALCULATION.

            -- JOSEPH LOUIS GAY-LUSSAC
               MEMOIRES DE LA SOCIETE D'ARCUEIL, 2, 207 (1808)
 Job cpu time:       0 days  0 hours 54 minutes  9.6 seconds.
 File lengths (MBytes):  RWF=    129 Int=      0 D2E=      0 Chk=      4 Scr=      1
 Normal termination of Gaussian 09 at Tue Jun 14 03:35:51 2016.
