 Entering Gaussian System, Link 0=g09
 Initial command:
 /usr/local/gaussian/g09.D01/g09/l1.exe "/nqs/iawad/Gau-29907.inp" -scrdir="/nqs/iawad/"
 Entering Link 1 = /usr/local/gaussian/g09.D01/g09/l1.exe PID=     29910.
  
 Copyright (c) 1988,1990,1992,1993,1995,1998,2003,2009,2013,
            Gaussian, Inc.  All Rights Reserved.
  
 This is part of the Gaussian(R) 09 program.  It is based on
 the Gaussian(R) 03 system (copyright 2003, Gaussian, Inc.),
 the Gaussian(R) 98 system (copyright 1998, Gaussian, Inc.),
 the Gaussian(R) 94 system (copyright 1995, Gaussian, Inc.),
 the Gaussian 92(TM) system (copyright 1992, Gaussian, Inc.),
 the Gaussian 90(TM) system (copyright 1990, Gaussian, Inc.),
 the Gaussian 88(TM) system (copyright 1988, Gaussian, Inc.),
 the Gaussian 86(TM) system (copyright 1986, Carnegie Mellon
 University), and the Gaussian 82(TM) system (copyright 1983,
 Carnegie Mellon University). Gaussian is a federally registered
 trademark of Gaussian, Inc.
  
 This software contains proprietary and confidential information,
 including trade secrets, belonging to Gaussian, Inc.
  
 This software is provided under written license and may be
 used, copied, transmitted, or stored only in accord with that
 written license.
  
 The following legend is applicable only to US Government
 contracts under FAR:
  
                    RESTRICTED RIGHTS LEGEND
  
 Use, reproduction and disclosure by the US Government is
 subject to restrictions as set forth in subparagraphs (a)
 and (c) of the Commercial Computer Software - Restricted
 Rights clause in FAR 52.227-19.
  
 Gaussian, Inc.
 340 Quinnipiac St., Bldg. 40, Wallingford CT 06492
  
  
 ---------------------------------------------------------------
 Warning -- This program may not be used in any manner that
 competes with the business of Gaussian, Inc. or will provide
 assistance to any competitor of Gaussian, Inc.  The licensee
 of this program is prohibited from giving any competitor of
 Gaussian, Inc. access to this program.  By using this program,
 the user acknowledges that Gaussian, Inc. is engaged in the
 business of creating and licensing software in the field of
 computational chemistry and represents and warrants to the
 licensee that it is not a competitor of Gaussian, Inc. and that
 it will not use this program in any manner prohibited above.
 ---------------------------------------------------------------
  

 Cite this work as:
 Gaussian 09, Revision D.01,
 M. J. Frisch, G. W. Trucks, H. B. Schlegel, G. E. Scuseria, 
 M. A. Robb, J. R. Cheeseman, G. Scalmani, V. Barone, B. Mennucci, 
 G. A. Petersson, H. Nakatsuji, M. Caricato, X. Li, H. P. Hratchian, 
 A. F. Izmaylov, J. Bloino, G. Zheng, J. L. Sonnenberg, M. Hada, 
 M. Ehara, K. Toyota, R. Fukuda, J. Hasegawa, M. Ishida, T. Nakajima, 
 Y. Honda, O. Kitao, H. Nakai, T. Vreven, J. A. Montgomery, Jr., 
 J. E. Peralta, F. Ogliaro, M. Bearpark, J. J. Heyd, E. Brothers, 
 K. N. Kudin, V. N. Staroverov, T. Keith, R. Kobayashi, J. Normand, 
 K. Raghavachari, A. Rendell, J. C. Burant, S. S. Iyengar, J. Tomasi, 
 M. Cossi, N. Rega, J. M. Millam, M. Klene, J. E. Knox, J. B. Cross, 
 V. Bakken, C. Adamo, J. Jaramillo, R. Gomperts, R. E. Stratmann, 
 O. Yazyev, A. J. Austin, R. Cammi, C. Pomelli, J. W. Ochterski, 
 R. L. Martin, K. Morokuma, V. G. Zakrzewski, G. A. Voth, 
 P. Salvador, J. J. Dannenberg, S. Dapprich, A. D. Daniels, 
 O. Farkas, J. B. Foresman, J. V. Ortiz, J. Cioslowski, 
 and D. J. Fox, Gaussian, Inc., Wallingford CT, 2013.
 
 ******************************************
 Gaussian 09:  AM64L-G09RevD.01 24-Apr-2013
                14-Jun-2016 
 ******************************************
 %NPROCS=4
 Will use up to    4 processors via shared memory.
 %rwf=/nqs/iawad//boat1_Alpha_optfreq_B3LYP_6-31G_d.rwf
 %nosave
 %chk=/home/iawad/scratch/MAIN/PRO_Halides/direct/optfreq/boat1_Alpha/boat1_Alpha
 _optfreq_B3LYP_6-31G_d.chk
 -----------------------------------------
 # opt=(MaxCycle=1000) freq B3LYP/6-31G(d)
 -----------------------------------------
 1/6=1000,14=-1,18=20,19=15,26=3,38=1/1,3;
 2/9=110,12=2,17=6,18=5,40=1/2;
 3/5=1,6=6,7=1,11=2,16=1,25=1,30=1,71=1,74=-5/1,2,3;
 4//1;
 5/5=2,38=5/2;
 6/7=2,8=2,9=2,10=2,28=1/1;
 7//1,2,3,16;
 1/6=1000,14=-1,18=20,19=15,26=3/3(2);
 2/9=110/2;
 99//99;
 2/9=110/2;
 3/5=1,6=6,7=1,11=2,16=1,25=1,30=1,71=1,74=-5/1,2,3;
 4/5=5,16=3,69=1/1;
 5/5=2,38=5/2;
 7//1,2,3,16;
 1/6=1000,14=-1,18=20,19=15,26=3/3(-5);
 2/9=110/2;
 6/7=2,8=2,9=2,10=2,19=2,28=1/1;
 99/9=1/99;
 -------------------------
 boat1_Alpha_B3LYP_6-31G_d
 -------------------------
 Symbolic Z-matrix:
 Charge =  0 Multiplicity = 1
 H
 C                    1    B1
 C                    2    B2       1    A1
 C                    2    B3       1    A2       3    D1       0
 C                    3    B4       2    A3       1    D2       0
 O                    4    B5       2    A4       1    D3       0
 C                    3    B6       2    A5       1    D4       0
 H                    5    B7       3    A6       2    D5       0
 H                    7    B8       3    A7       2    D6       0
 C                    2    B9       1    A8       6    D7       0
 H                    10   B10      2    A9       1    D8       0
 H                    10   B11      2    A10      1    D9       0
 H                    3    B12      2    A11      1    D10      0
 O                    10   B13      2    A12      1    D11      0
 H                    14   B14      10   A13      2    D12      0
 O                    5    B15      3    A14      2    D13      0
 H                    16   B16      5    A15      3    D14      0
 O                    3    B17      2    A16      1    D15      0
 H                    18   B18      3    A17      2    D16      0
 O                    7    B19      3    A18      2    D17      0
 H                    20   B20      7    A19      3    D18      0
 H                    4    B21      2    A20      1    D19      0
 O                    4    B22      2    A21      1    D20      0
 H                    23   B23      4    A22      2    D21      0
       Variables:
  B1                    1.09719                  
  B2                    2.52855                  
  B3                    2.51147                  
  B4                    1.52359                  
  B5                    1.44795                  
  B6                    1.52619                  
  B7                    1.09704                  
  B8                    1.09722                  
  B9                    1.53153                  
  B10                   1.09518                  
  B11                   1.09412                  
  B12                   1.09729                  
  B13                   1.42598                  
  B14                   0.97451                  
  B15                   1.4397                   
  B16                   0.97906                  
  B17                   1.44041                  
  B18                   0.97951                  
  B19                   1.43637                  
  B20                   0.97787                  
  B21                   1.096                    
  B22                   1.41002                  
  B23                   0.95803                  
  A1                  115.96167                  
  A2                  133.71887                  
  A3                   89.66711                  
  A4                   30.39748                  
  A5                   34.506                    
  A6                  110.15131                  
  A7                  108.69194                  
  A8                  107.28538                  
  A9                  110.26128                  
  A10                 111.54197                  
  A11                  95.4578                   
  A12                 109.81673                  
  A13                 106.5327                   
  A14                 108.73656                  
  A15                 104.61118                  
  A16                 144.18845                  
  A17                 104.48922                  
  A18                 108.53465                  
  A19                 105.91706                  
  A20                  99.29523                  
  A21                 136.4542                   
  A22                 104.99534                  
  D1                   72.56475                  
  D2                  145.17068                  
  D3                   22.89001                  
  D4                  -85.23267                  
  D5                   95.1031                   
  D6                 -122.75652                  
  D7                  118.42469                  
  D8                  -62.3686                   
  D9                  177.94005                  
  D10                  34.35371                  
  D11                  57.74604                  
  D12                -176.75903                  
  D13                -150.11144                  
  D14                 -46.48525                  
  D15                 -91.67273                  
  D16                  51.83078                  
  D17                 123.12815                  
  D18                 179.30852                  
  D19                 133.00853                  
  D20                   4.25409                  
  D21                -173.14102                  
 

 GradGradGradGradGradGradGradGradGradGradGradGradGradGradGradGradGradGrad
 Berny optimization.
 Initialization pass.
                           ----------------------------
                           !    Initial Parameters    !
                           ! (Angstroms and Degrees)  !
 --------------------------                            --------------------------
 ! Name  Definition              Value          Derivative Info.                !
 --------------------------------------------------------------------------------
 ! R1    R(1,2)                  1.0972         estimate D2E/DX2                !
 ! R2    R(2,6)                  1.4597         estimate D2E/DX2                !
 ! R3    R(2,7)                  1.5371         estimate D2E/DX2                !
 ! R4    R(2,10)                 1.5315         estimate D2E/DX2                !
 ! R5    R(3,5)                  1.5236         estimate D2E/DX2                !
 ! R6    R(3,7)                  1.5262         estimate D2E/DX2                !
 ! R7    R(3,13)                 1.0973         estimate D2E/DX2                !
 ! R8    R(3,18)                 1.4404         estimate D2E/DX2                !
 ! R9    R(4,5)                  1.5371         estimate D2E/DX2                !
 ! R10   R(4,6)                  1.4479         estimate D2E/DX2                !
 ! R11   R(4,22)                 1.096          estimate D2E/DX2                !
 ! R12   R(4,23)                 1.41           estimate D2E/DX2                !
 ! R13   R(5,8)                  1.097          estimate D2E/DX2                !
 ! R14   R(5,16)                 1.4397         estimate D2E/DX2                !
 ! R15   R(7,9)                  1.0972         estimate D2E/DX2                !
 ! R16   R(7,20)                 1.4364         estimate D2E/DX2                !
 ! R17   R(10,11)                1.0952         estimate D2E/DX2                !
 ! R18   R(10,12)                1.0941         estimate D2E/DX2                !
 ! R19   R(10,14)                1.426          estimate D2E/DX2                !
 ! R20   R(14,15)                0.9745         estimate D2E/DX2                !
 ! R21   R(16,17)                0.9791         estimate D2E/DX2                !
 ! R22   R(18,19)                0.9795         estimate D2E/DX2                !
 ! R23   R(20,21)                0.9779         estimate D2E/DX2                !
 ! R24   R(23,24)                0.958          estimate D2E/DX2                !
 ! A1    A(1,2,6)              105.2828         estimate D2E/DX2                !
 ! A2    A(1,2,7)              108.6582         estimate D2E/DX2                !
 ! A3    A(1,2,10)             107.2854         estimate D2E/DX2                !
 ! A4    A(6,2,7)              112.3164         estimate D2E/DX2                !
 ! A5    A(6,2,10)             111.1071         estimate D2E/DX2                !
 ! A6    A(7,2,10)             111.8209         estimate D2E/DX2                !
 ! A7    A(5,3,7)              110.8717         estimate D2E/DX2                !
 ! A8    A(5,3,13)             110.7517         estimate D2E/DX2                !
 ! A9    A(5,3,18)             108.949          estimate D2E/DX2                !
 ! A10   A(7,3,13)             110.9043         estimate D2E/DX2                !
 ! A11   A(7,3,18)             109.8098         estimate D2E/DX2                !
 ! A12   A(13,3,18)            105.3938         estimate D2E/DX2                !
 ! A13   A(5,4,6)              112.5089         estimate D2E/DX2                !
 ! A14   A(5,4,22)             110.4343         estimate D2E/DX2                !
 ! A15   A(5,4,23)             110.4833         estimate D2E/DX2                !
 ! A16   A(6,4,22)             108.1241         estimate D2E/DX2                !
 ! A17   A(6,4,23)             107.1495         estimate D2E/DX2                !
 ! A18   A(22,4,23)            107.9703         estimate D2E/DX2                !
 ! A19   A(3,5,4)              111.3037         estimate D2E/DX2                !
 ! A20   A(3,5,8)              110.1513         estimate D2E/DX2                !
 ! A21   A(3,5,16)             108.7366         estimate D2E/DX2                !
 ! A22   A(4,5,8)              110.4251         estimate D2E/DX2                !
 ! A23   A(4,5,16)             110.8482         estimate D2E/DX2                !
 ! A24   A(8,5,16)             105.1914         estimate D2E/DX2                !
 ! A25   A(2,6,4)              119.4764         estimate D2E/DX2                !
 ! A26   A(2,7,3)              111.2664         estimate D2E/DX2                !
 ! A27   A(2,7,9)              111.1857         estimate D2E/DX2                !
 ! A28   A(2,7,20)             111.5668         estimate D2E/DX2                !
 ! A29   A(3,7,9)              108.6919         estimate D2E/DX2                !
 ! A30   A(3,7,20)             108.5347         estimate D2E/DX2                !
 ! A31   A(9,7,20)             105.3715         estimate D2E/DX2                !
 ! A32   A(2,10,11)            110.2613         estimate D2E/DX2                !
 ! A33   A(2,10,12)            111.542          estimate D2E/DX2                !
 ! A34   A(2,10,14)            109.8167         estimate D2E/DX2                !
 ! A35   A(11,10,12)           107.762          estimate D2E/DX2                !
 ! A36   A(11,10,14)           108.9906         estimate D2E/DX2                !
 ! A37   A(12,10,14)           108.3981         estimate D2E/DX2                !
 ! A38   A(10,14,15)           106.5327         estimate D2E/DX2                !
 ! A39   A(5,16,17)            104.6112         estimate D2E/DX2                !
 ! A40   A(3,18,19)            104.4892         estimate D2E/DX2                !
 ! A41   A(7,20,21)            105.9171         estimate D2E/DX2                !
 ! A42   A(4,23,24)            104.9953         estimate D2E/DX2                !
 ! D1    D(1,2,6,4)           -163.0567         estimate D2E/DX2                !
 ! D2    D(7,2,6,4)            -44.9796         estimate D2E/DX2                !
 ! D3    D(10,2,6,4)            81.1165         estimate D2E/DX2                !
 ! D4    D(1,2,7,3)            108.972          estimate D2E/DX2                !
 ! D5    D(1,2,7,9)           -129.7175         estimate D2E/DX2                !
 ! D6    D(1,2,7,20)           -12.402          estimate D2E/DX2                !
 ! D7    D(6,2,7,3)             -7.0892         estimate D2E/DX2                !
 ! D8    D(6,2,7,9)            114.2213         estimate D2E/DX2                !
 ! D9    D(6,2,7,20)          -128.4632         estimate D2E/DX2                !
 ! D10   D(10,2,7,3)          -132.7976         estimate D2E/DX2                !
 ! D11   D(10,2,7,9)           -11.487          estimate D2E/DX2                !
 ! D12   D(10,2,7,20)          105.8284         estimate D2E/DX2                !
 ! D13   D(1,2,10,11)          -62.3686         estimate D2E/DX2                !
 ! D14   D(1,2,10,12)          177.9401         estimate D2E/DX2                !
 ! D15   D(1,2,10,14)           57.746          estimate D2E/DX2                !
 ! D16   D(6,2,10,11)           52.2153         estimate D2E/DX2                !
 ! D17   D(6,2,10,12)          -67.476          estimate D2E/DX2                !
 ! D18   D(6,2,10,14)          172.3299         estimate D2E/DX2                !
 ! D19   D(7,2,10,11)          178.5855         estimate D2E/DX2                !
 ! D20   D(7,2,10,12)           58.8941         estimate D2E/DX2                !
 ! D21   D(7,2,10,14)          -61.2999         estimate D2E/DX2                !
 ! D22   D(7,3,5,4)            -55.5743         estimate D2E/DX2                !
 ! D23   D(7,3,5,8)             67.2526         estimate D2E/DX2                !
 ! D24   D(7,3,5,16)          -177.962          estimate D2E/DX2                !
 ! D25   D(13,3,5,4)            67.9872         estimate D2E/DX2                !
 ! D26   D(13,3,5,8)          -169.1859         estimate D2E/DX2                !
 ! D27   D(13,3,5,16)          -54.4004         estimate D2E/DX2                !
 ! D28   D(18,3,5,4)          -176.5311         estimate D2E/DX2                !
 ! D29   D(18,3,5,8)           -53.7042         estimate D2E/DX2                !
 ! D30   D(18,3,5,16)           61.0813         estimate D2E/DX2                !
 ! D31   D(5,3,7,2)             55.5531         estimate D2E/DX2                !
 ! D32   D(5,3,7,9)            -67.2034         estimate D2E/DX2                !
 ! D33   D(5,3,7,20)           178.6812         estimate D2E/DX2                !
 ! D34   D(13,3,7,2)           -67.9208         estimate D2E/DX2                !
 ! D35   D(13,3,7,9)           169.3227         estimate D2E/DX2                !
 ! D36   D(13,3,7,20)           55.2073         estimate D2E/DX2                !
 ! D37   D(18,3,7,2)           176.0            estimate D2E/DX2                !
 ! D38   D(18,3,7,9)            53.2434         estimate D2E/DX2                !
 ! D39   D(18,3,7,20)          -60.8719         estimate D2E/DX2                !
 ! D40   D(5,3,18,19)          169.563          estimate D2E/DX2                !
 ! D41   D(7,3,18,19)           47.9583         estimate D2E/DX2                !
 ! D42   D(13,3,18,19)         -71.5495         estimate D2E/DX2                !
 ! D43   D(6,4,5,3)              6.941          estimate D2E/DX2                !
 ! D44   D(6,4,5,8)           -115.7286         estimate D2E/DX2                !
 ! D45   D(6,4,5,16)           128.1016         estimate D2E/DX2                !
 ! D46   D(22,4,5,3)           127.854          estimate D2E/DX2                !
 ! D47   D(22,4,5,8)             5.1844         estimate D2E/DX2                !
 ! D48   D(22,4,5,16)         -110.9854         estimate D2E/DX2                !
 ! D49   D(23,4,5,3)          -112.7633         estimate D2E/DX2                !
 ! D50   D(23,4,5,8)           124.5672         estimate D2E/DX2                !
 ! D51   D(23,4,5,16)            8.3974         estimate D2E/DX2                !
 ! D52   D(5,4,6,2)             45.0591         estimate D2E/DX2                !
 ! D53   D(22,4,6,2)           -77.1691         estimate D2E/DX2                !
 ! D54   D(23,4,6,2)           166.6797         estimate D2E/DX2                !
 ! D55   D(5,4,23,24)          -59.9983         estimate D2E/DX2                !
 ! D56   D(6,4,23,24)          177.1167         estimate D2E/DX2                !
 ! D57   D(22,4,23,24)          60.8637         estimate D2E/DX2                !
 ! D58   D(3,5,16,17)          -46.4852         estimate D2E/DX2                !
 ! D59   D(4,5,16,17)         -169.1482         estimate D2E/DX2                !
 ! D60   D(8,5,16,17)           71.4876         estimate D2E/DX2                !
 ! D61   D(2,7,20,21)          -57.7445         estimate D2E/DX2                !
 ! D62   D(3,7,20,21)          179.3085         estimate D2E/DX2                !
 ! D63   D(9,7,20,21)           63.0309         estimate D2E/DX2                !
 ! D64   D(2,10,14,15)        -176.759          estimate D2E/DX2                !
 ! D65   D(11,10,14,15)        -55.8751         estimate D2E/DX2                !
 ! D66   D(12,10,14,15)         61.1558         estimate D2E/DX2                !
 --------------------------------------------------------------------------------
 Trust Radius=3.00D-01 FncErr=1.00D-07 GrdErr=1.00D-06
 Number of steps in this run=    144 maximum allowed number of steps=    144.
 GradGradGradGradGradGradGradGradGradGradGradGradGradGradGradGradGradGrad

                          Input orientation:                          
 ---------------------------------------------------------------------
 Center     Atomic      Atomic             Coordinates (Angstroms)
 Number     Number       Type             X           Y           Z
 ---------------------------------------------------------------------
      1          1           0        0.000000    0.000000    0.000000
      2          6           0        0.000000    0.000000    1.097187
      3          6           0        2.273391    0.000000    2.204112
      4          6           0        0.543867    1.731746    2.832918
      5          6           0        1.717944    0.870160    3.324662
      6          8           0        0.141300    1.401017    1.481954
      7          6           0        1.174077   -0.861587    1.588932
      8          1           0        1.405857    0.244273    4.169859
      9          1           0        0.842762   -1.594560    2.335171
     10          6           0       -1.349423   -0.563523    1.552253
     11          1           0       -2.164999    0.082309    1.209967
     12          1           0       -1.410444   -0.628649    2.642724
     13          1           0        2.761999    0.616395    1.439018
     14          8           0       -1.534474   -1.870275    1.012288
     15          1           0       -2.423504   -2.160292    1.286492
     16          8           0        2.779514    1.695899    3.838444
     17          1           0        3.534059    1.083227    3.956154
     18          8           0        3.312837   -0.842454    2.737587
     19          1           0        3.501554   -1.482620    2.020645
     20          8           0        1.744141   -1.635776    0.521774
     21          1           0        1.013524   -2.178595    0.164325
     22          1           0       -0.325168    1.604333    3.488485
     23          8           0        0.897044    3.096806    2.839112
     24          1           0        1.112659    3.292926    3.751731
 ---------------------------------------------------------------------
                    Distance matrix (angstroms):
                    1          2          3          4          5
     1  H    0.000000
     2  C    1.097187   0.000000
     3  C    3.166452   2.528554   0.000000
     4  C    3.364545   2.511473   2.526973   0.000000
     5  C    3.842120   2.944512   1.523592   1.537075   0.000000
     6  O    2.044261   1.459747   2.651447   1.447946   2.482577
     7  C    2.155340   1.537075   1.526194   2.944494   2.511473
     8  H    4.407247   3.387833   2.162508   2.177847   1.097037
     9  H    2.950575   2.187573   2.146275   3.376596   2.796404
    10  C    2.132601   1.531530   3.723876   3.239276   3.821730
    11  H    2.481535   2.169497   4.549110   3.562663   4.491090
    12  H    3.060807   2.184773   3.762740   3.070337   3.535290
    13  H    3.174800   2.850514   1.097292   2.847293   2.170277
    14  O    2.622454   2.420691   4.406609   4.539686   4.840999
    15  H    3.492176   3.252087   5.250686   5.132708   5.521717
    16  O    5.033431   4.256320   2.408999   2.451630   1.439705
    17  H    5.414250   4.672969   2.415019   3.259369   1.934542
    18  O    4.379384   3.791508   1.440407   3.781903   2.412755
    19  H    4.306048   3.913032   1.933962   4.442956   3.227584
    20  O    2.447456   2.459450   2.405438   4.257024   3.759865
    21  H    2.408424   2.577545   3.239486   4.757387   4.447341
    22  H    3.853459   2.897917   3.313005   1.096003   2.177189
    23  O    4.295981   3.664586   3.447863   1.410021   2.422310
    24  H    5.114377   4.373554   3.819134   1.898690   2.533486
                    6          7          8          9         10
     6  O    0.000000
     7  C    2.489468   0.000000
     8  H    3.187789   2.817416   0.000000
     9  H    3.192728   1.097221   2.657905   0.000000
    10  C    2.467107   2.541306   3.885353   2.545913   0.000000
    11  H    2.670578   3.490556   4.640927   3.622789   1.095182
    12  H    2.806215   2.800801   3.320494   2.470730   1.094117
    13  H    2.735971   2.174488   3.071658   3.061843   4.278880
    14  O    3.705423   2.947239   4.804905   2.734463   1.425975
    15  H    4.393103   3.836755   5.362811   3.476819   1.942666
    16  O    3.549673   3.765431   2.025830   4.103408   5.232569
    17  H    4.211113   3.867241   2.297554   4.128099   5.686732
    18  O    4.082698   2.427771   2.620868   2.613211   4.818660
    19  H    4.460590   2.447286   3.463123   2.679670   4.959446
    20  O    3.565552   1.436373   4.117954   2.025486   3.432455
    21  H    3.912869   1.946738   4.697713   2.254513   3.180930
    22  H    2.070048   3.454967   2.304448   3.595429   3.081833
    23  O    2.299723   4.160357   3.188530   4.718667   4.483372
    24  H    3.110425   4.684170   3.091130   5.095783   5.076589
                   11         12         13         14         15
    11  H    0.000000
    12  H    1.768504   0.000000
    13  H    4.961151   4.517557   0.000000
    14  O    2.061365   2.053130   4.982500   0.000000
    15  H    2.258748   2.282890   5.884105   0.974511   0.000000
    16  O    5.827588   4.938523   2.631137   6.270187   6.960895
    17  H    6.404892   5.394786   2.673945   6.563501   7.289723
    18  O    5.761554   4.729069   2.029272   5.246856   6.062011
    19  H    5.934310   5.024338   2.300238   5.150596   6.008705
    20  O    4.325136   3.932447   2.636219   3.323388   4.269563
    21  H    4.038324   3.797422   3.534682   2.703034   3.615626
    22  H    3.300482   2.622850   3.834962   4.434735   4.839855
    23  O    4.595368   4.386579   3.404520   5.824213   6.408880
    24  H    5.245157   4.793192   3.902919   6.416425   6.951219
                   16         17         18         19         20
    16  O    0.000000
    17  H    0.979061   0.000000
    18  O    2.817721   2.289561   0.000000
    19  H    3.732120   3.214160   0.979507   0.000000
    20  O    4.813768   4.731993   2.828427   2.314860   0.000000
    21  H    5.624017   5.600941   3.700512   3.181289   0.977866
    22  H    3.125685   3.922231   4.448111   5.131046   4.856102
    23  O    2.550471   3.500876   4.622135   5.331464   5.337131
    24  H    2.310070   3.284469   4.792769   5.613316   5.926508
                   21         22         23         24
    21  H    0.000000
    22  H    5.210823   0.000000
    23  O    5.915902   2.035427   0.000000
    24  H    6.543458   2.233381   0.958033   0.000000
 Stoichiometry    C6H12O6
 Framework group  C1[X(C6H12O6)]
 Deg. of freedom    66
 Full point group                 C1      NOp   1
 Largest Abelian subgroup         C1      NOp   1
 Largest concise Abelian subgroup C1      NOp   1
                         Standard orientation:                         
 ---------------------------------------------------------------------
 Center     Atomic      Atomic             Coordinates (Angstroms)
 Number     Number       Type             X           Y           Z
 ---------------------------------------------------------------------
      1          1           0        1.734735   -0.453545   -1.473357
      2          6           0        1.198308   -0.527249   -0.519085
      3          6           0       -0.684168    1.125864   -0.176904
      4          6           0       -1.083925   -1.350330    0.130107
      5          6           0       -1.463429    0.065880    0.591547
      6          8           0        0.026600   -1.351625   -0.799022
      7          6           0        0.818803    0.888960   -0.057645
      8          1           0       -1.290362    0.176658    1.669167
      9          1           0        1.120405    1.061017    0.983185
     10          6           0        2.134066   -1.218824    0.476739
     11          1           0        2.367619   -2.233155    0.136136
     12          1           0        1.678771   -1.296335    1.468601
     13          1           0       -0.994447    1.149975   -1.229138
     14          8           0        3.346895   -0.478220    0.594879
     15          1           0        3.923707   -0.984658    1.195279
     16          8           0       -2.871524    0.304094    0.409138
     17          1           0       -2.980577    1.265693    0.557444
     18          8           0       -1.016939    2.424598    0.349715
     19          1           0       -0.366420    3.030090   -0.062156
     20          8           0        1.501671    1.894410   -0.823106
     21          1           0        2.456280    1.714238   -0.711386
     22          1           0       -0.809844   -1.972332    0.989884
     23          8           0       -2.172446   -1.965026   -0.522143
     24          1           0       -2.871865   -1.989305    0.132113
 ---------------------------------------------------------------------
 Rotational constants (GHZ):      1.2425459      0.7443915      0.5225511
 Standard basis: 6-31G(d) (6D, 7F)
 There are   204 symmetry adapted cartesian basis functions of A   symmetry.
 There are   204 symmetry adapted basis functions of A   symmetry.
   204 basis functions,   384 primitive gaussians,   204 cartesian basis functions
    48 alpha electrons       48 beta electrons
       nuclear repulsion energy       824.0300871323 Hartrees.
 NAtoms=   24 NActive=   24 NUniq=   24 SFac= 1.00D+00 NAtFMM=   60 NAOKFM=F Big=F
 Integral buffers will be    131072 words long.
 Raffenetti 2 integral format.
 Two-electron integral symmetry is turned on.
 One-electron integrals computed using PRISM.
 NBasis=   204 RedAO= T EigKep=  1.39D-03  NBF=   204
 NBsUse=   204 1.00D-06 EigRej= -1.00D+00 NBFU=   204
 ExpMin= 1.61D-01 ExpMax= 5.48D+03 ExpMxC= 8.25D+02 IAcc=1 IRadAn=         1 AccDes= 0.00D+00
 Harris functional with IExCor=  402 and IRadAn=       1 diagonalized for initial guess.
 HarFok:  IExCor=  402 AccDes= 0.00D+00 IRadAn=         1 IDoV= 1 UseB2=F ITyADJ=14
 ICtDFT=  3500011 ScaDFX=  1.000000  1.000000  1.000000  1.000000
 FoFCou: FMM=F IPFlag=           0 FMFlag=      100000 FMFlg1=           0
         NFxFlg=           0 DoJE=T BraDBF=F KetDBF=T FulRan=T
         wScrn=  0.000000 ICntrl=     500 IOpCl=  0 I1Cent=   200000004 NGrid=           0
         NMat0=    1 NMatS0=      1 NMatT0=    0 NMatD0=    1 NMtDS0=    0 NMtDT0=    0
 Petite list used in FoFCou.
 Requested convergence on RMS density matrix=1.00D-08 within 128 cycles.
 Requested convergence on MAX density matrix=1.00D-06.
 Requested convergence on             energy=1.00D-06.
 No special actions if energy rises.
 Integral accuracy reduced to 1.0D-05 until final iterations.
 Initial convergence to 1.0D-05 achieved.  Increase integral accuracy.
 SCF Done:  E(RB3LYP) =  -687.115428717     A.U. after   14 cycles
            NFock= 14  Conv=0.27D-08     -V/T= 2.0087

 **********************************************************************

            Population analysis using the SCF density.

 **********************************************************************

 Orbital symmetries:
       Occupied  (A) (A) (A) (A) (A) (A) (A) (A) (A) (A) (A) (A)
                 (A) (A) (A) (A) (A) (A) (A) (A) (A) (A) (A) (A)
                 (A) (A) (A) (A) (A) (A) (A) (A) (A) (A) (A) (A)
                 (A) (A) (A) (A) (A) (A) (A) (A) (A) (A) (A) (A)
       Virtual   (A) (A) (A) (A) (A) (A) (A) (A) (A) (A) (A) (A)
                 (A) (A) (A) (A) (A) (A) (A) (A) (A) (A) (A) (A)
                 (A) (A) (A) (A) (A) (A) (A) (A) (A) (A) (A) (A)
                 (A) (A) (A) (A) (A) (A) (A) (A) (A) (A) (A) (A)
                 (A) (A) (A) (A) (A) (A) (A) (A) (A) (A) (A) (A)
                 (A) (A) (A) (A) (A) (A) (A) (A) (A) (A) (A) (A)
                 (A) (A) (A) (A) (A) (A) (A) (A) (A) (A) (A) (A)
                 (A) (A) (A) (A) (A) (A) (A) (A) (A) (A) (A) (A)
                 (A) (A) (A) (A) (A) (A) (A) (A) (A) (A) (A) (A)
                 (A) (A) (A) (A) (A) (A) (A) (A) (A) (A) (A) (A)
                 (A) (A) (A) (A) (A) (A) (A) (A) (A) (A) (A) (A)
                 (A) (A) (A) (A) (A) (A) (A) (A) (A) (A) (A) (A)
                 (A) (A) (A) (A) (A) (A) (A) (A) (A) (A) (A) (A)
 The electronic state is 1-A.
 Alpha  occ. eigenvalues --  -19.16730 -19.15996 -19.15727 -19.14957 -19.14560
 Alpha  occ. eigenvalues --  -19.14462 -10.29394 -10.25317 -10.24607 -10.24459
 Alpha  occ. eigenvalues --  -10.24119 -10.23944  -1.06144  -1.03912  -1.03463
 Alpha  occ. eigenvalues --   -1.02065  -1.00411  -0.99642  -0.78534  -0.76881
 Alpha  occ. eigenvalues --   -0.69788  -0.64080  -0.62865  -0.56893  -0.55003
 Alpha  occ. eigenvalues --   -0.53822  -0.52126  -0.51677  -0.48935  -0.47506
 Alpha  occ. eigenvalues --   -0.46299  -0.45446  -0.44696  -0.43065  -0.41481
 Alpha  occ. eigenvalues --   -0.40497  -0.37782  -0.36884  -0.35892  -0.35084
 Alpha  occ. eigenvalues --   -0.32913  -0.32241  -0.29723  -0.28766  -0.27722
 Alpha  occ. eigenvalues --   -0.27566  -0.26533  -0.25211
 Alpha virt. eigenvalues --    0.03595   0.05788   0.06949   0.08846   0.09921
 Alpha virt. eigenvalues --    0.11383   0.12016   0.13232   0.14642   0.15260
 Alpha virt. eigenvalues --    0.15524   0.16817   0.16999   0.18318   0.19715
 Alpha virt. eigenvalues --    0.20720   0.21860   0.24308   0.26110   0.27751
 Alpha virt. eigenvalues --    0.28707   0.31478   0.33051   0.33495   0.50013
 Alpha virt. eigenvalues --    0.51263   0.54600   0.55427   0.56960   0.58368
 Alpha virt. eigenvalues --    0.60439   0.62162   0.64658   0.65537   0.65658
 Alpha virt. eigenvalues --    0.68341   0.68747   0.70422   0.75389   0.75835
 Alpha virt. eigenvalues --    0.76764   0.78125   0.79454   0.80505   0.81230
 Alpha virt. eigenvalues --    0.82772   0.83044   0.84111   0.86064   0.87038
 Alpha virt. eigenvalues --    0.88081   0.88784   0.89120   0.90096   0.92394
 Alpha virt. eigenvalues --    0.93762   0.95285   0.97024   0.99007   1.00080
 Alpha virt. eigenvalues --    1.02313   1.05390   1.06916   1.08570   1.10034
 Alpha virt. eigenvalues --    1.10756   1.12176   1.17255   1.18638   1.19616
 Alpha virt. eigenvalues --    1.24068   1.24333   1.25556   1.30322   1.33327
 Alpha virt. eigenvalues --    1.35512   1.35814   1.40941   1.43356   1.49142
 Alpha virt. eigenvalues --    1.53236   1.54986   1.57342   1.57626   1.61524
 Alpha virt. eigenvalues --    1.65535   1.68106   1.68955   1.69897   1.73155
 Alpha virt. eigenvalues --    1.73789   1.74422   1.77355   1.78564   1.80038
 Alpha virt. eigenvalues --    1.80891   1.83568   1.85876   1.86135   1.88157
 Alpha virt. eigenvalues --    1.89775   1.92368   1.93022   1.96926   2.00446
 Alpha virt. eigenvalues --    2.00670   2.02048   2.04968   2.06689   2.09171
 Alpha virt. eigenvalues --    2.09930   2.12122   2.14442   2.21245   2.21874
 Alpha virt. eigenvalues --    2.24491   2.26034   2.30348   2.31925   2.35774
 Alpha virt. eigenvalues --    2.37754   2.40038   2.41733   2.43173   2.44567
 Alpha virt. eigenvalues --    2.45972   2.50106   2.50965   2.52381   2.54449
 Alpha virt. eigenvalues --    2.55459   2.59933   2.62874   2.66086   2.70623
 Alpha virt. eigenvalues --    2.73758   2.78680   2.84128   2.89768   2.91069
 Alpha virt. eigenvalues --    2.96833   2.99765   3.04552   3.06214   3.71446
 Alpha virt. eigenvalues --    3.72806   3.83226   3.89906   4.00678   4.15954
 Alpha virt. eigenvalues --    4.28733   4.33032   4.39472   4.53053   4.64020
 Alpha virt. eigenvalues --    4.74742
          Condensed to atoms (all electrons):
               1          2          3          4          5          6
     1  H    0.573941   0.363151  -0.002991   0.004424   0.000470  -0.028067
     2  C    0.363151   4.983111  -0.034501  -0.021331  -0.010403   0.225931
     3  C   -0.002991  -0.034501   4.961833  -0.021489   0.312288  -0.003701
     4  C    0.004424  -0.021331  -0.021489   4.645639   0.239856   0.242590
     5  C    0.000470  -0.010403   0.312288   0.239856   5.094136  -0.038648
     6  O   -0.028067   0.225931  -0.003701   0.242590  -0.038648   8.263568
     7  C   -0.043936   0.254073   0.287588  -0.014515  -0.015746  -0.035612
     8  H    0.000026   0.000415  -0.046492  -0.045004   0.341620   0.003305
     9  H    0.006173  -0.059051  -0.048143   0.000954  -0.004376   0.002870
    10  C   -0.051152   0.318358   0.002923  -0.005124  -0.001778  -0.036617
    11  H   -0.007101  -0.030990  -0.000062  -0.000231   0.000095   0.003200
    12  H    0.006322  -0.036542  -0.000318   0.002498  -0.000066   0.000545
    13  H    0.000799  -0.001753   0.355367  -0.001941  -0.044260   0.002509
    14  O    0.004701  -0.040795   0.000243   0.000038   0.000008   0.000993
    15  H   -0.000232   0.005171  -0.000002  -0.000007  -0.000001  -0.000085
    16  O    0.000001   0.000082  -0.026858  -0.034669   0.223492   0.000538
    17  H    0.000000  -0.000073  -0.010790   0.005707  -0.027083  -0.000084
    18  O   -0.000068   0.003730   0.214752   0.001882  -0.037353   0.000123
    19  H   -0.000007   0.000641  -0.028841  -0.000181   0.006421  -0.000014
    20  O    0.003407  -0.032887  -0.031795   0.000112   0.001917   0.001433
    21  H    0.002443  -0.003870   0.005551   0.000013  -0.000196  -0.000012
    22  H   -0.000336  -0.000750   0.006140   0.380902  -0.089769  -0.056026
    23  O   -0.000034   0.001588  -0.001143   0.268603  -0.037636  -0.036779
    24  H    0.000003  -0.000159   0.000627  -0.018193  -0.006119   0.003802
               7          8          9         10         11         12
     1  H   -0.043936   0.000026   0.006173  -0.051152  -0.007101   0.006322
     2  C    0.254073   0.000415  -0.059051   0.318358  -0.030990  -0.036542
     3  C    0.287588  -0.046492  -0.048143   0.002923  -0.000062  -0.000318
     4  C   -0.014515  -0.045004   0.000954  -0.005124  -0.000231   0.002498
     5  C   -0.015746   0.341620  -0.004376  -0.001778   0.000095  -0.000066
     6  O   -0.035612   0.003305   0.002870  -0.036617   0.003200   0.000545
     7  C    5.073354  -0.003572   0.357096  -0.042211   0.006412  -0.010991
     8  H   -0.003572   0.658564   0.006228   0.000058  -0.000009   0.000396
     9  H    0.357096   0.006228   0.639505  -0.003576   0.000468   0.002903
    10  C   -0.042211   0.000058  -0.003576   4.967176   0.363464   0.358734
    11  H    0.006412  -0.000009   0.000468   0.363464   0.613429  -0.053475
    12  H   -0.010991   0.000396   0.002903   0.358734  -0.053475   0.646280
    13  H   -0.041294   0.007198   0.007083   0.000091   0.000006   0.000006
    14  O    0.007453  -0.000006   0.002824   0.208761  -0.036493  -0.041105
    15  H   -0.000202   0.000000  -0.000164  -0.019692  -0.004874  -0.003721
    16  O    0.003890  -0.047006  -0.000052   0.000003   0.000000   0.000001
    17  H    0.000753  -0.001262  -0.000022   0.000000   0.000000   0.000000
    18  O   -0.033089  -0.000184   0.000928  -0.000040   0.000000  -0.000014
    19  H   -0.011406  -0.000167  -0.000182  -0.000017   0.000000   0.000000
    20  O    0.196705  -0.000083  -0.046172   0.002280  -0.000145   0.000052
    21  H   -0.021904   0.000007  -0.003102  -0.001658   0.000025   0.000222
    22  H   -0.000904  -0.003101  -0.000156   0.003665  -0.000122   0.000982
    23  O    0.000156   0.003275   0.000005  -0.000064  -0.000010   0.000009
    24  H   -0.000041   0.000029  -0.000001   0.000006   0.000000   0.000002
              13         14         15         16         17         18
     1  H    0.000799   0.004701  -0.000232   0.000001   0.000000  -0.000068
     2  C   -0.001753  -0.040795   0.005171   0.000082  -0.000073   0.003730
     3  C    0.355367   0.000243  -0.000002  -0.026858  -0.010790   0.214752
     4  C   -0.001941   0.000038  -0.000007  -0.034669   0.005707   0.001882
     5  C   -0.044260   0.000008  -0.000001   0.223492  -0.027083  -0.037353
     6  O    0.002509   0.000993  -0.000085   0.000538  -0.000084   0.000123
     7  C   -0.041294   0.007453  -0.000202   0.003890   0.000753  -0.033089
     8  H    0.007198  -0.000006   0.000000  -0.047006  -0.001262  -0.000184
     9  H    0.007083   0.002824  -0.000164  -0.000052  -0.000022   0.000928
    10  C    0.000091   0.208761  -0.019692   0.000003   0.000000  -0.000040
    11  H    0.000006  -0.036493  -0.004874   0.000000   0.000000   0.000000
    12  H    0.000006  -0.041105  -0.003721   0.000001   0.000000  -0.000014
    13  H    0.604028  -0.000004   0.000000   0.000390  -0.000294  -0.047870
    14  O   -0.000004   8.285136   0.236798   0.000000   0.000000   0.000000
    15  H    0.000000   0.236798   0.381487   0.000000   0.000000   0.000000
    16  O    0.000390   0.000000   0.000000   8.301418   0.235074  -0.003871
    17  H   -0.000294   0.000000   0.000000   0.235074   0.365106   0.018879
    18  O   -0.047870   0.000000   0.000000  -0.003871   0.018879   8.319599
    19  H   -0.001109   0.000000   0.000000   0.000015  -0.000618   0.235988
    20  O   -0.000020  -0.001314   0.000053  -0.000011  -0.000003  -0.003887
    21  H   -0.000164   0.008673  -0.000228   0.000001   0.000000   0.000043
    22  H    0.000120  -0.000045   0.000007   0.002521  -0.000262  -0.000048
    23  O    0.001113   0.000000   0.000000  -0.008499   0.000530  -0.000014
    24  H   -0.000016   0.000000   0.000000   0.011806  -0.000362   0.000000
              19         20         21         22         23         24
     1  H   -0.000007   0.003407   0.002443  -0.000336  -0.000034   0.000003
     2  C    0.000641  -0.032887  -0.003870  -0.000750   0.001588  -0.000159
     3  C   -0.028841  -0.031795   0.005551   0.006140  -0.001143   0.000627
     4  C   -0.000181   0.000112   0.000013   0.380902   0.268603  -0.018193
     5  C    0.006421   0.001917  -0.000196  -0.089769  -0.037636  -0.006119
     6  O   -0.000014   0.001433  -0.000012  -0.056026  -0.036779   0.003802
     7  C   -0.011406   0.196705  -0.021904  -0.000904   0.000156  -0.000041
     8  H   -0.000167  -0.000083   0.000007  -0.003101   0.003275   0.000029
     9  H   -0.000182  -0.046172  -0.003102  -0.000156   0.000005  -0.000001
    10  C   -0.000017   0.002280  -0.001658   0.003665  -0.000064   0.000006
    11  H    0.000000  -0.000145   0.000025  -0.000122  -0.000010   0.000000
    12  H    0.000000   0.000052   0.000222   0.000982   0.000009   0.000002
    13  H   -0.001109  -0.000020  -0.000164   0.000120   0.001113  -0.000016
    14  O    0.000000  -0.001314   0.008673  -0.000045   0.000000   0.000000
    15  H    0.000000   0.000053  -0.000228   0.000007   0.000000   0.000000
    16  O    0.000015  -0.000011   0.000001   0.002521  -0.008499   0.011806
    17  H   -0.000618  -0.000003   0.000000  -0.000262   0.000530  -0.000362
    18  O    0.235988  -0.003887   0.000043  -0.000048  -0.000014   0.000000
    19  H    0.365766   0.020152  -0.000738   0.000006   0.000002   0.000000
    20  O    0.020152   8.316362   0.232914   0.000006   0.000000   0.000000
    21  H   -0.000738   0.232914   0.372729  -0.000002   0.000000   0.000000
    22  H    0.000006   0.000006  -0.000002   0.703590  -0.053735  -0.001164
    23  O    0.000002   0.000000   0.000000  -0.053735   8.230360   0.235657
    24  H    0.000000   0.000000   0.000000  -0.001164   0.235657   0.363916
 Mulliken charges:
               1
     1  H    0.168064
     2  C    0.116854
     3  C    0.109813
     4  C    0.369467
     5  C    0.093131
     6  O   -0.515760
     7  C    0.087944
     8  H    0.125765
     9  H    0.137958
    10  C   -0.063590
    11  H    0.146414
    12  H    0.127281
    13  H    0.160015
    14  O   -0.635868
    15  H    0.405692
    16  O   -0.658266
    17  H    0.414804
    18  O   -0.669488
    19  H    0.414290
    20  O   -0.659076
    21  H    0.409254
    22  H    0.108479
    23  O   -0.603384
    24  H    0.410206
 Sum of Mulliken charges =   0.00000
 Mulliken charges with hydrogens summed into heavy atoms:
               1
     2  C    0.284917
     3  C    0.269828
     4  C    0.477946
     5  C    0.218897
     6  O   -0.515760
     7  C    0.225903
    10  C    0.210105
    14  O   -0.230175
    16  O   -0.243462
    18  O   -0.255198
    20  O   -0.249822
    23  O   -0.193178
 Electronic spatial extent (au):  <R**2>=           2161.6049
 Charge=              0.0000 electrons
 Dipole moment (field-independent basis, Debye):
    X=              3.1543    Y=             -0.3490    Z=              3.2388  Tot=              4.5344
 Quadrupole moment (field-independent basis, Debye-Ang):
   XX=            -63.6485   YY=            -70.4015   ZZ=            -70.5146
   XY=             -4.3747   XZ=              0.0497   YZ=             -7.1574
 Traceless Quadrupole moment (field-independent basis, Debye-Ang):
   XX=              4.5397   YY=             -2.2133   ZZ=             -2.3264
   XY=             -4.3747   XZ=              0.0497   YZ=             -7.1574
 Octapole moment (field-independent basis, Debye-Ang**2):
  XXX=             31.1520  YYY=             12.7907  ZZZ=              2.7602  XYY=              5.6255
  XXY=            -13.4398  XXZ=             21.6561  XZZ=              8.5026  YZZ=             -1.1775
  YYZ=              9.4661  XYZ=              1.8886
 Hexadecapole moment (field-independent basis, Debye-Ang**3):
 XXXX=          -1282.7716 YYYY=           -826.1454 ZZZZ=           -211.8650 XXXY=            -36.8144
 XXXZ=             45.8822 YYYX=              2.5214 YYYZ=            -26.3291 ZZZX=             11.1069
 ZZZY=             -2.1299 XXYY=           -319.2254 XXZZ=           -248.9794 YYZZ=           -188.0370
 XXYZ=            -42.6414 YYXZ=             -1.2574 ZZXY=            -14.3389
 N-N= 8.240300871323D+02 E-N=-3.259640560662D+03  KE= 6.811661607175D+02
 Calling FoFJK, ICntrl=      2127 FMM=F ISym2X=0 I1Cent= 0 IOpClX= 0 NMat=1 NMatS=1 NMatT=0.
 ***** Axes restored to original set *****
 -------------------------------------------------------------------
 Center     Atomic                   Forces (Hartrees/Bohr)
 Number     Number              X              Y              Z
 -------------------------------------------------------------------
      1        1           0.003077365    0.003907367    0.002259401
      2        6          -0.002177703    0.011887896    0.010981531
      3        6           0.008179316   -0.014265180   -0.005643408
      4        6          -0.006335388    0.004907884   -0.008175077
      5        6           0.025525324   -0.006145056    0.006282317
      6        8           0.003359096   -0.000388575    0.005978285
      7        6           0.002654505   -0.007996782   -0.004956047
      8        1          -0.006441412   -0.007191930   -0.004146462
      9        1          -0.003110534    0.004684992    0.006408926
     10        6          -0.010798101    0.001365037    0.001356122
     11        1           0.001557917    0.006368458   -0.000083247
     12        1           0.002995442    0.004658806    0.005659382
     13        1          -0.009607356    0.006234558   -0.001668911
     14        8           0.002965001   -0.003526029   -0.003181268
     15        1           0.006195271   -0.000396042   -0.002618422
     16        8          -0.002535934   -0.002545478   -0.002797935
     17        1          -0.004954398    0.003655434   -0.000209558
     18        8          -0.006066953   -0.001986519   -0.000419490
     19        1           0.000355276    0.004118057    0.005490891
     20        8          -0.001790915    0.002611146   -0.002574998
     21        1           0.005709967    0.001295999    0.003202670
     22        1          -0.003489012   -0.004731080    0.002440039
     23        8          -0.012863797   -0.010217901   -0.023585868
     24        1           0.007597021    0.003694939    0.010001123
 -------------------------------------------------------------------
 Cartesian Forces:  Max     0.025525324 RMS     0.006939455

 GradGradGradGradGradGradGradGradGradGradGradGradGradGradGradGradGradGrad
 Berny optimization.
 FormGI is forming the generalized inverse of G from B-inverse, IUseBI=4.
 Internal  Forces:  Max     0.020439255 RMS     0.005090970
 Search for a local minimum.
 Step number   1 out of a maximum of  144
 All quantities printed in internal units (Hartrees-Bohrs-Radians)
 Mixed Optimization -- RFO/linear search
 Second derivative matrix not updated -- first step.
 ITU=  0
     Eigenvalues ---    0.00349   0.00366   0.00590   0.01157   0.01160
     Eigenvalues ---    0.01167   0.01211   0.01348   0.01559   0.02991
     Eigenvalues ---    0.03201   0.04260   0.04544   0.04612   0.04863
     Eigenvalues ---    0.05063   0.05081   0.05218   0.05672   0.05678
     Eigenvalues ---    0.06049   0.06865   0.07140   0.07336   0.07414
     Eigenvalues ---    0.09594   0.11137   0.11467   0.12783   0.13781
     Eigenvalues ---    0.16000   0.16000   0.16000   0.16000   0.16000
     Eigenvalues ---    0.16095   0.17111   0.17632   0.19054   0.19861
     Eigenvalues ---    0.21106   0.21988   0.26639   0.28045   0.28780
     Eigenvalues ---    0.29087   0.29283   0.33983   0.33991   0.33995
     Eigenvalues ---    0.34012   0.34128   0.34221   0.34341   0.35337
     Eigenvalues ---    0.37014   0.39530   0.39626   0.40087   0.41573
     Eigenvalues ---    0.43999   0.51481   0.51568   0.51802   0.52466
     Eigenvalues ---    0.55899
 RFO step:  Lambda=-1.81485417D-02 EMin= 3.48863603D-03
 Linear search not attempted -- first point.
 Iteration  1 RMS(Cart)=  0.05444702 RMS(Int)=  0.00214364
 Iteration  2 RMS(Cart)=  0.00254574 RMS(Int)=  0.00055932
 Iteration  3 RMS(Cart)=  0.00000552 RMS(Int)=  0.00055931
 Iteration  4 RMS(Cart)=  0.00000000 RMS(Int)=  0.00055931
 Variable       Old X    -DE/DX   Delta X   Delta X   Delta X     New X
                                 (Linear)    (Quad)   (Total)
    R1        2.07338  -0.00226   0.00000  -0.00631  -0.00631   2.06708
    R2        2.75852  -0.01671   0.00000  -0.05132  -0.05144   2.70708
    R3        2.90465   0.00488   0.00000   0.01353   0.01354   2.91819
    R4        2.89417  -0.00535   0.00000  -0.01721  -0.01721   2.87696
    R5        2.87917  -0.00729   0.00000  -0.01759  -0.01758   2.86159
    R6        2.88409  -0.01054   0.00000  -0.02471  -0.02457   2.85952
    R7        2.07358   0.00039   0.00000   0.00108   0.00108   2.07466
    R8        2.72198  -0.00349   0.00000  -0.00844  -0.00844   2.71353
    R9        2.90465   0.01066   0.00000   0.03728   0.03727   2.94192
   R10        2.73622  -0.02044   0.00000  -0.05423  -0.05427   2.68195
   R11        2.07115   0.00478   0.00000   0.01329   0.01329   2.08443
   R12        2.66455  -0.00769   0.00000  -0.01679  -0.01679   2.64776
   R13        2.07310   0.00274   0.00000   0.00765   0.00765   2.08075
   R14        2.72065  -0.00596   0.00000  -0.01438  -0.01438   2.70626
   R15        2.07345   0.00217   0.00000   0.00606   0.00606   2.07950
   R16        2.71435  -0.00102   0.00000  -0.00243  -0.00243   2.71193
   R17        2.06959   0.00262   0.00000   0.00727   0.00727   2.07687
   R18        2.06758   0.00520   0.00000   0.01437   0.01437   2.08195
   R19        2.69470   0.00460   0.00000   0.01061   0.01061   2.70531
   R20        1.84156  -0.00627   0.00000  -0.01155  -0.01155   1.83001
   R21        1.85016  -0.00613   0.00000  -0.01149  -0.01149   1.83867
   R22        1.85100  -0.00664   0.00000  -0.01246  -0.01246   1.83854
   R23        1.84790  -0.00616   0.00000  -0.01148  -0.01148   1.83642
   R24        1.81042   0.01199   0.00000   0.02078   0.02078   1.83120
    A1        1.83753  -0.00267   0.00000  -0.02934  -0.02912   1.80842
    A2        1.89644  -0.00187   0.00000  -0.01449  -0.01430   1.88214
    A3        1.87248   0.00292   0.00000   0.01415   0.01409   1.88657
    A4        1.96029   0.00722   0.00000   0.02950   0.02958   1.98987
    A5        1.93919  -0.00388   0.00000  -0.00913  -0.00950   1.92968
    A6        1.95164  -0.00190   0.00000   0.00624   0.00605   1.95769
    A7        1.93508  -0.00306   0.00000  -0.02019  -0.02037   1.91471
    A8        1.93298  -0.00019   0.00000  -0.02285  -0.02315   1.90983
    A9        1.90152  -0.00440   0.00000  -0.03374  -0.03335   1.86817
   A10        1.93565  -0.00193   0.00000  -0.01137  -0.01272   1.92293
   A11        1.91654   0.00532   0.00000   0.01880   0.01782   1.93436
   A12        1.83947   0.00466   0.00000   0.07362   0.07351   1.91298
   A13        1.96365   0.00399   0.00000   0.00612   0.00623   1.96988
   A14        1.92744  -0.00465   0.00000  -0.01202  -0.01306   1.91438
   A15        1.92830   0.00971   0.00000   0.04211   0.04123   1.96953
   A16        1.88712   0.00157   0.00000   0.01207   0.01278   1.89990
   A17        1.87011  -0.01451   0.00000  -0.09740  -0.09678   1.77333
   A18        1.88444   0.00354   0.00000   0.04852   0.04793   1.93237
   A19        1.94262  -0.00109   0.00000   0.00164   0.00128   1.94389
   A20        1.92250  -0.00203   0.00000  -0.03599  -0.03658   1.88592
   A21        1.89781   0.00383   0.00000   0.02903   0.02921   1.92702
   A22        1.92728  -0.00048   0.00000  -0.01818  -0.01838   1.90891
   A23        1.93467  -0.00329   0.00000  -0.02327  -0.02325   1.91141
   A24        1.83594   0.00333   0.00000   0.04936   0.04960   1.88554
   A25        2.08526  -0.00494   0.00000  -0.02745  -0.02786   2.05740
   A26        1.94196  -0.00243   0.00000  -0.01386  -0.01369   1.92828
   A27        1.94056  -0.00116   0.00000  -0.00888  -0.00981   1.93074
   A28        1.94721   0.00442   0.00000   0.01995   0.01949   1.96669
   A29        1.89703   0.00054   0.00000  -0.01405  -0.01404   1.88299
   A30        1.89429  -0.00414   0.00000  -0.03090  -0.03084   1.86345
   A31        1.83908   0.00291   0.00000   0.04952   0.04938   1.88846
   A32        1.92442   0.00001   0.00000  -0.01501  -0.01420   1.91022
   A33        1.94677  -0.00033   0.00000  -0.02069  -0.02025   1.92653
   A34        1.91666  -0.01901   0.00000  -0.08105  -0.08112   1.83555
   A35        1.88080  -0.00030   0.00000   0.00916   0.00740   1.88820
   A36        1.90224   0.01049   0.00000   0.06094   0.05944   1.96168
   A37        1.89190   0.01000   0.00000   0.05167   0.04964   1.94155
   A38        1.85935   0.00449   0.00000   0.02519   0.02519   1.88453
   A39        1.82581  -0.00016   0.00000  -0.00091  -0.00091   1.82490
   A40        1.82368   0.00295   0.00000   0.01657   0.01657   1.84025
   A41        1.84860   0.00169   0.00000   0.00946   0.00946   1.85806
   A42        1.83251   0.00454   0.00000   0.02546   0.02546   1.85798
    D1       -2.84588   0.00090   0.00000   0.01372   0.01399  -2.83188
    D2       -0.78504   0.00084   0.00000  -0.00605  -0.00598  -0.79102
    D3        1.41575   0.00086   0.00000   0.01798   0.01790   1.43365
    D4        1.90192  -0.00183   0.00000  -0.04170  -0.04186   1.86006
    D5       -2.26400  -0.00363   0.00000  -0.07533  -0.07522  -2.33921
    D6       -0.21646   0.00210   0.00000  -0.00630  -0.00626  -0.22272
    D7       -0.12373  -0.00157   0.00000  -0.01375  -0.01392  -0.13765
    D8        1.99354  -0.00336   0.00000  -0.04738  -0.04727   1.94627
    D9       -2.24211   0.00236   0.00000   0.02165   0.02168  -2.22042
   D10       -2.31776  -0.00056   0.00000  -0.02974  -0.03005  -2.34781
   D11       -0.20049  -0.00236   0.00000  -0.06337  -0.06340  -0.26389
   D12        1.84705   0.00337   0.00000   0.00565   0.00555   1.85260
   D13       -1.08854   0.00042   0.00000   0.01196   0.01170  -1.07684
   D14        3.10564   0.00100   0.00000   0.02389   0.02437   3.13001
   D15        1.00786   0.00134   0.00000   0.02644   0.02637   1.03423
   D16        0.91133  -0.00311   0.00000  -0.01969  -0.01995   0.89138
   D17       -1.17768  -0.00253   0.00000  -0.00777  -0.00728  -1.18496
   D18        3.00772  -0.00220   0.00000  -0.00521  -0.00527   3.00245
   D19        3.11690   0.00197   0.00000   0.01714   0.01672   3.13363
   D20        1.02790   0.00255   0.00000   0.02907   0.02940   1.05730
   D21       -1.06988   0.00288   0.00000   0.03163   0.03140  -1.03848
   D22       -0.96996   0.00278   0.00000   0.00489   0.00466  -0.96530
   D23        1.17378   0.00000   0.00000  -0.04238  -0.04207   1.13171
   D24       -3.10602   0.00503   0.00000   0.01337   0.01318  -3.09284
   D25        1.18660  -0.00199   0.00000  -0.04018  -0.04037   1.14623
   D26       -2.95285  -0.00477   0.00000  -0.08745  -0.08709  -3.03994
   D27       -0.94947   0.00026   0.00000  -0.03171  -0.03185  -0.98131
   D28       -3.08105   0.00097   0.00000   0.01621   0.01578  -3.06527
   D29       -0.93732  -0.00182   0.00000  -0.03105  -0.03094  -0.96826
   D30        1.06607   0.00321   0.00000   0.02469   0.02430   1.09037
   D31        0.96958  -0.00077   0.00000   0.01089   0.01079   0.98037
   D32       -1.17292   0.00190   0.00000   0.04064   0.04074  -1.13218
   D33        3.11858   0.00036   0.00000   0.00577   0.00599   3.12457
   D34       -1.18544   0.00301   0.00000   0.06264   0.06221  -1.12323
   D35        2.95524   0.00568   0.00000   0.09240   0.09216   3.04739
   D36        0.96355   0.00414   0.00000   0.05753   0.05741   1.02096
   D37        3.07178  -0.00475   0.00000  -0.03189  -0.03215   3.03963
   D38        0.92927  -0.00207   0.00000  -0.00213  -0.00220   0.92707
   D39       -1.06242  -0.00361   0.00000  -0.03700  -0.03695  -1.09937
   D40        2.95943  -0.00066   0.00000   0.00500   0.00538   2.96482
   D41        0.83703   0.00258   0.00000   0.03955   0.04040   0.87743
   D42       -1.24877  -0.00056   0.00000   0.00128   0.00005  -1.24873
   D43        0.12114  -0.00361   0.00000  -0.02394  -0.02408   0.09707
   D44       -2.01985   0.00008   0.00000   0.03365   0.03352  -1.98633
   D45        2.23579  -0.00174   0.00000  -0.00190  -0.00216   2.23363
   D46        2.23147  -0.00216   0.00000  -0.01280  -0.01275   2.21872
   D47        0.09049   0.00152   0.00000   0.04479   0.04484   0.13533
   D48       -1.93706  -0.00030   0.00000   0.00924   0.00916  -1.92790
   D49       -1.96809   0.00547   0.00000   0.06673   0.06690  -1.90119
   D50        2.17411   0.00916   0.00000   0.12432   0.12449   2.29860
   D51        0.14656   0.00734   0.00000   0.08877   0.08881   0.23537
   D52        0.78643   0.00048   0.00000   0.01995   0.01954   0.80597
   D53       -1.34686   0.00267   0.00000   0.02274   0.02300  -1.32385
   D54        2.90911   0.00524   0.00000   0.01030   0.01071   2.91982
   D55       -1.04717   0.00239   0.00000   0.05610   0.05482  -0.99235
   D56        3.09127   0.00092   0.00000   0.08569   0.08546  -3.10645
   D57        1.06227   0.00476   0.00000   0.09721   0.09872   1.16099
   D58       -0.81132  -0.00109   0.00000  -0.00929  -0.01002  -0.82134
   D59       -2.95219  -0.00016   0.00000  -0.01572  -0.01574  -2.96793
   D60        1.24769   0.00018   0.00000  -0.01092  -0.01016   1.23753
   D61       -1.00783  -0.00339   0.00000  -0.06614  -0.06661  -1.07444
   D62        3.12952  -0.00037   0.00000  -0.04050  -0.04080   3.08873
   D63        1.10010  -0.00052   0.00000  -0.03492  -0.03415   1.06594
   D64       -3.08503  -0.00045   0.00000  -0.01112  -0.01099  -3.09601
   D65       -0.97520  -0.00559   0.00000  -0.04140  -0.04384  -1.01905
   D66        1.06737   0.00537   0.00000   0.03169   0.03400   1.10137
         Item               Value     Threshold  Converged?
 Maximum Force            0.020439     0.000450     NO 
 RMS     Force            0.005091     0.000300     NO 
 Maximum Displacement     0.221196     0.001800     NO 
 RMS     Displacement     0.055336     0.001200     NO 
 Predicted change in Energy=-1.074240D-02
 GradGradGradGradGradGradGradGradGradGradGradGradGradGradGradGradGradGrad

                          Input orientation:                          
 ---------------------------------------------------------------------
 Center     Atomic      Atomic             Coordinates (Angstroms)
 Number     Number       Type             X           Y           Z
 ---------------------------------------------------------------------
      1          1           0        0.001069    0.058148    0.047366
      2          6           0       -0.011348    0.028554    1.140745
      3          6           0        2.272241   -0.022412    2.185906
      4          6           0        0.523942    1.692630    2.847234
      5          6           0        1.730370    0.827516    3.315983
      6          8           0        0.122483    1.404334    1.516849
      7          6           0        1.159399   -0.866017    1.603095
      8          1           0        1.404742    0.153866    4.123791
      9          1           0        0.825931   -1.569610    2.380713
     10          6           0       -1.361518   -0.517953    1.583620
     11          1           0       -2.159408    0.154822    1.239212
     12          1           0       -1.410511   -0.575085    2.682767
     13          1           0        2.699090    0.628551    1.411727
     14          8           0       -1.451511   -1.818514    0.992106
     15          1           0       -2.318077   -2.188893    1.214987
     16          8           0        2.756811    1.679916    3.836295
     17          1           0        3.524905    1.094290    3.953634
     18          8           0        3.304642   -0.851854    2.740974
     19          1           0        3.521177   -1.496390    2.045099
     20          8           0        1.734023   -1.624530    0.528875
     21          1           0        1.028155   -2.199979    0.189784
     22          1           0       -0.333811    1.530478    3.521514
     23          8           0        0.834072    3.056148    2.758842
     24          1           0        1.151650    3.322743    3.634679
 ---------------------------------------------------------------------
                    Distance matrix (angstroms):
                    1          2          3          4          5
     1  H    0.000000
     2  C    1.093849   0.000000
     3  C    3.120586   2.511919   0.000000
     4  C    3.283928   2.442906   2.536784   0.000000
     5  C    3.777070   2.898893   1.514291   1.556797   0.000000
     6  O    1.996581   1.432528   2.665465   1.419228   2.480908
     7  C    2.148511   1.544239   1.513193   2.915194   2.475489
     8  H    4.312388   3.304478   2.130499   2.184765   1.101086
     9  H    2.962179   2.189221   2.126872   3.309237   2.727444
    10  C    2.132748   1.522423   3.716519   3.168337   3.790929
    11  H    2.469313   2.154020   4.535102   3.485822   4.460478
    12  H    3.055958   2.167919   3.756991   2.985246   3.497626
    13  H    3.076711   2.789247   1.097865   2.814997   2.145739
    14  O    2.554288   2.346876   4.303193   4.435318   4.746182
    15  H    3.433799   3.200560   5.167914   5.080110   5.468348
    16  O    4.957844   4.201867   2.420024   2.442152   1.432094
    17  H    5.361897   4.642545   2.437428   3.253907   1.923051
    18  O    4.358580   3.785715   1.435941   3.770673   2.372604
    19  H    4.335745   3.952473   1.937080   4.449346   3.197291
    20  O    2.463003   2.480603   2.366898   4.224054   3.712211
    21  H    2.484819   2.636523   3.205315   4.740113   4.408168
    22  H    3.788087   2.833341   3.314638   1.103035   2.190260
    23  O    4.127226   3.535434   3.445885   1.401134   2.465879
    24  H    4.985000   4.292313   3.813756   1.916078   2.581210
                    6          7          8          9         10
     6  O    0.000000
     7  C    2.497424   0.000000
     8  H    3.162911   2.730249   0.000000
     9  H    3.175760   1.100425   2.518672   0.000000
    10  C    2.429384   2.544907   3.815233   2.554658   0.000000
    11  H    2.616369   3.491275   4.585188   3.631658   1.099032
    12  H    2.761800   2.802637   3.245546   2.466169   1.101721
    13  H    2.692915   2.154299   3.042360   3.046239   4.222861
    14  O    3.624854   2.845595   4.675030   2.678979   1.431589
    15  H    4.354163   3.740785   5.273427   3.409870   1.960340
    16  O    3.520719   3.744420   2.059023   4.050486   5.183224
    17  H    4.196490   3.868263   2.325606   4.105473   5.665107
    18  O    4.088399   2.428381   2.556027   2.605565   4.819129
    19  H    4.499375   2.484096   3.394643   2.717048   5.001102
    20  O    3.570318   1.435090   4.024243   2.063238   3.452445
    21  H    3.946190   1.947852   4.599870   2.288762   3.237673
    22  H    2.059806   3.413677   2.297904   3.500996   3.001281
    23  O    2.185725   4.101825   3.257605   4.641195   4.356141
    24  H    3.037216   4.655438   3.216375   5.060992   5.027306
                   11         12         13         14         15
    11  H    0.000000
    12  H    1.782543   0.000000
    13  H    4.884586   4.466890   0.000000
    14  O    2.110980   2.099079   4.836497   0.000000
    15  H    2.349205   2.362716   5.757487   0.968397   0.000000
    16  O    5.765410   4.876703   2.643337   6.167528   6.898799
    17  H    6.368838   5.362859   2.712965   6.482268   7.240160
    18  O    5.755391   4.723627   2.079710   5.158872   5.977564
    19  H    5.970344   5.057368   2.364818   5.093151   5.938480
    20  O    4.339294   3.953312   2.605217   3.224878   4.148345
    21  H    4.099627   3.847380   3.505103   2.634005   3.499776
    22  H    3.230191   2.509218   3.803046   4.343145   4.805320
    23  O    4.437103   4.269636   3.344584   5.666355   6.311100
    24  H    5.170791   4.760658   3.820308   6.339729   6.947808
                   16         17         18         19         20
    16  O    0.000000
    17  H    0.972983   0.000000
    18  O    2.812420   2.303592   0.000000
    19  H    3.725796   3.217785   0.972911   0.000000
    20  O    4.785863   4.725274   2.820860   2.347185   0.000000
    21  H    5.598114   5.590397   3.675378   3.186282   0.971789
    22  H    3.110203   3.907259   4.418493   5.118854   4.815173
    23  O    2.598432   3.537938   4.623475   5.334376   5.262263
    24  H    2.305661   3.271097   4.781354   5.600488   5.870322
                   21         22         23         24
    21  H    0.000000
    22  H    5.183790   0.000000
    23  O    5.853597   2.067193   0.000000
    24  H    6.510223   2.330582   0.969030   0.000000
 Stoichiometry    C6H12O6
 Framework group  C1[X(C6H12O6)]
 Deg. of freedom    66
 Full point group                 C1      NOp   1
 Largest Abelian subgroup         C1      NOp   1
 Largest concise Abelian subgroup C1      NOp   1
                         Standard orientation:                         
 ---------------------------------------------------------------------
 Center     Atomic      Atomic             Coordinates (Angstroms)
 Number     Number       Type             X           Y           Z
 ---------------------------------------------------------------------
      1          1           0        1.678406   -0.495166   -1.446229
      2          6           0        1.166000   -0.552882   -0.481545
      3          6           0       -0.669373    1.138571   -0.198473
      4          6           0       -1.052499   -1.342036    0.169057
      5          6           0       -1.446777    0.104429    0.588464
      6          8           0        0.024501   -1.374177   -0.754656
      7          6           0        0.814791    0.886307   -0.045587
      8          1           0       -1.222407    0.248938    1.656718
      9          1           0        1.077764    1.046337    1.010903
     10          6           0        2.096127   -1.241825    0.507389
     11          1           0        2.309697   -2.262085    0.159067
     12          1           0        1.620103   -1.309497    1.498656
     13          1           0       -0.955820    1.083169   -1.256861
     14          8           0        3.269825   -0.423272    0.550419
     15          1           0        3.909534   -0.848830    1.139881
     16          8           0       -2.854568    0.289628    0.402137
     17          1           0       -2.994174    1.244520    0.526185
     18          8           0       -1.025804    2.425088    0.330448
     19          1           0       -0.400462    3.052692   -0.071568
     20          8           0        1.487004    1.881968   -0.830617
     21          1           0        2.439057    1.746437   -0.690617
     22          1           0       -0.773107   -1.924951    1.062834
     23          8           0       -2.061814   -1.993557   -0.552039
     24          1           0       -2.851362   -1.982381    0.009662
 ---------------------------------------------------------------------
 Rotational constants (GHZ):      1.2404785      0.7726024      0.5343741
 Standard basis: 6-31G(d) (6D, 7F)
 There are   204 symmetry adapted cartesian basis functions of A   symmetry.
 There are   204 symmetry adapted basis functions of A   symmetry.
   204 basis functions,   384 primitive gaussians,   204 cartesian basis functions
    48 alpha electrons       48 beta electrons
       nuclear repulsion energy       830.1045983874 Hartrees.
 NAtoms=   24 NActive=   24 NUniq=   24 SFac= 1.00D+00 NAtFMM=   60 NAOKFM=F Big=F
 Integral buffers will be    131072 words long.
 Raffenetti 2 integral format.
 Two-electron integral symmetry is turned on.
 One-electron integrals computed using PRISM.
 NBasis=   204 RedAO= T EigKep=  1.32D-03  NBF=   204
 NBsUse=   204 1.00D-06 EigRej= -1.00D+00 NBFU=   204
 Initial guess from the checkpoint file:  "/home/iawad/scratch/MAIN/PRO_Halides/direct/optfreq/boat1_Alpha/boat1_Alpha_optfreq_B3LYP_6-31G_d.chk"
 B after Tr=     0.000000    0.000000    0.000000
         Rot=    0.999982    0.004821    0.001616   -0.003052 Ang=   0.68 deg.
 ExpMin= 1.61D-01 ExpMax= 5.48D+03 ExpMxC= 8.25D+02 IAcc=1 IRadAn=         1 AccDes= 0.00D+00
 Harris functional with IExCor=  402 and IRadAn=       1 diagonalized for initial guess.
 HarFok:  IExCor=  402 AccDes= 0.00D+00 IRadAn=         1 IDoV= 1 UseB2=F ITyADJ=14
 ICtDFT=  3500011 ScaDFX=  1.000000  1.000000  1.000000  1.000000
 FoFCou: FMM=F IPFlag=           0 FMFlag=      100000 FMFlg1=           0
         NFxFlg=           0 DoJE=T BraDBF=F KetDBF=T FulRan=T
         wScrn=  0.000000 ICntrl=     500 IOpCl=  0 I1Cent=   200000004 NGrid=           0
         NMat0=    1 NMatS0=      1 NMatT0=    0 NMatD0=    1 NMtDS0=    0 NMtDT0=    0
 Petite list used in FoFCou.
 Requested convergence on RMS density matrix=1.00D-08 within 128 cycles.
 Requested convergence on MAX density matrix=1.00D-06.
 Requested convergence on             energy=1.00D-06.
 No special actions if energy rises.
 Integral accuracy reduced to 1.0D-05 until final iterations.
 Initial convergence to 1.0D-05 achieved.  Increase integral accuracy.
 SCF Done:  E(RB3LYP) =  -687.125035216     A.U. after   12 cycles
            NFock= 12  Conv=0.46D-08     -V/T= 2.0085
 Calling FoFJK, ICntrl=      2127 FMM=F ISym2X=0 I1Cent= 0 IOpClX= 0 NMat=1 NMatS=1 NMatT=0.
 ***** Axes restored to original set *****
 -------------------------------------------------------------------
 Center     Atomic                   Forces (Hartrees/Bohr)
 Number     Number              X              Y              Z
 -------------------------------------------------------------------
      1        1           0.000683309   -0.001195731   -0.000425207
      2        6          -0.001409409    0.008517166   -0.000058784
      3        6           0.006594182   -0.004528166    0.000542144
      4        6          -0.002193941    0.007940699   -0.008273399
      5        6           0.008813310    0.004081331    0.006533456
      6        8           0.003743315   -0.007353930    0.001580891
      7        6           0.002569306   -0.005633934   -0.004092467
      8        1          -0.002667624   -0.001814108   -0.001565739
      9        1          -0.001597624    0.001604230    0.000855297
     10        6          -0.000362986   -0.003546535   -0.002031682
     11        1           0.000188979   -0.000990969   -0.000471761
     12        1          -0.000615578   -0.000527876   -0.000040416
     13        1          -0.002062398    0.001070670   -0.000925267
     14        8          -0.002110016    0.002185820    0.001661641
     15        1           0.000199409   -0.001445523   -0.000233877
     16        8          -0.005333478   -0.002653322   -0.001756492
     17        1           0.000088409    0.000972672    0.000730047
     18        8          -0.003773527    0.002793513   -0.002238540
     19        1           0.000709166    0.000727910    0.000499008
     20        8          -0.003063684    0.002618952    0.001737926
     21        1           0.000493739   -0.000864837    0.001014636
     22        1          -0.000138110    0.000040796    0.002351807
     23        8          -0.003681778   -0.002967412    0.004470223
     24        1           0.004927031    0.000968583    0.000136554
 -------------------------------------------------------------------
 Cartesian Forces:  Max     0.008813310 RMS     0.003250217

 GradGradGradGradGradGradGradGradGradGradGradGradGradGradGradGradGradGrad
 Berny optimization.
 Using GEDIIS/GDIIS optimizer.
 FormGI is forming the generalized inverse of G from B-inverse, IUseBI=4.
 Internal  Forces:  Max     0.005131582 RMS     0.001497680
 Search for a local minimum.
 Step number   2 out of a maximum of  144
 All quantities printed in internal units (Hartrees-Bohrs-Radians)
 Mixed Optimization -- RFO/linear search
 Update second derivatives using D2CorX and points    1    2
 DE= -9.61D-03 DEPred=-1.07D-02 R= 8.94D-01
 TightC=F SS=  1.41D+00  RLast= 4.23D-01 DXNew= 5.0454D-01 1.2701D+00
 Trust test= 8.94D-01 RLast= 4.23D-01 DXMaxT set to 5.05D-01
 ITU=  1  0
 Use linear search instead of GDIIS.
     Eigenvalues ---    0.00349   0.00363   0.00590   0.01156   0.01166
     Eigenvalues ---    0.01181   0.01209   0.01347   0.01505   0.02990
     Eigenvalues ---    0.03337   0.04296   0.04612   0.04713   0.04976
     Eigenvalues ---    0.05061   0.05218   0.05604   0.05670   0.05961
     Eigenvalues ---    0.06514   0.06647   0.07044   0.07135   0.07287
     Eigenvalues ---    0.09682   0.10785   0.11105   0.12828   0.13394
     Eigenvalues ---    0.15428   0.15991   0.16000   0.16000   0.16000
     Eigenvalues ---    0.16131   0.17362   0.17883   0.19107   0.20112
     Eigenvalues ---    0.21364   0.23563   0.26532   0.28370   0.28565
     Eigenvalues ---    0.29072   0.29838   0.33846   0.33987   0.33994
     Eigenvalues ---    0.34007   0.34052   0.34235   0.34348   0.35075
     Eigenvalues ---    0.37020   0.39573   0.39790   0.40507   0.41768
     Eigenvalues ---    0.43862   0.51396   0.51548   0.51787   0.52487
     Eigenvalues ---    0.55620
 RFO step:  Lambda=-3.80700749D-03 EMin= 3.49036011D-03
 Quartic linear search produced a step of  0.03935.
 Iteration  1 RMS(Cart)=  0.05672113 RMS(Int)=  0.00211829
 Iteration  2 RMS(Cart)=  0.00228487 RMS(Int)=  0.00013590
 Iteration  3 RMS(Cart)=  0.00000250 RMS(Int)=  0.00013588
 Iteration  4 RMS(Cart)=  0.00000000 RMS(Int)=  0.00013588
 Variable       Old X    -DE/DX   Delta X   Delta X   Delta X     New X
                                 (Linear)    (Quad)   (Total)
    R1        2.06708   0.00040  -0.00025   0.00066   0.00042   2.06749
    R2        2.70708  -0.00115  -0.00202  -0.00687  -0.00882   2.69826
    R3        2.91819   0.00117   0.00053   0.00491   0.00544   2.92363
    R4        2.87696   0.00363  -0.00068   0.01101   0.01034   2.88730
    R5        2.86159   0.00201  -0.00069   0.00529   0.00456   2.86615
    R6        2.85952   0.00260  -0.00097   0.00593   0.00488   2.86440
    R7        2.07466   0.00049   0.00004   0.00153   0.00157   2.07624
    R8        2.71353  -0.00492  -0.00033  -0.01319  -0.01352   2.70001
    R9        2.94192   0.00073   0.00147   0.00583   0.00730   2.94922
   R10        2.68195   0.00107  -0.00214  -0.00144  -0.00352   2.67843
   R11        2.08443   0.00154   0.00052   0.00562   0.00614   2.09058
   R12        2.64776  -0.00197  -0.00066  -0.00587  -0.00653   2.64123
   R13        2.08075   0.00075   0.00030   0.00284   0.00314   2.08389
   R14        2.70626  -0.00513  -0.00057  -0.01419  -0.01476   2.69151
   R15        2.07950   0.00006   0.00024   0.00067   0.00091   2.08041
   R16        2.71193  -0.00401  -0.00010  -0.01026  -0.01036   2.70157
   R17        2.07687  -0.00060   0.00029  -0.00116  -0.00088   2.07599
   R18        2.08195   0.00002   0.00057   0.00122   0.00179   2.08374
   R19        2.70531  -0.00114   0.00042  -0.00188  -0.00146   2.70385
   R20        1.83001   0.00032  -0.00045  -0.00034  -0.00079   1.82921
   R21        1.83867  -0.00043  -0.00045  -0.00178  -0.00223   1.83644
   R22        1.83854  -0.00068  -0.00049  -0.00235  -0.00285   1.83569
   R23        1.83642  -0.00020  -0.00045  -0.00134  -0.00179   1.83462
   R24        1.83120   0.00201   0.00082   0.00533   0.00615   1.83735
    A1        1.80842   0.00076  -0.00115   0.00668   0.00550   1.81391
    A2        1.88214  -0.00040  -0.00056  -0.01617  -0.01673   1.86542
    A3        1.88657  -0.00071   0.00055  -0.00845  -0.00808   1.87850
    A4        1.98987  -0.00150   0.00116  -0.00653  -0.00564   1.98423
    A5        1.92968   0.00235  -0.00037   0.02523   0.02499   1.95467
    A6        1.95769  -0.00049   0.00024  -0.00194  -0.00180   1.95589
    A7        1.91471   0.00034  -0.00080  -0.01684  -0.01814   1.89657
    A8        1.90983  -0.00019  -0.00091  -0.00271  -0.00365   1.90619
    A9        1.86817  -0.00087  -0.00131  -0.00466  -0.00568   1.86248
   A10        1.92293  -0.00075  -0.00050  -0.00396  -0.00466   1.91826
   A11        1.93436   0.00095   0.00070   0.01192   0.01264   1.94700
   A12        1.91298   0.00052   0.00289   0.01611   0.01889   1.93187
   A13        1.96988  -0.00155   0.00025  -0.00716  -0.00710   1.96279
   A14        1.91438  -0.00049  -0.00051  -0.01886  -0.01943   1.89495
   A15        1.96953  -0.00356   0.00162  -0.01373  -0.01212   1.95741
   A16        1.89990   0.00071   0.00050   0.01988   0.02039   1.92029
   A17        1.77333   0.00472  -0.00381   0.02319   0.01941   1.79275
   A18        1.93237   0.00059   0.00189   0.00086   0.00226   1.93463
   A19        1.94389  -0.00027   0.00005  -0.00945  -0.00979   1.93410
   A20        1.88592  -0.00065  -0.00144  -0.01168  -0.01350   1.87242
   A21        1.92702   0.00253   0.00115   0.02594   0.02717   1.95419
   A22        1.90891   0.00008  -0.00072  -0.01165  -0.01248   1.89642
   A23        1.91141  -0.00251  -0.00091  -0.01425  -0.01488   1.89653
   A24        1.88554   0.00088   0.00195   0.02188   0.02372   1.90925
   A25        2.05740   0.00312  -0.00110   0.01734   0.01618   2.07358
   A26        1.92828  -0.00023  -0.00054  -0.00991  -0.01083   1.91744
   A27        1.93074  -0.00054  -0.00039  -0.00881  -0.00924   1.92150
[...]
 27180,-0.00032853,0.00060185,0.00182535,0.00139008,-0.00150766,-0.0055
 2913,-0.00384208,-0.03809086,-0.03011176,0.01103231,-0.13226985,-0.078
 79832,0.00859426,0.00032036,0.00009195,-0.00463418,0.00138141,0.001132
 23,-0.00004674,-0.00207118,-0.00970863,0.00499957,0.00037993,0.0004235
 8,0.00005602,0.00011569,0.00032122,0.00054554,0.00000205,0.00000378,-0
 .00008789,0.00015908,0.00005055,-0.00017428,0.00091929,0.00040447,-0.0
 0117833,-0.00022296,-0.00061853,-0.00042565,0.00004466,0.00003995,0.00
 007789,0.62122009,-0.00009770,0.00014577,-0.00004176,0.00088066,-0.001
 61485,0.00002427,-0.03262747,-0.03523479,-0.00185478,-0.00085406,0.001
 40162,-0.00280799,-0.03334965,-0.17832925,0.02079813,-0.00061285,0.002
 25923,-0.00012934,0.00719010,-0.00240471,-0.00244258,-0.02185368,-0.02
 491808,0.00429495,-0.00009681,0.00012570,0.00022776,0.00006348,0.00030
 569,-0.00012786,-0.00035130,-0.00001346,-0.00009578,-0.00000907,-0.000
 05470,0.00005664,-0.00008667,0.00230360,0.00213310,-0.00036895,0.00016
 949,-0.00013874,0.00001031,0.00011665,0.00009348,-0.03977629,0.3253238
 6,0.00004270,0.00010880,0.00013087,0.00071568,-0.00080509,0.00022718,-
 0.01618144,-0.02051192,0.00085773,-0.00182934,-0.00546414,-0.00053847,
 -0.00266429,0.01656722,-0.06794531,0.00031433,0.00035923,0.00270966,0.
 00250427,-0.00304924,-0.00118690,0.02150798,0.02628772,0.00535378,-0.0
 0072989,-0.00060863,0.00008020,0.00003018,0.00012757,-0.00010101,-0.00
 013031,-0.00001049,-0.00002286,-0.00007209,-0.00004890,0.00005854,-0.0
 0168237,0.00033845,0.00455110,-0.00015202,0.00004091,0.00002438,-0.000
 00787,0.00006311,-0.00001194,0.06542937,-0.04332466,0.06796168,0.00000
 730,-0.00001997,0.00000229,-0.00008702,0.00011483,-0.00007826,0.001975
 65,0.00040666,-0.00075249,-0.00217302,-0.00352068,0.00223019,-0.025555
 41,0.00923339,-0.00501611,0.00054007,0.00002719,-0.00025050,-0.0006945
 7,0.00017368,0.00005534,0.00179573,0.00151947,0.00036515,0.00004826,0.
 00003732,-0.00001747,-0.00006070,-0.00005349,0.00003391,0.00005271,0.0
 0000181,0.00001554,0.,0.00001073,-0.00001253,0.00005450,-0.00032734,-0
 .00028435,0.00009601,0.00003860,0.00004513,-0.00000331,-0.00001828,-0.
 00001635,-0.43753765,0.11345932,-0.06861599,0.46189460,0.00000063,-0.0
 0001446,-0.00001124,0.00007951,0.00042265,0.00013545,-0.00275826,0.000
 49356,-0.00141581,-0.00270942,-0.00795167,0.00091558,-0.04089432,0.005
 21621,-0.00568751,0.00002217,0.00030854,-0.00054549,-0.00009255,-0.000
 04459,0.00010509,-0.00004292,0.00026785,0.00071504,0.00010918,0.000082
 37,-0.00002700,-0.00006074,-0.00005242,0.00009993,0.00007545,-0.000000
 66,0.00000848,0.00001650,0.00001331,-0.00003030,0.00026325,-0.00009992
 ,-0.00016495,0.00010334,-0.00001902,0.00001874,0.00000060,-0.00001907,
 -0.00001365,0.16539120,-0.08993996,0.03325215,-0.12049120,0.08687075,-
 0.00002686,-0.00002411,-0.00005800,-0.00023230,0.00029642,0.00009426,-
 0.00112914,-0.00091518,0.00122672,0.00158899,0.00005832,0.00015294,0.0
 0441223,0.00040571,0.00025938,0.00009361,-0.00000169,-0.00024271,-0.00
 020796,0.00011323,-0.00038739,0.00092051,-0.00036336,0.00052047,0.0002
 9907,0.00023843,0.00000347,-0.00001212,-0.00007406,0.00003795,0.000049
 02,0.00000318,0.00001178,0.00002040,0.00001560,-0.00002522,-0.00019284
 ,-0.00016083,-0.00106148,0.00006105,-0.00000377,-0.00000791,-0.0000000
 8,-0.00002754,0.00000236,-0.07928667,0.02742354,-0.01440112,0.07232603
 ,-0.02857134,0.01533582,-0.00068221,0.00058121,-0.00041248,-0.00433060
 ,-0.00967958,-0.00159268,-0.14629885,0.04891663,-0.05977162,0.00200050
 ,-0.00066847,-0.00119693,-0.01302216,0.01214398,-0.00035555,0.00110611
 ,0.00040527,0.00200672,-0.03914330,0.03037785,-0.02130924,0.00073410,-
 0.00072543,-0.00080104,0.00340491,0.00102452,0.00132531,-0.00048762,0.
 00313548,-0.00152821,-0.00129506,-0.00048286,-0.00007338,-0.00000824,-
 0.00012019,0.00013742,0.00253920,0.00748430,-0.00770336,-0.00016034,-0
 .00066897,-0.00032432,0.00006225,0.00023639,0.00006424,0.00184535,0.00
 173606,0.00037145,-0.00044515,0.00084518,0.00038414,0.21867406,-0.0002
 5822,0.00023473,-0.00019574,-0.00242652,-0.00237288,-0.00174064,0.0812
 5054,-0.13543755,0.04052830,-0.00506282,-0.00255257,-0.00434970,0.0322
 6827,-0.02492664,0.01049896,0.00134129,0.00164462,0.00133917,0.0005924
 3,0.00479773,-0.00386113,-0.00115413,0.00161018,0.00158050,0.00179341,
 0.00186206,-0.00053046,-0.00041882,-0.00037514,-0.00062039,-0.00013446
 ,0.00004519,0.00004190,0.00004938,0.00005646,0.00011763,0.02259462,-0.
 01607219,0.01279835,-0.00013920,0.00079645,0.00024352,-0.00004877,0.00
 002923,0.00004891,-0.00043716,0.00018976,-0.00176497,0.00003021,0.0009
 1727,0.00069349,-0.13339846,0.45626248,0.00041966,-0.00004102,0.000500
 62,-0.00180143,-0.00376880,0.00060043,-0.03438289,0.00810433,-0.109670
 30,-0.00174004,-0.00329954,-0.00511881,0.01960476,-0.01575852,0.010023
 55,0.00004391,0.00073222,0.00215148,-0.01399131,0.00871157,-0.00536592
 ,0.00004594,0.00065700,0.00354816,-0.00102812,-0.00156363,0.00088563,-
 0.00023786,0.00114724,-0.00040004,-0.00046413,-0.00016376,-0.00001713,
 -0.00018300,-0.00007223,0.00009519,-0.02815473,0.02206307,-0.00729114,
 -0.00016527,-0.00009495,0.00003151,-0.00001718,0.00016244,-0.00002308,
 0.00019258,-0.00038006,0.00112888,0.00015358,0.00089466,-0.00066541,0.
 08235986,0.19102247,0.32562086,0.00003045,-0.00007640,-0.00000035,0.00
 023824,0.00150537,0.00004612,-0.00528398,0.02992715,0.02103491,0.00133
 091,0.00141547,0.00217406,-0.00603803,0.00391676,-0.00266271,-0.000083
 78,-0.00122791,-0.00104680,-0.00228940,0.00423843,0.00282707,0.0000487
 8,-0.00023516,-0.00037642,-0.00021000,-0.00036295,-0.00035363,-0.00006
 356,0.00005519,0.00034275,0.00025457,-0.00004153,0.00003041,0.00001135
 ,-0.00000759,-0.00007518,0.00048885,-0.00022393,-0.00053785,0.00062700
 ,-0.00021574,0.00006108,0.00008365,-0.00018038,-0.00008289,0.00000176,
 -0.00014691,0.00007103,0.00019906,0.00062119,-0.00002709,-0.02693832,0
 .00470576,-0.02159240,0.03644557,0.00001784,0.00004602,0.00003669,-0.0
 0019967,-0.00095693,-0.00030694,0.00658738,-0.02534394,-0.01787648,-0.
 00022849,-0.00036297,-0.00078605,0.00300461,-0.00153212,0.00319866,-0.
 00017170,-0.00015521,0.00006816,-0.00090996,0.00292110,-0.00083380,-0.
 00004843,0.00016163,0.00017786,-0.00005887,-0.00013511,0.00005253,-0.0
 0005593,0.00045864,-0.00001619,-0.00010027,-0.00008494,-0.00001054,-0.
 00003321,-0.00003384,0.00000879,-0.00080062,0.00036744,-0.00054263,0.0
 0003687,-0.00021676,-0.00003688,-0.00000486,0.00004092,-0.00001998,-0.
 00020822,0.00032019,-0.00001527,-0.00007219,-0.00005073,-0.00014396,0.
 03541904,-0.28782373,-0.20869621,-0.04215431,0.31361327,-0.00014998,0.
 00015914,-0.00016657,0.00012566,-0.00054585,-0.00035408,-0.00405536,0.
 01554063,0.00849085,-0.00014151,-0.00007153,0.00067135,-0.00095692,0.0
 0020907,-0.00127693,0.00016862,-0.00025884,0.00000096,-0.00233510,0.00
 127818,0.00187558,-0.00010481,-0.00010869,0.00055377,0.00062590,-0.000
 21360,-0.00046471,-0.00005411,0.00030723,0.00004892,-0.00004707,-0.000
 06856,-0.00002150,0.00004428,-0.00002920,-0.00004645,-0.00081437,0.001
 29191,-0.00048051,0.00029655,-0.00010286,-0.00012753,0.00006845,-0.000
 07962,0.00001865,0.00028562,0.00006399,0.00017579,-0.00008498,-0.00004
 948,-0.00013014,0.00677303,-0.24318260,-0.21769927,-0.00071641,0.22522
 450,0.21027949,0.00150528,-0.00106418,0.00113972,-0.00279409,0.0194245
 2,0.01912418,0.00611415,-0.02397453,-0.02616108,-0.00394599,-0.0009564
 8,-0.00378206,-0.00555868,-0.00069615,0.00040704,-0.00251143,0.0066684
 9,0.00146908,-0.10673969,0.01073119,0.01569215,0.00051549,-0.00024220,
 -0.00064104,-0.00172545,0.01591398,0.01390795,0.00035892,-0.00332935,-
 0.00136742,0.00006489,0.00076947,-0.00016992,-0.00000985,0.00042991,0.
 00011112,0.00237451,0.00144027,0.00027530,-0.00973961,-0.00115469,-0.0
 0002922,-0.00112592,0.00232571,-0.00007142,-0.00003787,-0.00318396,-0.
 00142956,0.00033357,0.00033205,0.00020927,0.00302716,-0.00457343,-0.00
 098948,0.00204351,0.00006528,0.00081440,0.47974078,-0.00231907,0.00186
 408,-0.00231950,0.00893899,-0.02657386,-0.02251452,0.00423266,-0.02707
 747,-0.02543664,-0.00004878,0.00188566,0.00462660,-0.00323465,0.001894
 13,0.00082943,0.00662852,-0.00772025,-0.00096582,0.04165251,-0.1473168
 8,-0.07336852,0.00013940,-0.00050957,-0.00070839,0.00369510,0.00444120
 ,-0.00827532,-0.00095185,-0.00462107,-0.00113349,0.00076251,0.00055297
 ,0.00037651,0.00022777,0.00058182,0.00024603,0.00175874,0.00187861,0.0
 0079447,-0.00086514,0.00519741,0.00060980,0.00018098,0.00033042,-0.000
 08449,-0.00124114,-0.00290670,-0.00111752,0.00044409,0.00011340,0.0001
 9173,0.00020648,0.00174112,-0.00009282,0.00014904,-0.00100583,0.001375
 82,0.12537918,0.31166438,0.00030448,-0.00049507,0.00388086,-0.00032367
 ,-0.00091933,0.00307324,-0.00057921,-0.01719963,-0.01439939,-0.0011902
 0,0.00224816,-0.00260069,-0.00174202,0.00130262,0.00142582,0.00042669,
 0.00243621,0.00324702,0.04502138,-0.07138329,-0.13370837,0.00034657,-0
 .00005016,0.00009031,0.01402327,-0.03297878,-0.02699803,-0.00037616,-0
 .00327466,-0.00122898,0.00051235,0.00023363,0.00029325,-0.00073687,0.0
 0049512,0.00062026,-0.00085613,0.00015649,0.00152772,-0.00201336,0.000
 98310,0.00226967,-0.00060916,0.00081483,0.00017617,-0.00065892,-0.0023
 6079,-0.00062100,0.00036833,0.00018336,0.00008194,0.00027731,-0.002249
 96,0.00099842,0.00104787,0.00033294,-0.00091526,0.05802076,0.19246800,
 0.21332333,0.00020516,-0.00023623,0.00006942,0.00285674,0.00179071,0.0
 0110180,-0.00128414,0.00241258,0.00184046,0.00074592,-0.00024794,0.000
 58206,0.00066327,-0.00009665,-0.00027274,-0.00190684,0.00007115,-0.000
 88597,0.01040330,0.00758736,0.00511560,-0.00009561,-0.00000905,0.00005
 397,-0.00069630,0.00104236,0.00172920,0.00171550,0.00670536,0.00306948
 ,-0.00019084,-0.00138118,-0.00054854,0.00002275,-0.00112022,-0.0007176
 4,-0.00001483,0.00002233,-0.00011891,-0.00218002,-0.00227555,-0.001814
 36,0.00062818,-0.00271032,-0.00033271,0.00006495,0.00080538,0.00035027
 ,-0.00009009,-0.00007763,-0.00007429,0.00037355,-0.00023346,-0.0001621
 4,0.00005353,-0.00038097,0.00041200,-0.36310823,-0.18580647,-0.1107941
 9,0.35193679,0.00013889,-0.00066142,0.00068829,-0.00023567,-0.00156957
 ,-0.00041021,0.00377777,-0.00470529,-0.00458667,-0.00087462,-0.0001802
 3,-0.00151157,-0.00155237,0.00012948,0.00003527,0.00015440,0.00174511,
 0.00155663,-0.02848631,-0.02088160,-0.01288995,0.00019052,-0.00015325,
 -0.00016031,0.00023357,0.00149318,0.00054202,0.00230958,-0.00159520,-0
 .00046258,-0.00023895,-0.00000156,-0.00009895,-0.00021402,0.00002283,0
 .00024536,0.00027670,0.00030322,0.00016958,-0.00237400,-0.00418363,-0.
 00043399,-0.00163818,0.00163966,0.00027103,0.00001842,-0.00057119,-0.0
 0019616,0.00004627,-0.00005174,-0.00001468,0.00130002,0.00109566,0.001
 34878,-0.00176383,-0.00004646,-0.00083204,-0.14526685,-0.11365408,-0.0
 6949383,0.17406494,0.14144018,0.00027564,0.00056225,-0.00033594,0.0007
 4108,0.00009064,0.00252355,0.00180942,-0.00303746,-0.00373173,-0.00009
 871,-0.00034619,0.00028593,-0.00106756,-0.00041576,0.00057274,-0.00046
 442,0.00029464,-0.00069693,-0.02369080,-0.01893428,-0.01150860,0.00000
 982,0.00010218,-0.00009232,-0.00116013,0.00047052,0.00018328,0.0009911
 2,-0.00040160,0.00029757,-0.00007284,0.00025012,-0.00009937,0.00018061
 ,-0.00039226,-0.00035369,0.00010103,-0.00000951,0.00013587,-0.00248815
 ,0.00044481,-0.00237799,0.00009429,-0.00012657,-0.00043604,0.00000352,
 -0.00032240,-0.00028559,0.00001056,-0.00004317,-0.00000389,0.00062121,
 -0.00017994,0.00042253,0.00006055,0.00019395,-0.00037892,-0.07749634,-
 0.06407607,-0.05172807,0.10151588,0.08566808,0.06776676,-0.00005050,-0
 .00020504,-0.00007837,0.00124318,0.00044057,0.00036902,-0.00069269,-0.
 00053383,-0.00123010,-0.16024638,-0.08885993,0.08417257,-0.01574572,-0
 .01792969,0.01431643,0.01171046,0.00680841,-0.00967999,-0.00096923,-0.
 00050807,0.00120227,0.00026819,-0.00021667,-0.00084561,0.00047469,0.00
 089078,-0.00037229,-0.00058819,0.00031864,0.00061226,0.00005733,-0.000
 01425,-0.00011912,-0.00027269,-0.00023132,-0.00054758,0.00021372,-0.00
 004542,-0.00005870,0.00022840,0.00014470,-0.00000207,0.00002260,0.0000
 5462,0.00008442,-0.00557924,0.00248334,-0.00063295,-0.00086768,-0.0014
 1715,0.00032419,0.00009036,0.00081842,0.00035357,-0.00023366,0.0000720
 7,-0.00004551,0.00050385,0.00006529,-0.00054557,0.00004377,0.00007076,
 0.00010396,0.16231052,0.00002673,0.00031546,0.00025484,0.00000838,-0.0
 0051365,0.00033180,-0.00068946,-0.00007038,0.00025022,-0.08119185,-0.1
 2550517,0.06851127,0.00490254,0.00793247,-0.00297359,0.00030998,0.0065
 3013,0.00377431,0.00014028,-0.00138232,0.00038845,-0.00032032,0.000947
 19,-0.00010973,0.00070245,-0.00049282,-0.00120638,-0.00084155,0.000379
 35,0.00075694,0.00010813,-0.00000915,-0.00006970,-0.00016118,0.0000521
 9,-0.00053139,0.00003101,0.00007974,0.00001650,0.00038782,0.00012778,-
 0.00007922,0.00002920,0.00007061,0.00012229,0.00305472,0.00018967,-0.0
 0005175,0.00056298,0.00074313,-0.00007204,-0.00008040,0.00012732,0.000
 03966,-0.00004092,-0.00000913,0.00001970,0.00012677,0.00029136,-0.0004
 1397,0.00002137,-0.00002005,0.00004622,0.09575482,0.15298534,-0.000078
 44,-0.00100924,-0.00016553,0.00063311,0.00570266,0.00214811,-0.0005219
 5,0.00025608,0.00002889,0.08505334,0.07455764,-0.11447690,-0.00232568,
 0.00076412,0.00318639,0.01097014,0.01575836,-0.04222427,0.00021123,0.0
 0014502,-0.00135447,-0.00020152,-0.00076325,0.00091700,0.00023972,-0.0
 0108918,0.00064151,0.00076994,-0.00043490,-0.00139617,0.00002701,0.000
 01950,0.00028661,-0.00084731,-0.00040379,0.00045293,-0.00022697,0.0000
 3020,0.00016157,-0.00054846,-0.00004087,0.00062428,-0.00007763,-0.0001
 4640,-0.00015074,-0.00089296,-0.00024846,0.00091990,-0.00016931,-0.000
 01800,0.00007972,0.00008182,-0.00007381,0.00013553,-0.00000451,0.00002
 892,-0.00002384,0.00005572,-0.00040972,0.00065619,0.00001284,0.0001349
 5,-0.00011600,-0.08372729,-0.07792654,0.14010797,-0.00001361,-0.000741
 72,-0.00039023,0.00115482,0.00119391,-0.00158798,-0.00483999,-0.001279
 69,-0.00406098,-0.10634517,-0.00991724,0.01288249,-0.00741872,0.032873
 67,0.01378484,0.00843282,-0.01089800,-0.00488335,-0.00194828,-0.000831
 45,-0.00046504,-0.00005261,0.00033606,-0.00030812,0.00028468,0.0002565
 6,-0.00042973,0.00006551,0.00055945,0.00076782,0.00018762,-0.00000521,
 -0.00003450,0.00021464,0.00015185,-0.00018474,0.00001065,0.00033313,0.
 00055974,0.00014902,-0.00064469,-0.00030615,0.00004071,0.00003161,0.00
 005958,-0.00852179,0.00502628,0.00131550,0.00124470,0.00333411,0.00130
 296,-0.00058956,0.00301941,0.00181730,-0.00082175,0.00011498,-0.000108
 74,0.00141021,-0.00003336,0.00025286,-0.00028125,0.00023222,0.00006018
 ,0.00719711,-0.02623892,-0.00849068,0.46790989,-0.00024063,-0.00196765
 ,-0.00094840,0.00052870,0.00724318,-0.00137914,0.00255628,0.00257010,0
 .00428934,0.04001692,-0.25634939,-0.04786615,0.01050722,-0.03307386,-0
 .01531694,-0.00642030,-0.01799105,-0.03433721,-0.00039207,0.00161240,0
 .00177046,0.00003913,0.00073582,0.00029987,0.00029119,0.00022508,-0.00
 033009,0.00117653,0.00013659,0.00033081,-0.00018886,0.00005999,-0.0002
 9038,0.00018976,-0.00003518,-0.00012961,0.00015568,-0.00032245,-0.0007
 5865,-0.00094748,-0.00097409,-0.00062231,0.00008568,-0.00004180,0.0000
 9937,-0.00505594,0.00424204,0.00028271,-0.00155431,0.00065899,0.000313
 81,0.00228402,-0.00275048,-0.00130796,0.00023809,-0.00016372,0.0000950
 0,0.00052981,-0.00143852,-0.00101626,0.00014323,0.00041630,0.00016985,
 0.00062145,-0.03604664,-0.01157927,0.14726524,0.46240947,-0.00026263,-
 0.00193877,-0.00100423,-0.00166232,0.00386711,-0.00428104,-0.00101097,
 -0.00054565,0.00014822,0.02752754,-0.03800374,-0.08275899,0.00369637,-
 0.00483666,0.00334139,-0.00156002,-0.05285799,-0.02559603,-0.00116592,
 0.00108113,-0.00163235,0.00164865,-0.00101585,0.00052192,-0.00007714,-
 0.00025769,0.00049226,0.00186275,-0.00041368,-0.00086775,-0.00001844,0
 .00002682,0.00003359,-0.00023963,-0.00017067,0.00019385,-0.00018070,0.
 00020527,0.00035814,-0.00110409,-0.00118505,-0.00013902,-0.00001738,-0
 .00016968,-0.00010998,-0.00066064,0.00078782,0.00258783,-0.00029601,-0
 .00050546,0.00023546,0.00071232,-0.00006855,0.00038379,-0.00031442,0.0
 0002480,-0.00004878,0.00112063,-0.00110520,0.00055884,-0.00016168,0.00
 050780,-0.00004181,-0.00447669,0.00745181,0.00806052,-0.10988387,0.068
 14526,0.13558273,0.00002088,0.00028664,0.00021150,0.00033244,-0.000950
 07,-0.00025896,-0.00078451,-0.00113847,0.00012657,0.00667449,-0.003542
 69,-0.00290443,0.00254940,0.00773727,-0.00019906,-0.00093149,0.0020556
 1,0.00214179,0.00093400,-0.00027512,-0.00008376,-0.00072637,-0.0010026
 9,0.00029674,-0.00011124,-0.00006351,0.00005759,-0.00023205,-0.0000221
 7,-0.00009654,-0.00008097,-0.00001646,-0.00000742,-0.00005483,-0.00001
 416,0.00005298,-0.00001505,0.00017347,0.00027488,0.00010775,0.00040659
 ,0.00014744,-0.00000788,0.00001746,0.00001222,-0.00117371,0.00176045,0
 .00147536,-0.00072756,-0.00265014,-0.00080211,-0.00045614,-0.00017829,
 -0.00008118,0.00010525,0.00010964,0.00000036,-0.00069553,0.00003918,-0
 .00017639,0.00013473,-0.00016928,-0.00003993,0.00088181,0.00339743,0.0
 0005783,-0.35746965,-0.19182934,0.08652429,0.35172622,0.00001086,0.000
 10406,0.00006609,-0.00010366,-0.00021278,-0.00012280,-0.00053065,-0.00
 066285,-0.00067839,-0.04025668,-0.03589419,0.00852183,-0.00198413,-0.0
 0413680,0.00122315,0.00099984,0.00146587,0.00064472,-0.00054123,-0.000
 32094,0.00008998,0.00015145,0.00025171,-0.00014003,0.00012362,0.000101
 05,-0.00017284,-0.00020543,0.00005996,0.00016028,0.00007545,-0.0000024
 9,-0.00001191,0.00006976,0.00003255,-0.00005157,0.00003123,0.00007278,
 0.00006910,0.00021232,0.00007132,0.00003347,0.00000180,0.00000584,-0.0
 0000445,-0.00100051,-0.00110559,-0.00045914,-0.00004907,0.00213621,0.0
 0061910,-0.00027207,0.00090092,0.00035606,-0.00009487,-0.00000779,-0.0
 0002229,0.00030517,0.00038765,0.00018127,-0.00009111,-0.00001032,-0.00
 000804,0.00141747,-0.00672242,-0.00325403,-0.14413818,-0.12915516,0.02
 097680,0.18586863,0.17264143,-0.00004609,-0.00019982,-0.00006669,0.000
 49574,-0.00040110,-0.00148978,0.00045576,-0.00013028,0.00036573,-0.013
 89995,-0.01037347,0.00408066,0.00119898,-0.00086786,0.00017398,-0.0001
 5666,-0.00145525,-0.00114390,0.00028533,0.00006572,0.00010850,-0.00026
 623,0.00061838,-0.00019559,-0.00003365,0.00002076,-0.00000158,-0.00004
 445,0.00009141,-0.00001821,-0.00004155,-0.00001243,-0.00000098,-0.0000
 0220,0.00001983,0.00002266,0.00006836,-0.00010552,-0.00022655,0.000100
 62,0.00020694,0.00006101,-0.00000587,0.00000183,0.00002878,-0.00038987
 ,-0.00162849,-0.00165330,-0.00001169,0.00075492,-0.00105900,-0.0000460
 3,-0.00009529,-0.00027547,0.00009481,-0.00006287,0.00001916,-0.0002097
 9,0.00008963,-0.00002325,0.00003017,-0.00007684,-0.00000135,0.00082317
 ,0.00147030,0.00150081,0.09833085,0.04008588,-0.03601856,-0.08672976,-
 0.02801637,0.03581293\\0.00002294,-0.00000127,0.00000960,-0.00001020,-
 0.00002306,0.00000611,-0.00003168,0.00002129,-0.00000219,0.00000016,0.
 00004668,-0.00000516,-0.00003608,-0.00011675,-0.00003616,-0.00001990,0
 .00003429,0.00000514,0.00003718,0.00005776,0.00008391,0.00000185,0.000
 02227,-0.00001011,-0.00000108,0.00000183,-0.00000411,-0.00002485,-0.00
 001788,-0.00001810,0.00000448,-0.00002067,-0.00000640,0.00001951,0.000
 00695,0.00000492,-0.00000324,-0.00001225,0.00000781,-0.00000240,-0.000
 00518,0.00001381,0.00001694,-0.00000949,-0.00000288,0.00005351,0.00009
 328,0.00001705,-0.00002779,0.00002326,-0.00000920,0.00002204,-0.000009
 78,0.00002869,0.00000617,0.00001559,0.00001604,0.00000787,-0.00005799,
 -0.00005116,0.00000219,-0.00002156,0.00002235,-0.00001190,-0.00002788,
 0.00000398,-0.00004184,0.00000060,-0.00004473,0.00001613,-0.00000001,-
 0.00002921\\\@


 SCIENCE IS LONG AND LIFE IS SHORT.

                     DON MOSER IN THE FEBRUARY 1979 SMITHSONIAN
 Job cpu time:       0 days  0 hours 45 minutes 26.5 seconds.
 File lengths (MBytes):  RWF=    129 Int=      0 D2E=      0 Chk=      4 Scr=      1
 Normal termination of Gaussian 09 at Tue Jun 14 00:50:21 2016.
