 Entering Gaussian System, Link 0=g09
 Initial command:
 /usr/local/gaussian/g09.D01/g09/l1.exe "/nqs/iawad/Gau-27186.inp" -scrdir="/nqs/iawad/"
 Entering Link 1 = /usr/local/gaussian/g09.D01/g09/l1.exe PID=     27189.
  
 Copyright (c) 1988,1990,1992,1993,1995,1998,2003,2009,2013,
            Gaussian, Inc.  All Rights Reserved.
  
 This is part of the Gaussian(R) 09 program.  It is based on
 the Gaussian(R) 03 system (copyright 2003, Gaussian, Inc.),
 the Gaussian(R) 98 system (copyright 1998, Gaussian, Inc.),
 the Gaussian(R) 94 system (copyright 1995, Gaussian, Inc.),
 the Gaussian 92(TM) system (copyright 1992, Gaussian, Inc.),
 the Gaussian 90(TM) system (copyright 1990, Gaussian, Inc.),
 the Gaussian 88(TM) system (copyright 1988, Gaussian, Inc.),
 the Gaussian 86(TM) system (copyright 1986, Carnegie Mellon
 University), and the Gaussian 82(TM) system (copyright 1983,
 Carnegie Mellon University). Gaussian is a federally registered
 trademark of Gaussian, Inc.
  
 This software contains proprietary and confidential information,
 including trade secrets, belonging to Gaussian, Inc.
  
 This software is provided under written license and may be
 used, copied, transmitted, or stored only in accord with that
 written license.
  
 The following legend is applicable only to US Government
 contracts under FAR:
  
                    RESTRICTED RIGHTS LEGEND
  
 Use, reproduction and disclosure by the US Government is
 subject to restrictions as set forth in subparagraphs (a)
 and (c) of the Commercial Computer Software - Restricted
 Rights clause in FAR 52.227-19.
  
 Gaussian, Inc.
 340 Quinnipiac St., Bldg. 40, Wallingford CT 06492
  
  
 ---------------------------------------------------------------
 Warning -- This program may not be used in any manner that
 competes with the business of Gaussian, Inc. or will provide
 assistance to any competitor of Gaussian, Inc.  The licensee
 of this program is prohibited from giving any competitor of
 Gaussian, Inc. access to this program.  By using this program,
 the user acknowledges that Gaussian, Inc. is engaged in the
 business of creating and licensing software in the field of
 computational chemistry and represents and warrants to the
 licensee that it is not a competitor of Gaussian, Inc. and that
 it will not use this program in any manner prohibited above.
 ---------------------------------------------------------------
  

 Cite this work as:
 Gaussian 09, Revision D.01,
 M. J. Frisch, G. W. Trucks, H. B. Schlegel, G. E. Scuseria, 
 M. A. Robb, J. R. Cheeseman, G. Scalmani, V. Barone, B. Mennucci, 
 G. A. Petersson, H. Nakatsuji, M. Caricato, X. Li, H. P. Hratchian, 
 A. F. Izmaylov, J. Bloino, G. Zheng, J. L. Sonnenberg, M. Hada, 
 M. Ehara, K. Toyota, R. Fukuda, J. Hasegawa, M. Ishida, T. Nakajima, 
 Y. Honda, O. Kitao, H. Nakai, T. Vreven, J. A. Montgomery, Jr., 
 J. E. Peralta, F. Ogliaro, M. Bearpark, J. J. Heyd, E. Brothers, 
 K. N. Kudin, V. N. Staroverov, T. Keith, R. Kobayashi, J. Normand, 
 K. Raghavachari, A. Rendell, J. C. Burant, S. S. Iyengar, J. Tomasi, 
 M. Cossi, N. Rega, J. M. Millam, M. Klene, J. E. Knox, J. B. Cross, 
 V. Bakken, C. Adamo, J. Jaramillo, R. Gomperts, R. E. Stratmann, 
 O. Yazyev, A. J. Austin, R. Cammi, C. Pomelli, J. W. Ochterski, 
 R. L. Martin, K. Morokuma, V. G. Zakrzewski, G. A. Voth, 
 P. Salvador, J. J. Dannenberg, S. Dapprich, A. D. Daniels, 
 O. Farkas, J. B. Foresman, J. V. Ortiz, J. Cioslowski, 
 and D. J. Fox, Gaussian, Inc., Wallingford CT, 2013.
 
 ******************************************
 Gaussian 09:  AM64L-G09RevD.01 24-Apr-2013
                14-Jun-2016 
 ******************************************
 %NPROCS=4
 Will use up to    4 processors via shared memory.
 %rwf=/nqs/iawad//boat1_Beta_optfreq_B3LYP_6-31G_d.rwf
 %nosave
 %chk=/home/iawad/scratch/MAIN/PRO_Halides/direct/optfreq/boat1_Beta/boat1_Beta_o
 ptfreq_B3LYP_6-31G_d.chk
 -----------------------------------------
 # opt=(MaxCycle=1000) freq B3LYP/6-31G(d)
 -----------------------------------------
 1/6=1000,14=-1,18=20,19=15,26=3,38=1/1,3;
 2/9=110,12=2,17=6,18=5,40=1/2;
 3/5=1,6=6,7=1,11=2,16=1,25=1,30=1,71=1,74=-5/1,2,3;
 4//1;
 5/5=2,38=5/2;
 6/7=2,8=2,9=2,10=2,28=1/1;
 7//1,2,3,16;
 1/6=1000,14=-1,18=20,19=15,26=3/3(2);
 2/9=110/2;
 99//99;
 2/9=110/2;
 3/5=1,6=6,7=1,11=2,16=1,25=1,30=1,71=1,74=-5/1,2,3;
 4/5=5,16=3,69=1/1;
 5/5=2,38=5/2;
 7//1,2,3,16;
 1/6=1000,14=-1,18=20,19=15,26=3/3(-5);
 2/9=110/2;
 6/7=2,8=2,9=2,10=2,19=2,28=1/1;
 99/9=1/99;
 ------------------------
 boat1_Beta_B3LYP_6-31G_d
 ------------------------
 Symbolic Z-matrix:
 Charge =  0 Multiplicity = 1
 H
 C                    1    B1
 C                    2    B2       1    A1
 C                    2    B3       1    A2       3    D1       0
 C                    3    B4       2    A3       1    D2       0
 O                    4    B5       2    A4       1    D3       0
 C                    3    B6       2    A5       1    D4       0
 H                    4    B7       2    A6       1    D5       0
 H                    5    B8       3    A7       2    D6       0
 H                    7    B9       3    A8       2    D7       0
 C                    2    B10      1    A9       6    D8       0
 H                    11   B11      2    A10      1    D9       0
 H                    11   B12      2    A11      1    D10      0
 O                    4    B13      2    A12      1    D11      0
 H                    14   B14      4    A13      2    D12      0
 H                    3    B15      2    A14      1    D13      0
 O                    11   B16      2    A15      1    D14      0
 H                    17   B17      11   A16      2    D15      0
 O                    5    B18      3    A17      2    D16      0
 H                    19   B19      5    A18      3    D17      0
 O                    3    B20      2    A19      1    D18      0
 H                    21   B21      3    A20      2    D19      0
 O                    7    B22      3    A21      2    D20      0
 H                    23   B23      7    A22      3    D21      0
       Variables:
  B1                    1.09719                  
  B2                    2.52855                  
  B3                    2.51147                  
  B4                    1.52359                  
  B5                    1.44795                  
  B6                    1.52619                  
  B7                    1.09578                  
  B8                    1.09704                  
  B9                    1.09722                  
  B10                   1.53153                  
  B11                   1.09518                  
  B12                   1.09412                  
  B13                   1.42114                  
  B14                   0.9723                   
  B15                   1.09729                  
  B16                   1.42598                  
  B17                   0.97451                  
  B18                   1.4397                   
  B19                   0.97906                  
  B20                   1.44041                  
  B21                   0.97951                  
  B22                   1.43637                  
  B23                   0.97787                  
  A1                  115.96167                  
  A2                  133.71887                  
  A3                   89.66711                  
  A4                   30.39748                  
  A5                   34.506                    
  A6                  136.45405                  
  A7                  110.15131                  
  A8                  108.69194                  
  A9                  107.28538                  
  A10                 110.26128                  
  A11                 111.54197                  
  A12                  99.29193                  
  A13                 105.19273                  
  A14                  95.4578                   
  A15                 109.81673                  
  A16                 106.5327                   
  A17                 108.73656                  
  A18                 104.61118                  
  A19                 144.18845                  
  A20                 104.48922                  
  A21                 108.53465                  
  A22                 105.91706                  
  D1                   72.56475                  
  D2                  145.17068                  
  D3                   22.89001                  
  D4                  -85.23267                  
  D5                    4.25058                  
  D6                   95.1031                   
  D7                 -122.75652                  
  D8                  118.42469                  
  D9                  -62.3686                   
  D10                 177.94005                  
  D11                 133.00539                  
  D12                -117.34279                  
  D13                  34.35371                  
  D14                  57.74604                  
  D15                -176.75903                  
  D16                -150.11144                  
  D17                 -46.48525                  
  D18                 -91.67273                  
  D19                  51.83078                  
  D20                 123.12815                  
  D21                 179.30852                  
 

 GradGradGradGradGradGradGradGradGradGradGradGradGradGradGradGradGradGrad
 Berny optimization.
 Initialization pass.
                           ----------------------------
                           !    Initial Parameters    !
                           ! (Angstroms and Degrees)  !
 --------------------------                            --------------------------
 ! Name  Definition              Value          Derivative Info.                !
 --------------------------------------------------------------------------------
 ! R1    R(1,2)                  1.0972         estimate D2E/DX2                !
 ! R2    R(2,6)                  1.4597         estimate D2E/DX2                !
 ! R3    R(2,7)                  1.5371         estimate D2E/DX2                !
 ! R4    R(2,11)                 1.5315         estimate D2E/DX2                !
 ! R5    R(3,5)                  1.5236         estimate D2E/DX2                !
 ! R6    R(3,7)                  1.5262         estimate D2E/DX2                !
 ! R7    R(3,16)                 1.0973         estimate D2E/DX2                !
 ! R8    R(3,21)                 1.4404         estimate D2E/DX2                !
 ! R9    R(4,5)                  1.5371         estimate D2E/DX2                !
 ! R10   R(4,6)                  1.4479         estimate D2E/DX2                !
 ! R11   R(4,8)                  1.0958         estimate D2E/DX2                !
 ! R12   R(4,14)                 1.4211         estimate D2E/DX2                !
 ! R13   R(5,9)                  1.097          estimate D2E/DX2                !
 ! R14   R(5,19)                 1.4397         estimate D2E/DX2                !
 ! R15   R(7,10)                 1.0972         estimate D2E/DX2                !
 ! R16   R(7,23)                 1.4364         estimate D2E/DX2                !
 ! R17   R(11,12)                1.0952         estimate D2E/DX2                !
 ! R18   R(11,13)                1.0941         estimate D2E/DX2                !
 ! R19   R(11,17)                1.426          estimate D2E/DX2                !
 ! R20   R(14,15)                0.9723         estimate D2E/DX2                !
 ! R21   R(17,18)                0.9745         estimate D2E/DX2                !
 ! R22   R(19,20)                0.9791         estimate D2E/DX2                !
 ! R23   R(21,22)                0.9795         estimate D2E/DX2                !
 ! R24   R(23,24)                0.9779         estimate D2E/DX2                !
 ! A1    A(1,2,6)              105.2828         estimate D2E/DX2                !
 ! A2    A(1,2,7)              108.6582         estimate D2E/DX2                !
 ! A3    A(1,2,11)             107.2854         estimate D2E/DX2                !
 ! A4    A(6,2,7)              112.3164         estimate D2E/DX2                !
 ! A5    A(6,2,11)             111.1071         estimate D2E/DX2                !
 ! A6    A(7,2,11)             111.8209         estimate D2E/DX2                !
 ! A7    A(5,3,7)              110.8717         estimate D2E/DX2                !
 ! A8    A(5,3,16)             110.7517         estimate D2E/DX2                !
 ! A9    A(5,3,21)             108.949          estimate D2E/DX2                !
 ! A10   A(7,3,16)             110.9043         estimate D2E/DX2                !
 ! A11   A(7,3,21)             109.8098         estimate D2E/DX2                !
 ! A12   A(16,3,21)            105.3938         estimate D2E/DX2                !
 ! A13   A(5,4,6)              112.5089         estimate D2E/DX2                !
 ! A14   A(5,4,8)              110.4811         estimate D2E/DX2                !
 ! A15   A(5,4,14)             110.4376         estimate D2E/DX2                !
 ! A16   A(6,4,8)              107.1498         estimate D2E/DX2                !
 ! A17   A(6,4,14)             108.1197         estimate D2E/DX2                !
 ! A18   A(8,4,14)             107.9733         estimate D2E/DX2                !
 ! A19   A(3,5,4)              111.3037         estimate D2E/DX2                !
 ! A20   A(3,5,9)              110.1513         estimate D2E/DX2                !
 ! A21   A(3,5,19)             108.7366         estimate D2E/DX2                !
 ! A22   A(4,5,9)              110.4251         estimate D2E/DX2                !
 ! A23   A(4,5,19)             110.8482         estimate D2E/DX2                !
 ! A24   A(9,5,19)             105.1914         estimate D2E/DX2                !
 ! A25   A(2,6,4)              119.4764         estimate D2E/DX2                !
 ! A26   A(2,7,3)              111.2664         estimate D2E/DX2                !
 ! A27   A(2,7,10)             111.1857         estimate D2E/DX2                !
 ! A28   A(2,7,23)             111.5668         estimate D2E/DX2                !
 ! A29   A(3,7,10)             108.6919         estimate D2E/DX2                !
 ! A30   A(3,7,23)             108.5347         estimate D2E/DX2                !
 ! A31   A(10,7,23)            105.3715         estimate D2E/DX2                !
 ! A32   A(2,11,12)            110.2613         estimate D2E/DX2                !
 ! A33   A(2,11,13)            111.542          estimate D2E/DX2                !
 ! A34   A(2,11,17)            109.8167         estimate D2E/DX2                !
 ! A35   A(12,11,13)           107.762          estimate D2E/DX2                !
 ! A36   A(12,11,17)           108.9906         estimate D2E/DX2                !
 ! A37   A(13,11,17)           108.3981         estimate D2E/DX2                !
 ! A38   A(4,14,15)            105.1927         estimate D2E/DX2                !
 ! A39   A(11,17,18)           106.5327         estimate D2E/DX2                !
 ! A40   A(5,19,20)            104.6112         estimate D2E/DX2                !
 ! A41   A(3,21,22)            104.4892         estimate D2E/DX2                !
 ! A42   A(7,23,24)            105.9171         estimate D2E/DX2                !
 ! D1    D(1,2,6,4)           -163.0567         estimate D2E/DX2                !
 ! D2    D(7,2,6,4)            -44.9796         estimate D2E/DX2                !
 ! D3    D(11,2,6,4)            81.1165         estimate D2E/DX2                !
 ! D4    D(1,2,7,3)            108.972          estimate D2E/DX2                !
 ! D5    D(1,2,7,10)          -129.7175         estimate D2E/DX2                !
 ! D6    D(1,2,7,23)           -12.402          estimate D2E/DX2                !
 ! D7    D(6,2,7,3)             -7.0892         estimate D2E/DX2                !
 ! D8    D(6,2,7,10)           114.2213         estimate D2E/DX2                !
 ! D9    D(6,2,7,23)          -128.4632         estimate D2E/DX2                !
 ! D10   D(11,2,7,3)          -132.7976         estimate D2E/DX2                !
 ! D11   D(11,2,7,10)          -11.487          estimate D2E/DX2                !
 ! D12   D(11,2,7,23)          105.8284         estimate D2E/DX2                !
 ! D13   D(1,2,11,12)          -62.3686         estimate D2E/DX2                !
 ! D14   D(1,2,11,13)          177.9401         estimate D2E/DX2                !
 ! D15   D(1,2,11,17)           57.746          estimate D2E/DX2                !
 ! D16   D(6,2,11,12)           52.2153         estimate D2E/DX2                !
 ! D17   D(6,2,11,13)          -67.476          estimate D2E/DX2                !
 ! D18   D(6,2,11,17)          172.3299         estimate D2E/DX2                !
 ! D19   D(7,2,11,12)          178.5855         estimate D2E/DX2                !
 ! D20   D(7,2,11,13)           58.8941         estimate D2E/DX2                !
 ! D21   D(7,2,11,17)          -61.2999         estimate D2E/DX2                !
 ! D22   D(7,3,5,4)            -55.5743         estimate D2E/DX2                !
 ! D23   D(7,3,5,9)             67.2526         estimate D2E/DX2                !
 ! D24   D(7,3,5,19)          -177.962          estimate D2E/DX2                !
 ! D25   D(16,3,5,4)            67.9872         estimate D2E/DX2                !
 ! D26   D(16,3,5,9)          -169.1859         estimate D2E/DX2                !
 ! D27   D(16,3,5,19)          -54.4004         estimate D2E/DX2                !
 ! D28   D(21,3,5,4)          -176.5311         estimate D2E/DX2                !
 ! D29   D(21,3,5,9)           -53.7042         estimate D2E/DX2                !
 ! D30   D(21,3,5,19)           61.0813         estimate D2E/DX2                !
 ! D31   D(5,3,7,2)             55.5531         estimate D2E/DX2                !
 ! D32   D(5,3,7,10)           -67.2034         estimate D2E/DX2                !
 ! D33   D(5,3,7,23)           178.6812         estimate D2E/DX2                !
 ! D34   D(16,3,7,2)           -67.9208         estimate D2E/DX2                !
 ! D35   D(16,3,7,10)          169.3227         estimate D2E/DX2                !
 ! D36   D(16,3,7,23)           55.2073         estimate D2E/DX2                !
 ! D37   D(21,3,7,2)           176.0            estimate D2E/DX2                !
 ! D38   D(21,3,7,10)           53.2434         estimate D2E/DX2                !
 ! D39   D(21,3,7,23)          -60.8719         estimate D2E/DX2                !
 ! D40   D(5,3,21,22)          169.563          estimate D2E/DX2                !
 ! D41   D(7,3,21,22)           47.9583         estimate D2E/DX2                !
 ! D42   D(16,3,21,22)         -71.5495         estimate D2E/DX2                !
 ! D43   D(6,4,5,3)              6.941          estimate D2E/DX2                !
 ! D44   D(6,4,5,9)           -115.7286         estimate D2E/DX2                !
 ! D45   D(6,4,5,19)           128.1016         estimate D2E/DX2                !
 ! D46   D(8,4,5,3)           -112.7621         estimate D2E/DX2                !
 ! D47   D(8,4,5,9)            124.5683         estimate D2E/DX2                !
 ! D48   D(8,4,5,19)             8.3985         estimate D2E/DX2                !
 ! D49   D(14,4,5,3)           127.8507         estimate D2E/DX2                !
 ! D50   D(14,4,5,9)             5.1811         estimate D2E/DX2                !
 ! D51   D(14,4,5,19)         -110.9887         estimate D2E/DX2                !
 ! D52   D(5,4,6,2)             45.0591         estimate D2E/DX2                !
 ! D53   D(8,4,6,2)            166.6772         estimate D2E/DX2                !
 ! D54   D(14,4,6,2)           -77.1702         estimate D2E/DX2                !
 ! D55   D(5,4,14,15)          149.1613         estimate D2E/DX2                !
 ! D56   D(6,4,14,15)          -87.3479         estimate D2E/DX2                !
 ! D57   D(8,4,14,15)           28.2676         estimate D2E/DX2                !
 ! D58   D(3,5,19,20)          -46.4852         estimate D2E/DX2                !
 ! D59   D(4,5,19,20)         -169.1482         estimate D2E/DX2                !
 ! D60   D(9,5,19,20)           71.4876         estimate D2E/DX2                !
 ! D61   D(2,7,23,24)          -57.7445         estimate D2E/DX2                !
 ! D62   D(3,7,23,24)          179.3085         estimate D2E/DX2                !
 ! D63   D(10,7,23,24)          63.0309         estimate D2E/DX2                !
 ! D64   D(2,11,17,18)        -176.759          estimate D2E/DX2                !
 ! D65   D(12,11,17,18)        -55.8751         estimate D2E/DX2                !
 ! D66   D(13,11,17,18)         61.1558         estimate D2E/DX2                !
 --------------------------------------------------------------------------------
 Trust Radius=3.00D-01 FncErr=1.00D-07 GrdErr=1.00D-06
 Number of steps in this run=    144 maximum allowed number of steps=    144.
 GradGradGradGradGradGradGradGradGradGradGradGradGradGradGradGradGradGrad

                          Input orientation:                          
 ---------------------------------------------------------------------
 Center     Atomic      Atomic             Coordinates (Angstroms)
 Number     Number       Type             X           Y           Z
 ---------------------------------------------------------------------
      1          1           0        0.000000    0.000000    0.000000
      2          6           0        0.000000    0.000000    1.097187
      3          6           0        2.273391    0.000000    2.204112
      4          6           0        0.543867    1.731746    2.832918
      5          6           0        1.717944    0.870160    3.324662
      6          8           0        0.141300    1.401017    1.481954
      7          6           0        1.174077   -0.861587    1.588932
      8          1           0        0.818378    2.792572    2.837726
      9          1           0        1.405857    0.244273    4.169859
     10          1           0        0.842762   -1.594560    2.335171
     11          6           0       -1.349423   -0.563523    1.552253
     12          1           0       -2.164999    0.082309    1.209967
     13          1           0       -1.410444   -0.628649    2.642724
     14          8           0       -0.583036    1.566530    3.682871
     15          1           0       -1.050758    2.418466    3.654392
     16          1           0        2.761999    0.616395    1.439018
     17          8           0       -1.534474   -1.870275    1.012288
     18          1           0       -2.423504   -2.160292    1.286492
     19          8           0        2.779514    1.695899    3.838444
     20          1           0        3.534059    1.083227    3.956154
     21          8           0        3.312837   -0.842454    2.737587
     22          1           0        3.501554   -1.482620    2.020645
     23          8           0        1.744141   -1.635776    0.521774
     24          1           0        1.013524   -2.178595    0.164325
 ---------------------------------------------------------------------
                    Distance matrix (angstroms):
                    1          2          3          4          5
     1  H    0.000000
     2  C    1.097187   0.000000
     3  C    3.166452   2.528554   0.000000
     4  C    3.364545   2.511473   2.526973   0.000000
     5  C    3.842120   2.944512   1.523592   1.537075   0.000000
     6  O    2.044261   1.459747   2.651447   1.447946   2.482577
     7  C    2.155340   1.537075   1.526194   2.944494   2.511473
     8  H    4.064590   3.390822   3.212006   1.095778   2.177612
     9  H    4.407247   3.387833   2.162508   2.177847   1.097037
    10  H    2.950575   2.187573   2.146275   3.376596   2.796404
    11  C    2.132601   1.531530   3.723876   3.239276   3.821730
    12  H    2.481535   2.169497   4.549110   3.562663   4.491090
    13  H    3.060807   2.184773   3.762740   3.070337   3.535290
    14  O    4.044439   3.078913   3.577697   1.421136   2.430587
    15  H    4.506401   3.673196   4.359157   1.920737   3.189308
    16  H    3.174800   2.850514   1.097292   2.847293   2.170277
    17  O    2.622454   2.420691   4.406609   4.539686   4.840999
    18  H    3.492176   3.252087   5.250686   5.132708   5.521717
    19  O    5.033431   4.256320   2.408999   2.451630   1.439705
    20  H    5.414250   4.672969   2.415019   3.259369   1.934542
    21  O    4.379384   3.791508   1.440407   3.781903   2.412755
    22  H    4.306048   3.913032   1.933962   4.442956   3.227584
    23  O    2.447456   2.459450   2.405438   4.257024   3.759865
    24  H    2.408424   2.577545   3.239486   4.757387   4.447341
                    6          7          8          9         10
     6  O    0.000000
     7  C    2.489468   0.000000
     8  H    2.057420   3.878000   0.000000
     9  H    3.187789   2.817416   2.934883   0.000000
    10  H    3.192728   1.097221   4.415889   2.657905   0.000000
    11  C    2.467107   2.541306   4.197044   3.885353   2.545913
    12  H    2.670578   3.490556   4.346914   4.640927   3.622789
    13  H    2.806215   2.800801   4.087838   3.320494   2.470730
    14  O    2.322950   3.656197   2.044850   2.437461   3.720441
    15  H    2.678748   4.469314   2.073781   3.320811   4.629270
    16  H    2.735971   2.174488   3.235706   3.071658   3.061843
    17  O    3.705423   2.947239   5.532655   4.804905   2.734463
    18  H    4.393103   3.836755   6.119394   5.362811   3.476819
    19  O    3.549673   3.765431   2.459712   2.025830   4.103408
    20  H    4.211113   3.867241   3.398185   2.297554   4.128099
    21  O    4.082698   2.427771   4.409735   2.620868   2.613211
    22  H    4.460590   2.447286   5.113152   3.463123   2.679670
    23  O    3.565552   1.436373   5.082415   4.117954   2.025486
    24  H    3.912869   1.946738   5.647800   4.697713   2.254513
                   11         12         13         14         15
    11  C    0.000000
    12  H    1.095182   0.000000
    13  H    1.094117   1.768504   0.000000
    14  O    3.108699   3.289494   2.566187   0.000000
    15  H    3.660663   3.560109   3.230751   0.972302   0.000000
    16  H    4.278880   4.961151   4.517557   4.138465   4.763660
    17  O    1.425975   2.061365   2.053130   4.455208   5.060434
    18  H    1.942666   2.258748   2.282890   4.797828   5.334455
    19  O    5.232569   5.827588   4.938523   3.368632   3.902175
    20  H    5.686732   6.404892   5.394786   4.154363   4.784817
    21  O    4.818660   5.761554   4.729069   4.677028   5.524047
    22  H    4.959446   5.934310   5.024338   5.361361   6.213787
    23  O    3.432455   4.325136   3.932447   5.065871   5.836235
    24  H    3.180930   4.038324   3.797422   5.380997   6.129828
                   16         17         18         19         20
    16  H    0.000000
    17  O    4.982500   0.000000
    18  H    5.884105   0.974511   0.000000
    19  O    2.631137   6.270187   6.960895   0.000000
    20  H    2.673945   6.563501   7.289723   0.979061   0.000000
    21  O    2.029272   5.246856   6.062011   2.817721   2.289561
    22  H    2.300238   5.150596   6.008705   3.732120   3.214160
    23  O    2.636219   3.323388   4.269563   4.813768   4.731993
    24  H    3.534682   2.703034   3.615626   5.624017   5.600941
                   21         22         23         24
    21  O    0.000000
    22  H    0.979507   0.000000
    23  O    2.828427   2.314860   0.000000
    24  H    3.700512   3.181289   0.977866   0.000000
 Stoichiometry    C6H12O6
 Framework group  C1[X(C6H12O6)]
 Deg. of freedom    66
 Full point group                 C1      NOp   1
 Largest Abelian subgroup         C1      NOp   1
 Largest concise Abelian subgroup C1      NOp   1
                         Standard orientation:                         
 ---------------------------------------------------------------------
 Center     Atomic      Atomic             Coordinates (Angstroms)
 Number     Number       Type             X           Y           Z
 ---------------------------------------------------------------------
      1          1           0       -1.726303    0.210990    1.532492
      2          6           0       -1.175361   -0.150659    0.655284
      3          6           0        1.010987    1.019640    0.161454
      4          6           0        0.923018   -1.498163    0.357735
      5          6           0        1.595719   -0.298936   -0.329237
      6          8           0       -0.203882   -1.106486    1.178242
      7          6           0       -0.502660    1.048567   -0.031687
      8          1           0        1.634876   -2.014330    1.011615
      9          1           0        1.493882   -0.375297   -1.418864
     10          1           0       -0.719719    1.062497   -1.107133
     11          6           0       -2.186962   -0.840061   -0.265027
     12          1           0       -2.631737   -1.704107    0.239971
     13          1           0       -1.714625   -1.197731   -1.184843
     14          8           0        0.461751   -2.430274   -0.610784
     15          1           0        0.523622   -3.298850   -0.178212
     16          1           0        1.275065    1.195061    1.211949
     17          8           0       -3.222206    0.075179   -0.617182
     18          1           0       -3.862273   -0.424181   -1.156279
     19          8           0        3.014060   -0.296275   -0.082151
     20          1           0        3.318315    0.578702   -0.399017
     21          8           0        1.617328    2.101575   -0.571035
     22          1           0        1.083365    2.887719   -0.333773
     23          8           0       -1.003728    2.296092    0.474061
     24          1           0       -1.969503    2.278709    0.321747
 ---------------------------------------------------------------------
 Rotational constants (GHZ):      1.1674333      0.8168294      0.5468062
 Standard basis: 6-31G(d) (6D, 7F)
 There are   204 symmetry adapted cartesian basis functions of A   symmetry.
 There are   204 symmetry adapted basis functions of A   symmetry.
   204 basis functions,   384 primitive gaussians,   204 cartesian basis functions
    48 alpha electrons       48 beta electrons
       nuclear repulsion energy       827.6145065059 Hartrees.
 NAtoms=   24 NActive=   24 NUniq=   24 SFac= 1.00D+00 NAtFMM=   60 NAOKFM=F Big=F
 Integral buffers will be    131072 words long.
 Raffenetti 2 integral format.
 Two-electron integral symmetry is turned on.
 One-electron integrals computed using PRISM.
 NBasis=   204 RedAO= T EigKep=  1.55D-03  NBF=   204
 NBsUse=   204 1.00D-06 EigRej= -1.00D+00 NBFU=   204
 ExpMin= 1.61D-01 ExpMax= 5.48D+03 ExpMxC= 8.25D+02 IAcc=1 IRadAn=         1 AccDes= 0.00D+00
 Harris functional with IExCor=  402 and IRadAn=       1 diagonalized for initial guess.
 HarFok:  IExCor=  402 AccDes= 0.00D+00 IRadAn=         1 IDoV= 1 UseB2=F ITyADJ=14
 ICtDFT=  3500011 ScaDFX=  1.000000  1.000000  1.000000  1.000000
 FoFCou: FMM=F IPFlag=           0 FMFlag=      100000 FMFlg1=           0
         NFxFlg=           0 DoJE=T BraDBF=F KetDBF=T FulRan=T
         wScrn=  0.000000 ICntrl=     500 IOpCl=  0 I1Cent=   200000004 NGrid=           0
         NMat0=    1 NMatS0=      1 NMatT0=    0 NMatD0=    1 NMtDS0=    0 NMtDT0=    0
 Petite list used in FoFCou.
 Requested convergence on RMS density matrix=1.00D-08 within 128 cycles.
 Requested convergence on MAX density matrix=1.00D-06.
 Requested convergence on             energy=1.00D-06.
 No special actions if energy rises.
 Integral accuracy reduced to 1.0D-05 until final iterations.
 Initial convergence to 1.0D-05 achieved.  Increase integral accuracy.
 SCF Done:  E(RB3LYP) =  -687.127088527     A.U. after   14 cycles
            NFock= 14  Conv=0.34D-08     -V/T= 2.0088

 **********************************************************************

            Population analysis using the SCF density.

 **********************************************************************

 Orbital symmetries:
       Occupied  (A) (A) (A) (A) (A) (A) (A) (A) (A) (A) (A) (A)
                 (A) (A) (A) (A) (A) (A) (A) (A) (A) (A) (A) (A)
                 (A) (A) (A) (A) (A) (A) (A) (A) (A) (A) (A) (A)
                 (A) (A) (A) (A) (A) (A) (A) (A) (A) (A) (A) (A)
       Virtual   (A) (A) (A) (A) (A) (A) (A) (A) (A) (A) (A) (A)
                 (A) (A) (A) (A) (A) (A) (A) (A) (A) (A) (A) (A)
                 (A) (A) (A) (A) (A) (A) (A) (A) (A) (A) (A) (A)
                 (A) (A) (A) (A) (A) (A) (A) (A) (A) (A) (A) (A)
                 (A) (A) (A) (A) (A) (A) (A) (A) (A) (A) (A) (A)
                 (A) (A) (A) (A) (A) (A) (A) (A) (A) (A) (A) (A)
                 (A) (A) (A) (A) (A) (A) (A) (A) (A) (A) (A) (A)
                 (A) (A) (A) (A) (A) (A) (A) (A) (A) (A) (A) (A)
                 (A) (A) (A) (A) (A) (A) (A) (A) (A) (A) (A) (A)
                 (A) (A) (A) (A) (A) (A) (A) (A) (A) (A) (A) (A)
                 (A) (A) (A) (A) (A) (A) (A) (A) (A) (A) (A) (A)
                 (A) (A) (A) (A) (A) (A) (A) (A) (A) (A) (A) (A)
                 (A) (A) (A) (A) (A) (A) (A) (A) (A) (A) (A) (A)
 The electronic state is 1-A.
 Alpha  occ. eigenvalues --  -19.16017 -19.15734 -19.15605 -19.15330 -19.14714
 Alpha  occ. eigenvalues --  -19.13970 -10.29472 -10.24577 -10.23974 -10.23973
 Alpha  occ. eigenvalues --  -10.23698 -10.23345  -1.06288  -1.03464  -1.02786
 Alpha  occ. eigenvalues --   -1.01615  -0.99861  -0.99706  -0.78050  -0.76701
 Alpha  occ. eigenvalues --   -0.69184  -0.63893  -0.62147  -0.56503  -0.54821
 Alpha  occ. eigenvalues --   -0.54487  -0.51520  -0.51072  -0.48134  -0.47368
 Alpha  occ. eigenvalues --   -0.45462  -0.44410  -0.43900  -0.42803  -0.41453
 Alpha  occ. eigenvalues --   -0.40325  -0.37530  -0.36825  -0.35415  -0.34217
 Alpha  occ. eigenvalues --   -0.32740  -0.31801  -0.30829  -0.28304  -0.27345
 Alpha  occ. eigenvalues --   -0.27181  -0.26453  -0.25721
 Alpha virt. eigenvalues --    0.04186   0.05471   0.07579   0.09971   0.10296
 Alpha virt. eigenvalues --    0.10635   0.12649   0.13992   0.14646   0.15639
 Alpha virt. eigenvalues --    0.16556   0.17191   0.17599   0.19789   0.20083
 Alpha virt. eigenvalues --    0.21101   0.21784   0.24468   0.25135   0.29091
 Alpha virt. eigenvalues --    0.29886   0.31189   0.31659   0.33497   0.51495
 Alpha virt. eigenvalues --    0.53638   0.54260   0.55916   0.56710   0.58579
 Alpha virt. eigenvalues --    0.59521   0.60294   0.64163   0.64812   0.65744
 Alpha virt. eigenvalues --    0.68232   0.70555   0.71874   0.74133   0.75705
 Alpha virt. eigenvalues --    0.77656   0.79234   0.80177   0.80830   0.81465
 Alpha virt. eigenvalues --    0.82617   0.84237   0.85280   0.85611   0.88705
 Alpha virt. eigenvalues --    0.88949   0.89475   0.89893   0.91121   0.93059
 Alpha virt. eigenvalues --    0.93414   0.95998   0.98279   0.99012   1.01239
 Alpha virt. eigenvalues --    1.01851   1.04949   1.07216   1.08237   1.09274
 Alpha virt. eigenvalues --    1.10605   1.11865   1.13325   1.19966   1.21314
 Alpha virt. eigenvalues --    1.22622   1.23581   1.29078   1.31284   1.33370
 Alpha virt. eigenvalues --    1.33883   1.37328   1.39436   1.43427   1.50983
 Alpha virt. eigenvalues --    1.53515   1.55214   1.56289   1.60637   1.61369
 Alpha virt. eigenvalues --    1.64889   1.66379   1.68283   1.70343   1.71116
 Alpha virt. eigenvalues --    1.73710   1.74121   1.76165   1.78626   1.79380
 Alpha virt. eigenvalues --    1.83672   1.84711   1.87475   1.88215   1.89548
 Alpha virt. eigenvalues --    1.89944   1.91409   1.93171   1.96604   1.97678
 Alpha virt. eigenvalues --    2.00800   2.02274   2.05489   2.06371   2.07873
 Alpha virt. eigenvalues --    2.09658   2.12896   2.14411   2.19402   2.23281
 Alpha virt. eigenvalues --    2.26123   2.27447   2.29716   2.31502   2.36139
 Alpha virt. eigenvalues --    2.37951   2.39930   2.41146   2.43953   2.46695
 Alpha virt. eigenvalues --    2.49325   2.50667   2.52300   2.53757   2.55573
 Alpha virt. eigenvalues --    2.58084   2.61781   2.64061   2.66042   2.70887
 Alpha virt. eigenvalues --    2.71880   2.79757   2.87154   2.88262   2.91149
 Alpha virt. eigenvalues --    2.94928   2.97957   3.04141   3.06594   3.70984
 Alpha virt. eigenvalues --    3.75283   3.80754   3.89883   3.90732   4.10365
 Alpha virt. eigenvalues --    4.25698   4.35302   4.39835   4.50971   4.69752
 Alpha virt. eigenvalues --    4.73488
          Condensed to atoms (all electrons):
               1          2          3          4          5          6
     1  H    0.587409   0.363639  -0.002878   0.003113   0.000211  -0.028160
     2  C    0.363639   4.965268  -0.036439  -0.019291  -0.014018   0.225211
     3  C   -0.002878  -0.036439   4.981606  -0.030867   0.311341  -0.001994
     4  C    0.003113  -0.019291  -0.030867   4.734161   0.290146   0.234925
     5  C    0.000211  -0.014018   0.311341   0.290146   4.976260  -0.042091
     6  O   -0.028160   0.225211  -0.001994   0.234925  -0.042091   8.289727
     7  C   -0.045625   0.262266   0.287768  -0.015516  -0.016163  -0.034878
     8  H   -0.000123   0.003501   0.000853   0.373834  -0.047286  -0.038044
     9  H    0.000024   0.001011  -0.043635  -0.049244   0.349970   0.002436
    10  H    0.006156  -0.057562  -0.047912   0.000561  -0.004104   0.002826
    11  C   -0.051859   0.324899   0.002425  -0.002174   0.000068  -0.040181
    12  H   -0.007152  -0.032438  -0.000066  -0.000314   0.000100   0.003248
    13  H    0.006021  -0.031754  -0.000289   0.001037  -0.000375   0.000925
    14  O   -0.000200  -0.000465   0.002105   0.213582  -0.038961  -0.072433
    15  H    0.000013  -0.000281  -0.000269  -0.016542   0.007064   0.004482
    16  H    0.000744  -0.001264   0.347481  -0.002463  -0.041674   0.003048
    17  O    0.004258  -0.042478   0.000246  -0.000006   0.000003   0.000969
    18  H   -0.000242   0.005273  -0.000002  -0.000004   0.000000  -0.000087
    19  O    0.000002   0.000024  -0.028865  -0.026487   0.216944   0.000930
    20  H    0.000000  -0.000062  -0.010769   0.005190  -0.028340  -0.000130
    21  O   -0.000069   0.003689   0.215535   0.002369  -0.035530   0.000113
    22  H   -0.000001   0.000636  -0.028691  -0.000246   0.006129  -0.000015
    23  O    0.003384  -0.033144  -0.031609   0.000103   0.001891   0.001409
    24  H    0.002533  -0.003970   0.005505   0.000013  -0.000196  -0.000012
               7          8          9         10         11         12
     1  H   -0.045625  -0.000123   0.000024   0.006156  -0.051859  -0.007152
     2  C    0.262266   0.003501   0.001011  -0.057562   0.324899  -0.032438
     3  C    0.287768   0.000853  -0.043635  -0.047912   0.002425  -0.000066
     4  C   -0.015516   0.373834  -0.049244   0.000561  -0.002174  -0.000314
     5  C   -0.016163  -0.047286   0.349970  -0.004104   0.000068   0.000100
     6  O   -0.034878  -0.038044   0.002436   0.002826  -0.040181   0.003248
     7  C    5.064945   0.000035  -0.003380   0.359709  -0.040581   0.006453
     8  H    0.000035   0.580315   0.005494   0.000018  -0.000014  -0.000021
     9  H   -0.003380   0.005494   0.612761   0.005930  -0.000092  -0.000009
    10  H    0.359709   0.000018   0.005930   0.630176  -0.002852   0.000469
    11  C   -0.040581  -0.000014  -0.000092  -0.002852   4.973304   0.359178
    12  H    0.006453  -0.000021  -0.000009   0.000469   0.359178   0.629887
    13  H   -0.010444   0.000141   0.000517   0.002588   0.362516  -0.050136
    14  O   -0.000371  -0.036628   0.003184  -0.000029   0.003398   0.000503
    15  H    0.000041  -0.010772   0.000014   0.000003   0.000055   0.000098
    16  H   -0.042464   0.000591   0.006911   0.007185   0.000138   0.000006
    17  O    0.007602   0.000001  -0.000003   0.002818   0.197749  -0.036901
    18  H   -0.000190   0.000000   0.000000  -0.000165  -0.020361  -0.004970
    19  O    0.004016   0.004933  -0.042224  -0.000051   0.000002   0.000000
    20  H    0.000780  -0.000275  -0.001832  -0.000014   0.000001   0.000000
    21  O   -0.033643  -0.000063  -0.000378   0.000802  -0.000034   0.000000
    22  H   -0.011104   0.000004  -0.000154  -0.000099  -0.000022   0.000000
    23  O    0.196144   0.000003  -0.000072  -0.046324   0.002089  -0.000148
    24  H   -0.022038   0.000000   0.000006  -0.003033  -0.001553   0.000030
              13         14         15         16         17         18
     1  H    0.006021  -0.000200   0.000013   0.000744   0.004258  -0.000242
     2  C   -0.031754  -0.000465  -0.000281  -0.001264  -0.042478   0.005273
     3  C   -0.000289   0.002105  -0.000269   0.347481   0.000246  -0.000002
     4  C    0.001037   0.213582  -0.016542  -0.002463  -0.000006  -0.000004
     5  C   -0.000375  -0.038961   0.007064  -0.041674   0.000003   0.000000
     6  O    0.000925  -0.072433   0.004482   0.003048   0.000969  -0.000087
     7  C   -0.010444  -0.000371   0.000041  -0.042464   0.007602  -0.000190
     8  H    0.000141  -0.036628  -0.010772   0.000591   0.000001   0.000000
     9  H    0.000517   0.003184   0.000014   0.006911  -0.000003   0.000000
    10  H    0.002588  -0.000029   0.000003   0.007185   0.002818  -0.000165
    11  C    0.362516   0.003398   0.000055   0.000138   0.197749  -0.020361
    12  H   -0.050136   0.000503   0.000098   0.000006  -0.036901  -0.004970
    13  H    0.601718   0.007826  -0.000217   0.000001  -0.039340  -0.003665
    14  O    0.007826   8.297384   0.229798   0.000041   0.000049   0.000002
    15  H   -0.000217   0.229798   0.385351   0.000006  -0.000001  -0.000001
    16  H    0.000001   0.000041   0.000006   0.623317  -0.000004   0.000000
    17  O   -0.039340   0.000049  -0.000001  -0.000004   8.301389   0.237035
    18  H   -0.003665   0.000002  -0.000001   0.000000   0.237035   0.384068
    19  O    0.000001   0.000810  -0.000194   0.000941   0.000000   0.000000
    20  H    0.000000  -0.000137   0.000015  -0.000241   0.000000   0.000000
    21  O   -0.000014  -0.000005   0.000001  -0.047998   0.000000   0.000000
    22  H    0.000000   0.000001   0.000000  -0.001447   0.000000   0.000000
    23  O    0.000055   0.000000   0.000000   0.000022  -0.001335   0.000053
    24  H    0.000215   0.000000   0.000000  -0.000175   0.008831  -0.000238
              19         20         21         22         23         24
     1  H    0.000002   0.000000  -0.000069  -0.000001   0.003384   0.002533
     2  C    0.000024  -0.000062   0.003689   0.000636  -0.033144  -0.003970
     3  C   -0.028865  -0.010769   0.215535  -0.028691  -0.031609   0.005505
     4  C   -0.026487   0.005190   0.002369  -0.000246   0.000103   0.000013
     5  C    0.216944  -0.028340  -0.035530   0.006129   0.001891  -0.000196
     6  O    0.000930  -0.000130   0.000113  -0.000015   0.001409  -0.000012
     7  C    0.004016   0.000780  -0.033643  -0.011104   0.196144  -0.022038
     8  H    0.004933  -0.000275  -0.000063   0.000004   0.000003   0.000000
     9  H   -0.042224  -0.001832  -0.000378  -0.000154  -0.000072   0.000006
    10  H   -0.000051  -0.000014   0.000802  -0.000099  -0.046324  -0.003033
    11  C    0.000002   0.000001  -0.000034  -0.000022   0.002089  -0.001553
    12  H    0.000000   0.000000   0.000000   0.000000  -0.000148   0.000030
    13  H    0.000001   0.000000  -0.000014   0.000000   0.000055   0.000215
    14  O    0.000810  -0.000137  -0.000005   0.000001   0.000000   0.000000
    15  H   -0.000194   0.000015   0.000001   0.000000   0.000000   0.000000
    16  H    0.000941  -0.000241  -0.047998  -0.001447   0.000022  -0.000175
    17  O    0.000000   0.000000   0.000000   0.000000  -0.001335   0.008831
    18  H    0.000000   0.000000   0.000000   0.000000   0.000053  -0.000238
    19  O    8.296372   0.236318  -0.004124   0.000031  -0.000011   0.000001
    20  H    0.236318   0.368457   0.018742  -0.000640  -0.000004   0.000000
    21  O   -0.004124   0.018742   8.316845   0.236106  -0.003856   0.000043
    22  H    0.000031  -0.000640   0.236106   0.365735   0.020207  -0.000737
    23  O   -0.000011  -0.000004  -0.003856   0.020207   8.319667   0.233003
    24  H    0.000001   0.000000   0.000043  -0.000737   0.233003   0.372437
 Mulliken charges:
               1
     1  H    0.158803
     2  C    0.117748
     3  C    0.109420
     4  C    0.304122
     5  C    0.108610
     6  O   -0.512223
     7  C    0.086641
     8  H    0.163502
     9  H    0.152766
    10  H    0.142906
    11  C   -0.066096
    12  H    0.132181
    13  H    0.152671
    14  O   -0.609453
    15  H    0.401337
    16  H    0.147298
    17  O   -0.640883
    18  H    0.403494
    19  O   -0.659368
    20  H    0.412942
    21  O   -0.668531
    22  H    0.414306
    23  O   -0.661528
    24  H    0.409335
 Sum of Mulliken charges =   0.00000
 Mulliken charges with hydrogens summed into heavy atoms:
               1
     2  C    0.276551
     3  C    0.256718
     4  C    0.467625
     5  C    0.261376
     6  O   -0.512223
     7  C    0.229546
    11  C    0.218756
    14  O   -0.208116
    17  O   -0.237388
    19  O   -0.246426
    21  O   -0.254226
    23  O   -0.252193
 Electronic spatial extent (au):  <R**2>=           2089.3007
 Charge=              0.0000 electrons
 Dipole moment (field-independent basis, Debye):
    X=             -2.7115    Y=             -1.3623    Z=             -0.6424  Tot=              3.1018
 Quadrupole moment (field-independent basis, Debye-Ang):
   XX=            -66.7000   YY=            -63.1516   ZZ=            -72.3224
   XY=              2.8153   XZ=              3.9986   YZ=             -0.6427
 Traceless Quadrupole moment (field-independent basis, Debye-Ang):
   XX=              0.6913   YY=              4.2398   ZZ=             -4.9311
   XY=              2.8153   XZ=              3.9986   YZ=             -0.6427
 Octapole moment (field-independent basis, Debye-Ang**2):
  XXX=            -46.6297  YYY=            -23.9623  ZZZ=             -6.0309  XYY=              1.2939
  XXY=             -1.5232  XXZ=            -15.2230  XZZ=             -6.5567  YZZ=              1.8940
  YYZ=              4.0352  XYZ=             -5.7581
 Hexadecapole moment (field-independent basis, Debye-Ang**3):
 XXXX=          -1210.1802 YYYY=           -714.0781 ZZZZ=           -220.6503 XXXY=             79.5711
 XXXZ=             51.6622 YYYX=            -29.3004 YYYZ=            -25.2621 ZZZX=             11.3616
 ZZZY=              5.2574 XXYY=           -344.5526 XXZZ=           -229.3281 YYZZ=           -201.1138
 XXYZ=             17.3094 YYXZ=             17.8471 ZZXY=              2.3652
 N-N= 8.276145065059D+02 E-N=-3.267114690113D+03  KE= 6.811423478250D+02
 Calling FoFJK, ICntrl=      2127 FMM=F ISym2X=0 I1Cent= 0 IOpClX= 0 NMat=1 NMatS=1 NMatT=0.
 ***** Axes restored to original set *****
 -------------------------------------------------------------------
 Center     Atomic                   Forces (Hartrees/Bohr)
 Number     Number              X              Y              Z
 -------------------------------------------------------------------
      1        1           0.003311119    0.003460315    0.001866777
      2        6          -0.003930676    0.009370879    0.010245234
      3        6           0.007560907   -0.014253546   -0.006458690
      4        6          -0.016865379   -0.011731665   -0.009709428
      5        6           0.018029925   -0.002095741    0.009453706
      6        8           0.007574132    0.000691525    0.001147492
      7        6           0.001833043   -0.007275813   -0.004333297
      8        1           0.005135064   -0.003337775   -0.008437702
      9        1          -0.008633601   -0.005157312   -0.005114461
     10        1          -0.003007005    0.005092628    0.006247874
     11        6          -0.011220813    0.000364404    0.006136600
     12        1           0.001441710    0.006585379   -0.000240485
     13        1           0.003166749    0.005591851    0.003014602
     14        8           0.008430807    0.005737468    0.007063971
     15        1          -0.003219383   -0.005749074    0.000431083
     16        1          -0.009012201    0.005973486   -0.002224446
     17        8           0.002806750   -0.005104047   -0.005968037
     18        1           0.006582320   -0.000146540   -0.002243902
     19        8          -0.003265662    0.001178856   -0.005724932
     20        1          -0.004916132    0.003924147   -0.000671335
     21        8          -0.005962989   -0.001251835   -0.000313416
     22        1          -0.000062675    0.004161557    0.005563637
     23        8          -0.001303175    0.002565015   -0.003163314
     24        1           0.005527163    0.001405837    0.003432470
 -------------------------------------------------------------------
 Cartesian Forces:  Max     0.018029925 RMS     0.006287043

 GradGradGradGradGradGradGradGradGradGradGradGradGradGradGradGradGradGrad
 Berny optimization.
 FormGI is forming the generalized inverse of G from B-inverse, IUseBI=4.
 Internal  Forces:  Max     0.020586259 RMS     0.004680715
 Search for a local minimum.
 Step number   1 out of a maximum of  144
 All quantities printed in internal units (Hartrees-Bohrs-Radians)
 Mixed Optimization -- RFO/linear search
 Second derivative matrix not updated -- first step.
 ITU=  0
     Eigenvalues ---    0.00349   0.00366   0.00590   0.01151   0.01157
     Eigenvalues ---    0.01167   0.01211   0.01348   0.01412   0.02978
     Eigenvalues ---    0.03207   0.04249   0.04541   0.04613   0.04853
     Eigenvalues ---    0.05063   0.05070   0.05236   0.05619   0.05678
     Eigenvalues ---    0.06356   0.06914   0.07139   0.07324   0.07414
     Eigenvalues ---    0.09409   0.11399   0.11467   0.12384   0.13781
     Eigenvalues ---    0.16000   0.16000   0.16000   0.16000   0.16000
     Eigenvalues ---    0.16123   0.17245   0.17598   0.18723   0.19973
     Eigenvalues ---    0.21235   0.21988   0.26452   0.28082   0.28780
     Eigenvalues ---    0.29091   0.29283   0.33983   0.33991   0.33995
     Eigenvalues ---    0.34012   0.34153   0.34221   0.34341   0.35348
     Eigenvalues ---    0.36994   0.39530   0.39626   0.40087   0.41573
     Eigenvalues ---    0.42290   0.51481   0.51568   0.51802   0.52466
     Eigenvalues ---    0.52909
 RFO step:  Lambda=-1.74654437D-02 EMin= 3.48863603D-03
 Linear search not attempted -- first point.
 Iteration  1 RMS(Cart)=  0.06406197 RMS(Int)=  0.00220322
 Iteration  2 RMS(Cart)=  0.00284101 RMS(Int)=  0.00064911
 Iteration  3 RMS(Cart)=  0.00000589 RMS(Int)=  0.00064909
 Iteration  4 RMS(Cart)=  0.00000001 RMS(Int)=  0.00064909
 Variable       Old X    -DE/DX   Delta X   Delta X   Delta X     New X
                                 (Linear)    (Quad)   (Total)
    R1        2.07338  -0.00187   0.00000  -0.00523  -0.00523   2.06816
    R2        2.75852  -0.01350   0.00000  -0.04237  -0.04262   2.71590
    R3        2.90465   0.00369   0.00000   0.01159   0.01151   2.91616
    R4        2.89417  -0.00490   0.00000  -0.01580  -0.01580   2.87838
    R5        2.87917  -0.00659   0.00000  -0.01480  -0.01484   2.86433
    R6        2.88409  -0.01052   0.00000  -0.02442  -0.02419   2.85990
    R7        2.07358   0.00090   0.00000   0.00251   0.00251   2.07609
    R8        2.72198  -0.00411   0.00000  -0.00995  -0.00995   2.71203
    R9        2.90465  -0.00399   0.00000  -0.01259  -0.01253   2.89212
   R10        2.73622  -0.01484   0.00000  -0.04186  -0.04180   2.69442
   R11        2.07072  -0.00198   0.00000  -0.00551  -0.00551   2.06521
   R12        2.68556   0.00034   0.00000   0.00078   0.00078   2.68633
   R13        2.07310   0.00145   0.00000   0.00406   0.00406   2.07716
   R14        2.72065  -0.00538   0.00000  -0.01301  -0.01301   2.70764
   R15        2.07345   0.00176   0.00000   0.00492   0.00492   2.07837
   R16        2.71435  -0.00067   0.00000  -0.00160  -0.00160   2.71276
   R17        2.06959   0.00288   0.00000   0.00801   0.00801   2.07761
   R18        2.06758   0.00250   0.00000   0.00693   0.00693   2.07451
   R19        2.69470   0.00670   0.00000   0.01547   0.01547   2.71017
   R20        1.83738  -0.00350   0.00000  -0.00640  -0.00640   1.83099
   R21        1.84156  -0.00659   0.00000  -0.01215  -0.01215   1.82941
   R22        1.85016  -0.00633   0.00000  -0.01187  -0.01187   1.83829
   R23        1.85100  -0.00680   0.00000  -0.01278  -0.01278   1.83821
   R24        1.84790  -0.00616   0.00000  -0.01151  -0.01151   1.83639
    A1        1.83753  -0.00238   0.00000  -0.02782  -0.02764   1.80989
    A2        1.89644  -0.00132   0.00000  -0.01507  -0.01490   1.88154
    A3        1.87248   0.00215   0.00000   0.01104   0.01103   1.88352
    A4        1.96029   0.00468   0.00000   0.01845   0.01810   1.97839
    A5        1.93919  -0.00138   0.00000   0.00514   0.00499   1.94417
    A6        1.95164  -0.00187   0.00000   0.00530   0.00516   1.95680
    A7        1.93508  -0.00217   0.00000  -0.01337  -0.01382   1.92126
    A8        1.93298  -0.00004   0.00000  -0.02038  -0.02065   1.91233
    A9        1.90152  -0.00511   0.00000  -0.03779  -0.03715   1.86437
   A10        1.93565  -0.00262   0.00000  -0.01959  -0.02059   1.91506
   A11        1.91654   0.00561   0.00000   0.02317   0.02239   1.93893
   A12        1.83947   0.00468   0.00000   0.07183   0.07174   1.91121
   A13        1.96365   0.00373   0.00000   0.01332   0.01275   1.97640
   A14        1.92826  -0.00129   0.00000  -0.02687  -0.02709   1.90117
   A15        1.92750  -0.01066   0.00000  -0.03578  -0.03612   1.89138
   A16        1.87012  -0.00647   0.00000  -0.06665  -0.06778   1.80234
   A17        1.88705   0.00903   0.00000   0.06981   0.07020   1.95724
   A18        1.88449   0.00617   0.00000   0.04924   0.04939   1.93388
   A19        1.94262   0.00069   0.00000   0.00031  -0.00010   1.94252
   A20        1.92250  -0.00169   0.00000  -0.01875  -0.02000   1.90250
   A21        1.89781   0.00424   0.00000   0.02607   0.02592   1.92373
   A22        1.92728  -0.00143   0.00000  -0.02787  -0.02735   1.89993
   A23        1.93467  -0.00719   0.00000  -0.05097  -0.05075   1.88392
   A24        1.83594   0.00566   0.00000   0.07536   0.07497   1.91091
   A25        2.08526  -0.00489   0.00000  -0.03138  -0.03156   2.05369
   A26        1.94196  -0.00312   0.00000  -0.01703  -0.01703   1.92494
   A27        1.94056  -0.00109   0.00000  -0.00569  -0.00664   1.93392
   A28        1.94721   0.00472   0.00000   0.01749   0.01694   1.96415
   A29        1.89703   0.00103   0.00000  -0.01058  -0.01048   1.88655
   A30        1.89429  -0.00424   0.00000  -0.03347  -0.03338   1.86091
   A31        1.83908   0.00288   0.00000   0.05137   0.05121   1.89029
   A32        1.92442   0.00029   0.00000  -0.01660  -0.01588   1.90854
   A33        1.94677  -0.00033   0.00000  -0.02013  -0.01936   1.92742
   A34        1.91666  -0.02059   0.00000  -0.08787  -0.08791   1.82875
   A35        1.88080  -0.00048   0.00000   0.00866   0.00664   1.88744
   A36        1.90224   0.01061   0.00000   0.05814   0.05615   1.95839
   A37        1.89190   0.01141   0.00000   0.06309   0.06104   1.95295
   A38        1.83596   0.00836   0.00000   0.04710   0.04710   1.88306
   A39        1.85935   0.00385   0.00000   0.02168   0.02168   1.88103
   A40        1.82581  -0.00003   0.00000  -0.00015  -0.00015   1.82565
   A41        1.82368   0.00246   0.00000   0.01384   0.01384   1.83752
   A42        1.84860   0.00110   0.00000   0.00620   0.00620   1.85480
    D1       -2.84588   0.00119   0.00000   0.02212   0.02226  -2.82361
    D2       -0.78504   0.00062   0.00000  -0.00326  -0.00319  -0.78823
    D3        1.41575   0.00067   0.00000   0.02219   0.02234   1.43809
    D4        1.90192  -0.00240   0.00000  -0.05668  -0.05680   1.84512
    D5       -2.26400  -0.00399   0.00000  -0.08587  -0.08584  -2.34983
    D6       -0.21646   0.00193   0.00000  -0.01405  -0.01402  -0.23048
    D7       -0.12373  -0.00137   0.00000  -0.02386  -0.02396  -0.14769
    D8        1.99354  -0.00296   0.00000  -0.05305  -0.05299   1.94055
    D9       -2.24211   0.00296   0.00000   0.01877   0.01882  -2.22328
   D10       -2.31776  -0.00172   0.00000  -0.04948  -0.04966  -2.36741
   D11       -0.20049  -0.00331   0.00000  -0.07867  -0.07869  -0.27918
   D12        1.84705   0.00261   0.00000  -0.00685  -0.00688   1.84018
   D13       -1.08854   0.00008   0.00000   0.00092   0.00052  -1.08801
   D14        3.10564   0.00070   0.00000   0.01417   0.01462   3.12026
   D15        1.00786   0.00032   0.00000   0.00659   0.00658   1.01444
   D16        0.91133  -0.00225   0.00000  -0.02328  -0.02359   0.88773
   D17       -1.17768  -0.00163   0.00000  -0.01004  -0.00949  -1.18717
   D18        3.00772  -0.00201   0.00000  -0.01761  -0.01754   2.99019
   D19        3.11690   0.00143   0.00000   0.00931   0.00878   3.12568
   D20        1.02790   0.00205   0.00000   0.02256   0.02288   1.05078
   D21       -1.06988   0.00167   0.00000   0.01498   0.01484  -1.05505
   D22       -0.96996   0.00190   0.00000   0.01488   0.01446  -0.95549
   D23        1.17378  -0.00064   0.00000  -0.03358  -0.03350   1.14028
   D24       -3.10602   0.00759   0.00000   0.06097   0.06083  -3.04519
   D25        1.18660  -0.00303   0.00000  -0.03416  -0.03458   1.15202
   D26       -2.95285  -0.00557   0.00000  -0.08263  -0.08255  -3.03540
   D27       -0.94947   0.00266   0.00000   0.01192   0.01178  -0.93768
   D28       -3.08105  -0.00038   0.00000   0.01911   0.01864  -3.06241
   D29       -0.93732  -0.00292   0.00000  -0.02936  -0.02932  -0.96664
   D30        1.06607   0.00531   0.00000   0.06519   0.06501   1.13108
   D31        0.96958  -0.00071   0.00000   0.01943   0.01916   0.98874
   D32       -1.17292   0.00199   0.00000   0.04489   0.04498  -1.12794
   D33        3.11858   0.00027   0.00000   0.00739   0.00765   3.12623
   D34       -1.18544   0.00274   0.00000   0.06899   0.06832  -1.11713
   D35        2.95524   0.00544   0.00000   0.09446   0.09414   3.04938
   D36        0.96355   0.00373   0.00000   0.05695   0.05681   1.02036
   D37        3.07178  -0.00481   0.00000  -0.02116  -0.02156   3.05022
   D38        0.92927  -0.00211   0.00000   0.00431   0.00427   0.93354
   D39       -1.06242  -0.00382   0.00000  -0.03320  -0.03306  -1.09548
   D40        2.95943  -0.00050   0.00000   0.00230   0.00258   2.96201
   D41        0.83703   0.00191   0.00000   0.02827   0.02938   0.86641
   D42       -1.24877  -0.00057   0.00000  -0.00152  -0.00291  -1.25168
   D43        0.12114  -0.00445   0.00000  -0.05030  -0.05059   0.07056
   D44       -2.01985  -0.00177   0.00000  -0.00700  -0.00689  -2.02674
   D45        2.23579  -0.00352   0.00000  -0.05191  -0.05207   2.18373
   D46       -1.96807   0.00217   0.00000   0.04409   0.04397  -1.92410
   D47        2.17413   0.00486   0.00000   0.08739   0.08766   2.26179
   D48        0.14658   0.00310   0.00000   0.04248   0.04249   0.18907
   D49        2.23142   0.00213   0.00000   0.02285   0.02227   2.25369
   D50        0.09043   0.00481   0.00000   0.06615   0.06597   0.15640
   D51       -1.93712   0.00306   0.00000   0.02124   0.02079  -1.91632
   D52        0.78643   0.00220   0.00000   0.04336   0.04347   0.82989
   D53        2.90907  -0.00147   0.00000  -0.02700  -0.02591   2.88316
   D54       -1.34687   0.00694   0.00000   0.03127   0.02961  -1.31727
   D55        2.60336  -0.00072   0.00000   0.03975   0.03955   2.64290
   D56       -1.52451   0.00310   0.00000   0.07976   0.07863  -1.44588
   D57        0.49336   0.00339   0.00000   0.06324   0.06458   0.55794
   D58       -0.81132  -0.00140   0.00000  -0.01717  -0.01845  -0.82977
   D59       -2.95219  -0.00045   0.00000  -0.00204  -0.00241  -2.95460
   D60        1.24769   0.00169   0.00000   0.01355   0.01518   1.26288
   D61       -1.00783  -0.00374   0.00000  -0.07165  -0.07212  -1.07995
   D62        3.12952   0.00002   0.00000  -0.03864  -0.03893   3.09059
   D63        1.10010  -0.00064   0.00000  -0.03679  -0.03602   1.06407
   D64       -3.08503  -0.00051   0.00000  -0.01453  -0.01461  -3.09964
   D65       -0.97520  -0.00620   0.00000  -0.05273  -0.05541  -1.03062
   D66        1.06737   0.00539   0.00000   0.02458   0.02735   1.09472
         Item               Value     Threshold  Converged?
 Maximum Force            0.020586     0.000450     NO 
 RMS     Force            0.004681     0.000300     NO 
 Maximum Displacement     0.237688     0.001800     NO 
 RMS     Displacement     0.064637     0.001200     NO 
 Predicted change in Energy=-1.032783D-02
 GradGradGradGradGradGradGradGradGradGradGradGradGradGradGradGradGradGrad

                          Input orientation:                          
 ---------------------------------------------------------------------
 Center     Atomic      Atomic             Coordinates (Angstroms)
 Number     Number       Type             X           Y           Z
 ---------------------------------------------------------------------
      1          1           0        0.016026    0.035164    0.035285
      2          6           0       -0.012514    0.018818    1.129213
      3          6           0        2.261478   -0.026579    2.186751
      4          6           0        0.541279    1.690857    2.831912
      5          6           0        1.730529    0.850621    3.303031
      6          8           0        0.141811    1.400251    1.494392
      7          6           0        1.145616   -0.876206    1.618120
      8          1           0        0.846031    2.739105    2.780484
      9          1           0        1.406201    0.211906    4.136735
     10          1           0        0.803087   -1.562325    2.406492
     11          6           0       -1.372352   -0.519715    1.554502
     12          1           0       -2.160616    0.158608    1.197786
     13          1           0       -1.437759   -0.574196    2.648981
     14          8           0       -0.523284    1.519431    3.758255
     15          1           0       -1.058866    2.326812    3.748956
     16          1           0        2.688013    0.603874    1.394564
     17          8           0       -1.458094   -1.816667    0.948379
     18          1           0       -2.327734   -2.185207    1.160713
     19          8           0        2.751999    1.747010    3.756964
     20          1           0        3.536234    1.184240    3.877646
     21          8           0        3.294150   -0.844225    2.756557
     22          1           0        3.501963   -1.506614    2.075176
     23          8           0        1.722097   -1.656791    0.560245
     24          1           0        1.013272   -2.233910    0.230319
 ---------------------------------------------------------------------
                    Distance matrix (angstroms):
                    1          2          3          4          5
     1  H    0.000000
     2  C    1.094422   0.000000
     3  C    3.110414   2.508284   0.000000
     4  C    3.292161   2.449813   2.514936   0.000000
     5  C    3.779239   2.907848   1.515740   1.530446   0.000000
     6  O    2.002068   1.437195   2.647300   1.425828   2.469270
     7  C    2.147542   1.543167   1.513392   2.903158   2.482535
     8  H    3.941614   3.296021   3.163071   1.092861   2.149829
     9  H    4.334249   3.330950   2.142618   2.153589   1.099185
    10  H    2.965478   2.190128   2.129250   3.291309   2.736099
    11  C    2.131550   1.523171   3.721242   3.190672   3.816156
    12  H    2.470712   2.153738   4.535115   3.509756   4.477940
    13  H    3.052248   2.166261   3.768010   3.013389   3.534959
    14  O    4.044059   3.069950   3.551714   1.421546   2.394621
    15  H    4.494262   3.644824   4.359314   1.950865   3.187274
    16  H    3.051324   2.775886   1.098618   2.802849   2.149396
    17  O    2.536937   2.343376   4.309664   4.455099   4.777670
    18  H    3.419042   3.196712   5.174292   5.103725   5.502298
    19  O    4.926140   4.187393   2.419049   2.397114   1.432819
    20  H    5.336289   4.637425   2.439306   3.212472   1.924072
    21  O    4.350258   3.785118   1.435143   3.743076   2.369820
    22  H    4.323193   3.946307   1.934362   4.422908   3.194083
    23  O    2.459466   2.477956   2.365173   4.214445   3.716189
    24  H    2.486209   2.633445   3.202805   4.732320   4.412522
                    6          7          8          9         10
     6  O    0.000000
     7  C    2.491022   0.000000
     8  H    1.985570   3.809372   0.000000
     9  H    3.161143   2.755959   2.922318   0.000000
    10  H    3.169554   1.099824   4.317872   2.550566   0.000000
    11  C    2.445930   2.543874   4.128458   3.863101   2.558409
    12  H    2.632646   3.489799   4.266594   4.621953   3.634023
    13  H    2.779668   2.797804   4.026283   3.304463   2.461014
    14  O    2.362548   3.620011   2.078140   2.361309   3.617146
    15  H    2.717204   4.433906   2.176363   3.271047   4.516023
    16  H    2.669705   2.149326   3.142114   3.052242   3.044562
    17  O    3.634060   2.848214   5.424082   4.741826   2.702540
    18  H    4.366407   3.739902   6.078265   5.342764   3.426658
    19  O    3.471680   3.746517   2.360186   2.076521   4.071085
    20  H    4.153152   3.881489   3.295233   2.355759   4.144636
    21  O    4.070378   2.431719   4.339829   2.566058   2.616029
    22  H    4.480826   2.481670   5.057427   3.405225   2.719707
    23  O    3.565872   1.435529   5.002085   4.047604   2.064492
    24  H    3.945181   1.945988   5.591261   4.625635   2.287123
                   11         12         13         14         15
    11  C    0.000000
    12  H    1.099423   0.000000
    13  H    1.097784   1.779183   0.000000
    14  O    3.120187   3.329970   2.539691   0.000000
    15  H    3.607855   3.524689   3.125596   0.968916   0.000000
    16  H    4.215992   4.873006   4.470280   4.091174   4.748766
    17  O    1.434162   2.111268   2.106228   4.460810   5.017074
    18  H    1.960023   2.350059   2.366930   4.871100   5.354189
    19  O    5.196071   5.762482   4.916268   3.283180   3.854727
    20  H    5.691632   6.378689   5.416855   4.075082   4.736768
    21  O    4.829749   5.761069   4.740828   4.600334   5.476228
    22  H    5.000402   5.967209   5.059596   5.309644   6.188526
    23  O    3.443414   4.333312   3.939482   5.035612   5.811258
    24  H    3.222286   4.090685   3.822582   5.375399   6.121662
                   16         17         18         19         20
    16  H    0.000000
    17  O    4.821649   0.000000
    18  H    5.743812   0.968081   0.000000
    19  O    2.625222   6.189736   6.928675   0.000000
    20  H    2.687378   6.521454   7.288417   0.972779   0.000000
    21  O    2.078321   5.176772   5.995876   2.830061   2.330261
    22  H    2.362183   5.095878   5.939874   3.738574   3.238946
    23  O    2.596091   3.207775   4.128065   4.781796   4.729451
    24  H    3.494745   2.607173   3.468476   5.595367   5.599294
                   21         22         23         24
    21  O    0.000000
    22  H    0.972741   0.000000
    23  O    2.820532   2.342113   0.000000
    24  H    3.676344   3.182144   0.971777   0.000000
 Stoichiometry    C6H12O6
 Framework group  C1[X(C6H12O6)]
 Deg. of freedom    66
 Full point group                 C1      NOp   1
 Largest Abelian subgroup         C1      NOp   1
 Largest concise Abelian subgroup C1      NOp   1
                         Standard orientation:                         
 ---------------------------------------------------------------------
 Center     Atomic      Atomic             Coordinates (Angstroms)
 Number     Number       Type             X           Y           Z
 ---------------------------------------------------------------------
      1          1           0       -1.691090    0.154282    1.521327
      2          6           0       -1.160502   -0.203513    0.633511
      3          6           0        0.960989    1.050126    0.165373
      4          6           0        0.921903   -1.458812    0.334515
      5          6           0        1.588058   -0.243565   -0.314853
      6          8           0       -0.185876   -1.116629    1.164409
      7          6           0       -0.534148    1.020492   -0.067100
      8          1           0        1.625988   -1.918085    1.032853
      9          1           0        1.471109   -0.314802   -1.405474
     10          1           0       -0.710396    0.982189   -1.152035
     11          6           0       -2.167053   -0.920902   -0.256577
     12          1           0       -2.571609   -1.791540    0.279199
     13          1           0       -1.680934   -1.279269   -1.173305
     14          8           0        0.560022   -2.373135   -0.692056
     15          1           0        0.574574   -3.265412   -0.314661
     16          1           0        1.167158    1.183692    1.236174
     17          8           0       -3.174843    0.060944   -0.534352
     18          1           0       -3.860885   -0.363045   -1.069853
     19          8           0        2.981037   -0.272712    0.019407
     20          1           0        3.319009    0.594935   -0.262127
     21          8           0        1.578237    2.111637   -0.577482
     22          1           0        1.051051    2.904419   -0.377990
     23          8           0       -1.051768    2.263690    0.430163
     24          1           0       -2.003937    2.259334    0.235980
 ---------------------------------------------------------------------
 Rotational constants (GHZ):      1.1888797      0.8330145      0.5566862
 Standard basis: 6-31G(d) (6D, 7F)
 There are   204 symmetry adapted cartesian basis functions of A   symmetry.
 There are   204 symmetry adapted basis functions of A   symmetry.
   204 basis functions,   384 primitive gaussians,   204 cartesian basis functions
    48 alpha electrons       48 beta electrons
       nuclear repulsion energy       833.4911440782 Hartrees.
 NAtoms=   24 NActive=   24 NUniq=   24 SFac= 1.00D+00 NAtFMM=   60 NAOKFM=F Big=F
 Integral buffers will be    131072 words long.
 Raffenetti 2 integral format.
 Two-electron integral symmetry is turned on.
 One-electron integrals computed using PRISM.
 NBasis=   204 RedAO= T EigKep=  1.42D-03  NBF=   204
 NBsUse=   204 1.00D-06 EigRej= -1.00D+00 NBFU=   204
 Initial guess from the checkpoint file:  "/home/iawad/scratch/MAIN/PRO_Halides/direct/optfreq/boat1_Beta/boat1_Beta_optfreq_B3LYP_6-31G_d.chk"
 B after Tr=     0.000000    0.000000    0.000000
         Rot=    0.999952   -0.002431    0.001931   -0.009301 Ang=  -1.12 deg.
 ExpMin= 1.61D-01 ExpMax= 5.48D+03 ExpMxC= 8.25D+02 IAcc=1 IRadAn=         1 AccDes= 0.00D+00
 Harris functional with IExCor=  402 and IRadAn=       1 diagonalized for initial guess.
 HarFok:  IExCor=  402 AccDes= 0.00D+00 IRadAn=         1 IDoV= 1 UseB2=F ITyADJ=14
 ICtDFT=  3500011 ScaDFX=  1.000000  1.000000  1.000000  1.000000
 FoFCou: FMM=F IPFlag=           0 FMFlag=      100000 FMFlg1=           0
         NFxFlg=           0 DoJE=T BraDBF=F KetDBF=T FulRan=T
         wScrn=  0.000000 ICntrl=     500 IOpCl=  0 I1Cent=   200000004 NGrid=           0
         NMat0=    1 NMatS0=      1 NMatT0=    0 NMatD0=    1 NMtDS0=    0 NMtDT0=    0
 Petite list used in FoFCou.
 Requested convergence on RMS density matrix=1.00D-08 within 128 cycles.
 Requested convergence on MAX density matrix=1.00D-06.
 Requested convergence on             energy=1.00D-06.
 No special actions if energy rises.
 Integral accuracy reduced to 1.0D-05 until final iterations.
 Initial convergence to 1.0D-05 achieved.  Increase integral accuracy.
 SCF Done:  E(RB3LYP) =  -687.136413215     A.U. after   12 cycles
            NFock= 12  Conv=0.51D-08     -V/T= 2.0085
 Calling FoFJK, ICntrl=      2127 FMM=F ISym2X=0 I1Cent= 0 IOpClX= 0 NMat=1 NMatS=1 NMatT=0.
 ***** Axes restored to original set *****
 -------------------------------------------------------------------
 Center     Atomic                   Forces (Hartrees/Bohr)
 Number     Number              X              Y              Z
 -------------------------------------------------------------------
      1        1           0.000953784   -0.001032733   -0.000247350
      2        6          -0.001348188    0.006463544   -0.000253573
      3        6           0.007056217   -0.005214151    0.002261916
      4        6          -0.007927564    0.002338152   -0.004236583
      5        6           0.007541677    0.003417813    0.005002193
      6        8           0.001875448   -0.000682460    0.005376383
      7        6           0.002677729   -0.005161380   -0.003382087
      8        1           0.001063013    0.000383351    0.001041911
      9        1          -0.001156559   -0.001342103   -0.001136468
     10        1          -0.001587424    0.001772720    0.000884382
     11        6          -0.000285267   -0.002523592   -0.001263768
     12        1          -0.000004610   -0.000874674   -0.000667411
     13        1          -0.000446538   -0.000827516   -0.000335736
     14        8           0.005774921    0.000922876    0.000150575
     15        1          -0.001808580   -0.000936692   -0.002387970
     16        1          -0.001829369    0.001112584   -0.000724161
     17        8          -0.002001996    0.002326216    0.000788750
     18        1           0.000208364   -0.001657028    0.000095700
     19        8          -0.003663998   -0.003601766   -0.001897934
     20        1           0.000336029    0.000913949    0.000998345
     21        8          -0.003621314    0.002245522   -0.003022045
     22        1           0.000842237    0.000468669    0.000505952
     23        8          -0.003001678    0.002331998    0.001514500
     24        1           0.000353667   -0.000843300    0.000934480
 -------------------------------------------------------------------
 Cartesian Forces:  Max     0.007927564 RMS     0.002764244

 GradGradGradGradGradGradGradGradGradGradGradGradGradGradGradGradGradGrad
 Berny optimization.
 Using GEDIIS/GDIIS optimizer.
 FormGI is forming the generalized inverse of G from B-inverse, IUseBI=4.
 Internal  Forces:  Max     0.004549460 RMS     0.001241202
 Search for a local minimum.
 Step number   2 out of a maximum of  144
 All quantities printed in internal units (Hartrees-Bohrs-Radians)
 Mixed Optimization -- RFO/linear search
 Update second derivatives using D2CorX and points    1    2
 DE= -9.32D-03 DEPred=-1.03D-02 R= 9.03D-01
 TightC=F SS=  1.41D+00  RLast= 4.24D-01 DXNew= 5.0454D-01 1.2735D+00
 Trust test= 9.03D-01 RLast= 4.24D-01 DXMaxT set to 5.05D-01
 ITU=  1  0
 Use linear search instead of GDIIS.
     Eigenvalues ---    0.00349   0.00363   0.00591   0.01156   0.01166
     Eigenvalues ---    0.01175   0.01211   0.01345   0.01387   0.02979
     Eigenvalues ---    0.03384   0.04296   0.04624   0.04769   0.04946
     Eigenvalues ---    0.05264   0.05433   0.05640   0.05878   0.06073
     Eigenvalues ---    0.06438   0.06716   0.07037   0.07182   0.07276
     Eigenvalues ---    0.09093   0.10935   0.11035   0.12120   0.13363
     Eigenvalues ---    0.15546   0.15984   0.16000   0.16000   0.16000
     Eigenvalues ---    0.16320   0.17360   0.17569   0.18904   0.19966
     Eigenvalues ---    0.21363   0.22458   0.26432   0.28312   0.28903
     Eigenvalues ---    0.29090   0.29914   0.33966   0.33991   0.34001
     Eigenvalues ---    0.34007   0.34166   0.34233   0.34349   0.35000
     Eigenvalues ---    0.36644   0.39547   0.39583   0.40219   0.41641
     Eigenvalues ---    0.42654   0.51431   0.51562   0.51796   0.52506
     Eigenvalues ---    0.52922
 RFO step:  Lambda=-2.84329587D-03 EMin= 3.48869927D-03
 Quartic linear search produced a step of  0.06321.
 Iteration  1 RMS(Cart)=  0.06707461 RMS(Int)=  0.00159386
 Iteration  2 RMS(Cart)=  0.00246666 RMS(Int)=  0.00018648
 Iteration  3 RMS(Cart)=  0.00000350 RMS(Int)=  0.00018647
 Iteration  4 RMS(Cart)=  0.00000000 RMS(Int)=  0.00018647
 Variable       Old X    -DE/DX   Delta X   Delta X   Delta X     New X
                                 (Linear)    (Quad)   (Total)
    R1        2.06816   0.00026  -0.00033   0.00067   0.00034   2.06850
    R2        2.71590   0.00015  -0.00269  -0.00053  -0.00327   2.71263
    R3        2.91616   0.00186   0.00073   0.00580   0.00630   2.92246
    R4        2.87838   0.00314  -0.00100   0.01080   0.00981   2.88818
    R5        2.86433   0.00195  -0.00094   0.00709   0.00623   2.87056
    R6        2.85990   0.00248  -0.00153   0.00729   0.00564   2.86553
    R7        2.07609   0.00045   0.00016   0.00144   0.00160   2.07768
    R8        2.71203  -0.00455  -0.00063  -0.01217  -0.01280   2.69923
    R9        2.89212   0.00394  -0.00079   0.01514   0.01458   2.90670
   R10        2.69442  -0.00360  -0.00264  -0.01040  -0.01295   2.68148
   R11        2.06521   0.00061  -0.00035   0.00176   0.00141   2.06661
   R12        2.68633  -0.00442   0.00005  -0.01086  -0.01081   2.67552
   R13        2.07716   0.00026   0.00026   0.00087   0.00112   2.07828
   R14        2.70764  -0.00434  -0.00082  -0.01165  -0.01247   2.69516
   R15        2.07837   0.00002   0.00031   0.00017   0.00048   2.07885
   R16        2.71276  -0.00368  -0.00010  -0.00957  -0.00967   2.70309
   R17        2.07761  -0.00032   0.00051  -0.00081  -0.00031   2.07730
   R18        2.07451  -0.00026   0.00044  -0.00065  -0.00022   2.07430
   R19        2.71017  -0.00087   0.00098  -0.00185  -0.00087   2.70930
   R20        1.83099   0.00024  -0.00040   0.00033  -0.00007   1.83092
   R21        1.82941   0.00047  -0.00077   0.00066  -0.00011   1.82930
   R22        1.83829  -0.00014  -0.00075  -0.00053  -0.00128   1.83701
   R23        1.83821  -0.00049  -0.00081  -0.00127  -0.00208   1.83613
   R24        1.83639  -0.00007  -0.00073  -0.00040  -0.00113   1.83527
    A1        1.80989   0.00056  -0.00175   0.00738   0.00574   1.81563
    A2        1.88154  -0.00035  -0.00094  -0.01470  -0.01560   1.86595
    A3        1.88352  -0.00056   0.00070  -0.00999  -0.00958   1.87394
    A4        1.97839  -0.00067   0.00114  -0.00442  -0.00406   1.97433
    A5        1.94417   0.00181   0.00032   0.02332   0.02398   1.96815
    A6        1.95680  -0.00078   0.00033  -0.00291  -0.00244   1.95435
    A7        1.92126  -0.00038  -0.00087  -0.01512  -0.01659   1.90467
    A8        1.91233  -0.00031  -0.00131  -0.00419  -0.00561   1.90672
    A9        1.86437   0.00020  -0.00235   0.00522   0.00319   1.86756
   A10        1.91506  -0.00055  -0.00130  -0.00696  -0.00851   1.90655
   A11        1.93893   0.00080   0.00142   0.01123   0.01285   1.95178
   A12        1.91121   0.00026   0.00453   0.01009   0.01455   1.92576
   A13        1.97640   0.00054   0.00081   0.00056   0.00119   1.97759
   A14        1.90117  -0.00036  -0.00171  -0.00050  -0.00210   1.89907
   A15        1.89138  -0.00061  -0.00228  -0.00759  -0.00993   1.88145
   A16        1.80234   0.00061  -0.00428   0.00564   0.00132   1.80366
   A17        1.95724  -0.00054   0.00444  -0.00131   0.00319   1.96043
   A18        1.93388   0.00042   0.00312   0.00408   0.00717   1.94106
   A19        1.94252  -0.00103  -0.00001  -0.00677  -0.00705   1.93547
   A20        1.90250  -0.00041  -0.00126  -0.01414  -0.01567   1.88683
   A21        1.92373   0.00145   0.00164   0.01721   0.01889   1.94263
   A22        1.89993   0.00022  -0.00173  -0.00812  -0.01004   1.88989
   A23        1.88392  -0.00048  -0.00321   0.00043  -0.00258   1.88133
   A24        1.91091   0.00027   0.00474   0.01164   0.01639   1.92730
   A25        2.05369   0.00163  -0.00200   0.01324   0.01068   2.06437
   A26        1.92494   0.00029  -0.00108  -0.00625  -0.00824   1.91669
   A27        1.93392  -0.00069  -0.00042  -0.00866  -0.00896   1.92496
[...]
 06744681,0.00024833,-0.00083534,0.00121503,-0.00164207,-0.00557443,0.0
 0597179,0.00009455,0.00088794,-0.00085587,-0.01252880,-0.01380259,0.02
 414887,-0.00005312,0.00008720,-0.00005070,-0.00017085,0.00124405,0.000
 78480,-0.00402069,-0.00337696,-0.00173990,0.00016526,-0.00028043,-0.00
 003320,-0.00003015,0.00003185,-0.00009435,0.00017894,0.00004693,-0.000
 15146,0.00018877,0.00024881,-0.00032111,-0.00003772,0.00006908,-0.0000
 3143,0.09131893,-0.00039017,0.00020208,-0.00051940,0.00088366,-0.00046
 579,0.00042493,-0.04299822,-0.10793172,0.09205850,-0.00095672,0.000535
 81,-0.00014872,0.00701561,0.00923802,-0.01936411,0.00087605,0.00038967
 ,0.00028501,-0.01098315,-0.00854686,0.01645773,0.00012494,-0.00003003,
 0.00003380,0.00072733,-0.00279424,-0.00322176,-0.00253709,-0.00142145,
 -0.00114263,-0.00001106,-0.00016368,-0.00028695,-0.00008386,-0.0000042
 5,-0.00007233,0.00019254,0.00003268,-0.00002938,0.00005865,0.00020166,
 0.00012856,0.00006091,-0.00006021,0.00010169,0.03810492,0.12141282,0.0
 0025449,-0.00003555,0.00021668,0.00021310,0.00085921,0.00057317,0.0672
 1376,0.09115687,-0.20744742,-0.00123621,-0.00005098,-0.00226812,0.0116
 3031,0.01125819,-0.02245966,-0.00101440,-0.00034626,0.00145222,-0.0026
 7155,-0.00446553,0.00533001,0.00034088,-0.00023071,0.00011995,0.000831
 60,-0.00288372,-0.00240573,-0.00147500,-0.00113232,0.00018585,0.000142
 32,-0.00015350,0.00026009,0.00006797,0.00002325,-0.00000894,-0.0001202
 2,-0.00002980,-0.00006702,0.00024623,-0.00011764,0.00041750,0.00014007
 ,-0.00004393,0.00004441,-0.06498491,-0.10847773,0.22826172,0.00212212,
 0.00076244,0.00003900,0.00490702,-0.03330747,-0.01701264,0.00048935,-0
 .00060278,0.00020382,-0.00077396,-0.00101844,0.00418011,0.00019153,0.0
 0015951,-0.00001116,-0.00819947,-0.00755425,-0.00340672,0.00096576,0.0
 0409551,0.00176492,-0.00003780,-0.00009357,-0.00075234,-0.00011315,0.0
 0004459,-0.00006965,0.00019024,-0.00024499,-0.00007532,-0.09473204,-0.
 01749292,0.00346620,0.00633325,0.01887245,0.01295113,0.00308648,0.0100
 0489,0.00262364,0.00132183,0.00073621,-0.00105018,-0.00027860,-0.00025
 649,-0.00002489,-0.00006579,-0.00007358,-0.00006673,0.49357719,0.00122
 681,0.00096281,0.00082598,-0.00109668,-0.02511660,-0.01235067,0.000402
 36,-0.00018439,-0.00015886,0.00144258,-0.00021760,0.00405931,0.0007752
 6,-0.00018125,-0.00027586,-0.00741162,-0.00247899,-0.00300996,0.002423
 49,-0.00285653,0.00012441,-0.00021263,-0.00009956,-0.00050369,-0.00019
 881,0.00007331,-0.00008078,-0.00007382,0.00034845,-0.00048689,0.021425
 26,-0.18935917,-0.06855422,0.00095923,-0.03518214,-0.01691856,-0.00005
 213,-0.01141525,-0.01210174,-0.00076575,-0.00046178,-0.00180356,-0.000
 01311,0.00073138,0.00086907,0.00012702,0.00013808,-0.00006781,0.185121
 18,0.38354874,-0.00152972,-0.00010979,0.00082747,-0.00239929,-0.002965
 41,0.00098792,0.00029969,-0.00029688,0.00051316,0.00167540,0.00095484,
 -0.00112334,0.00034359,0.00013775,0.00010459,0.00015393,0.00119574,0.0
 0236061,0.00080489,-0.00013784,-0.00184068,-0.00013093,-0.00013355,0.0
 0019383,0.00002822,-0.00003852,0.00006031,0.00021840,-0.00012405,0.000
 92533,0.02296109,-0.04871212,-0.09761179,0.00318591,0.00285295,0.01094
 494,-0.00037557,-0.04061639,-0.01076955,-0.00195797,-0.00174141,-0.000
 78580,0.00010228,0.00096209,0.00053426,-0.00019666,-0.00009742,-0.0000
 6189,-0.09875887,0.07521239,0.12285203,0.00026631,0.00022408,-0.000061
 93,0.00087995,-0.00093224,-0.00083075,-0.00003560,-0.00008065,-0.00016
 703,-0.00019091,-0.00022716,0.00023516,-0.00008100,-0.00002922,0.00000
 974,0.00005150,0.00050167,0.00010966,0.00019770,0.00078515,0.00107722,
 0.00000420,0.00003739,-0.00006301,0.00000026,0.00000099,-0.00001626,0.
 00001123,-0.00002050,-0.00023655,0.00112945,0.00652095,0.00238217,0.00
 048047,0.00147895,0.00042353,0.00054816,0.00151172,0.00044616,0.000261
 40,0.00024931,0.00007532,-0.00000440,-0.00012595,-0.00008845,0.0000418
 4,0.00002693,-0.00000080,-0.39876211,-0.19902477,0.07750451,0.39559739
 ,0.00047604,0.00022082,0.00024959,0.00389760,-0.00556802,-0.00355493,-
 0.00012575,-0.00013536,-0.00002745,-0.00034775,-0.00045706,0.00086525,
 0.00004757,-0.00010974,-0.00013276,-0.00199602,-0.00112578,-0.00089811
 ,0.00022802,-0.00027841,-0.00069767,-0.00001313,0.00001862,-0.00017781
 ,-0.00002883,0.00002249,0.00000070,-0.00011137,0.00010963,0.00001573,-
 0.03747629,-0.01921403,0.00748323,-0.00017334,0.00025676,0.00097353,0.
 00039980,0.00213399,-0.00055315,0.00033545,0.00030486,-0.00003552,-0.0
 0007061,-0.00012118,-0.00009256,0.00001879,-0.00000079,0.00000698,-0.1
 5543713,-0.12008604,0.01333132,0.19054330,0.14209523,-0.00017067,-0.00
 001461,0.00029040,0.00148205,-0.00264975,-0.00240724,-0.00000505,0.000
 03413,-0.00005131,-0.00020570,-0.00014479,0.00096291,-0.00002351,-0.00
 009448,-0.00005731,-0.00124171,-0.00141581,-0.00009390,0.00023085,-0.0
 0021841,0.00040595,0.00001563,0.00003011,-0.00010908,-0.00003173,0.000
 02092,-0.00003311,-0.00003488,0.00006742,-0.00017847,-0.01937471,-0.01
 294005,0.00042118,0.00088555,0.00043062,0.00014170,-0.00117674,-0.0000
 2013,0.00039259,0.00044096,0.00037649,-0.00024388,-0.00007544,-0.00018
 286,-0.00000499,0.00004483,0.00002376,-0.00002019,0.10020218,0.0337916
 4,-0.02787577,-0.08052716,-0.01735434,0.02868291,-0.00012090,-0.000227
 26,-0.00027964,0.00025313,0.00150327,0.00108313,-0.00436857,-0.0079374
 1,-0.00506060,-0.03146937,-0.03005562,-0.00235465,-0.15335229,-0.09158
 549,-0.00717336,-0.00347425,0.00066783,-0.00376992,0.00176997,0.001265
 59,0.00012190,0.00195341,-0.00199082,0.00040678,-0.00940004,-0.0164679
 4,0.00249151,0.00038680,0.00046101,0.00006851,0.00030216,0.00024475,0.
 00026440,-0.00004461,0.00001867,-0.00005144,0.00014499,0.00007639,-0.0
 0002496,-0.00704795,0.00231165,-0.00034980,-0.00119837,0.00003447,0.00
 077266,0.00075656,0.00072280,-0.00105397,-0.00030621,-0.00056225,-0.00
 035372,0.00004521,0.00004117,0.00006087,0.58016823,-0.00011630,0.00016
 599,-0.00006302,0.00095728,-0.00171561,-0.00005453,-0.03396477,-0.0311
 9699,-0.00708856,0.00271065,0.00985062,-0.00000674,-0.03974838,-0.1711
 1333,0.00187382,0.00045186,0.00122908,0.00093209,0.00695211,-0.0023137
 7,-0.00301352,0.00016439,0.00206418,-0.00002581,-0.02516372,-0.0224527
 1,-0.00162425,0.00015447,0.00025943,0.00001522,0.00002948,0.00028816,-
 0.00004665,-0.00033559,0.00000208,-0.00008284,0.00002153,-0.00005106,0
 .00002011,0.00227005,0.00056428,-0.00034388,0.00037073,-0.00020185,-0.
 00087133,0.00027659,0.00240005,0.00154382,-0.00034000,0.00016993,-0.00
 015222,0.00002375,0.00010754,0.00009720,-0.07200301,0.36139789,0.00005
 375,0.00008640,0.00007448,0.00090025,-0.00070685,0.00041845,-0.0229774
 6,-0.02371867,-0.00271628,-0.00579238,-0.00537530,-0.00158471,-0.00768
 499,-0.00347971,-0.06619242,-0.00032084,0.00107308,0.00136890,0.004089
 80,-0.00326703,-0.00191066,0.00042278,-0.00033431,0.00013382,0.0201806
 7,0.01941957,0.01155531,-0.00076927,-0.00072118,0.00010821,0.00010382,
 0.00017537,-0.00016697,-0.00018444,0.00000134,-0.00001923,-0.00006632,
 -0.00006614,0.00005788,-0.00055936,0.00020755,0.00122711,-0.00000148,-
 0.00058464,0.00003468,-0.00174294,0.00150537,0.00467751,-0.00023326,0.
 00002930,0.00000523,-0.00000817,0.00006766,-0.00000202,0.06778869,-0.0
 1198725,0.06623115,0.00001167,-0.00003159,0.00000832,-0.00023801,0.000
 32750,-0.00000895,0.00193796,0.00089688,-0.00081084,-0.00242866,-0.004
 68667,0.00046640,-0.03109079,0.01527860,-0.00553559,-0.00022764,-0.000
 00064,-0.00023638,-0.00089704,0.00031315,0.00018609,0.00020119,-0.0006
 2179,0.00002979,0.00129234,0.00115235,0.00060589,0.00001679,0.00000500
 ,-0.00000455,-0.00002378,-0.00008220,-0.00000884,0.00006625,0.00000062
 ,0.00002080,-0.00000375,0.00001341,-0.00000166,-0.00088877,0.00037720,
 -0.00022071,-0.00023562,-0.00011328,0.00023027,0.00008474,-0.00030485,
 -0.00023502,0.00008449,0.00000432,0.00005068,-0.00000771,-0.00002610,-
 0.00002389,-0.37789377,0.15916793,-0.05191676,0.40982705,0.00000296,-0
 .00002506,-0.00001117,0.00011630,0.00057985,0.00020580,-0.00349671,0.0
 0106689,-0.00218884,-0.00191181,-0.00518133,-0.00007753,-0.03718327,0.
 00876458,-0.00533944,-0.00045733,0.00046625,-0.00072590,0.00002472,-0.
 00009257,0.00038423,-0.00034808,0.00061328,0.00000251,-0.00034457,-0.0
 0013703,0.00053191,0.00003482,0.00003000,-0.00003401,-0.00001261,-0.00
 006480,0.00006484,0.00008594,0.00000194,0.00001590,0.00000893,0.000017
 83,-0.00001100,-0.00079386,0.00082292,-0.00009074,-0.00034496,0.000065
 15,0.00026590,0.00031030,-0.00016073,0.00014838,0.00009236,-0.00004600
 ,0.00002344,-0.00000337,-0.00001947,-0.00001884,0.21456031,-0.14826347
 ,0.03071314,-0.17221461,0.14058180,-0.00001732,-0.00003251,-0.00005883
 ,-0.00019019,0.00048667,0.00009812,-0.00210811,-0.00044916,0.00092876,
 -0.00071041,-0.00070755,0.00169867,-0.00280468,0.00233816,-0.00005976,
 0.00004920,-0.00004678,-0.00077088,-0.00043527,0.00005858,-0.00016320,
 0.00000392,-0.00013029,-0.00000821,0.00082630,-0.00028286,0.00044753,0
 .00029905,0.00027754,-0.00000208,-0.00002669,-0.00007175,0.00008217,0.
 00007906,0.00000253,0.00000980,0.00003116,0.00003189,-0.00001955,-0.00
 040899,-0.00004855,-0.00054975,0.00007894,-0.00007282,0.00011144,-0.00
 011690,-0.00008175,-0.00094089,0.00009304,-0.00002980,-0.00001162,0.00
 000067,-0.00002885,0.00000143,-0.05254567,0.02284296,-0.01364482,0.056
 63195,-0.02529483,0.01345850,-0.00067468,0.00057595,-0.00039838,-0.003
 81408,-0.00979273,-0.00109244,-0.15063134,0.04872248,-0.05869102,0.002
 41490,0.00058381,-0.00060481,-0.01587266,0.01349386,-0.00167710,0.0007
 2747,0.00061890,0.00168329,-0.04023155,0.02902507,-0.02038355,-0.00069
 400,0.00048775,0.00001459,0.00071112,-0.00085495,-0.00110674,0.0032853
 0,0.00091177,0.00108190,-0.00051715,0.00305321,-0.00141887,-0.00129569
 ,-0.00044758,-0.00004754,0.00002015,-0.00012112,0.00008435,-0.00051527
 ,0.00026284,0.00112277,0.00005316,-0.00022710,-0.00033029,0.00109460,0
 .00827876,-0.00792568,-0.00018801,-0.00067127,-0.00034031,0.00007190,0
 .00023009,0.00005901,0.00266751,0.00124456,0.00049363,-0.00034375,0.00
 062233,0.00077217,0.22773026,-0.00025771,0.00023407,-0.00016588,-0.002
 75857,-0.00307721,-0.00181555,0.08070254,-0.13226150,0.03792405,-0.004
 46098,-0.00392337,-0.00471152,0.03244033,-0.02590134,0.00973537,0.0015
 1201,0.00218272,0.00117513,-0.00095197,0.00548654,-0.00464802,0.001708
 67,-0.00063993,0.00041523,-0.00118247,0.00165068,0.00105566,0.00174978
 ,0.00185290,-0.00046762,-0.00047115,-0.00023923,-0.00064433,-0.0001939
 5,0.00002766,0.00003326,0.00004218,0.00000380,0.00007582,0.00204626,0.
 00026665,-0.00050713,0.00011652,0.00014529,-0.00004153,0.02334411,-0.0
 1540742,0.01253049,-0.00016136,0.00080523,0.00024211,-0.00004331,0.000
 01813,0.00004843,0.00025387,0.00178070,-0.00091136,0.00002677,0.000964
 91,0.00100546,-0.13828022,0.45126137,0.00041855,0.00000407,0.00044812,
 -0.00180980,-0.00358773,0.00071861,-0.03364967,0.00704173,-0.10768524,
 -0.00119297,-0.00441107,-0.00569471,0.02056691,-0.01740163,0.01002417,
 -0.00001565,0.00101869,0.00192990,-0.01404575,0.00818476,-0.00513869,0
 .00119528,-0.00048865,0.00037965,-0.00021347,0.00081539,0.00353487,-0.
 00094664,-0.00154833,0.00076148,-0.00030747,0.00110978,-0.00041503,-0.
 00047167,-0.00016381,-0.00000436,-0.00017514,-0.00009181,0.00005828,0.
 00072605,-0.00004355,0.00064774,0.00015469,0.00001762,-0.00027053,-0.0
 2837745,0.02114359,-0.00693369,-0.00015666,-0.00006913,0.00003434,-0.0
 0001914,0.00014820,-0.00002432,0.00042205,0.00048739,0.00142548,0.0003
 4582,0.00119639,-0.00049529,0.07634415,0.19644523,0.32256186,0.0000216
 1,-0.00007106,-0.00000825,0.00031422,0.00148148,0.00004724,-0.00651934
 ,0.03062894,0.02162898,0.00109668,0.00176067,0.00231004,-0.00675054,0.
 00391173,-0.00306842,-0.00004110,-0.00139468,-0.00087119,-0.00221900,0
 .00409301,0.00291062,-0.00049207,0.00016548,-0.00021174,0.00009224,-0.
 00027356,-0.00034536,-0.00018320,-0.00034787,-0.00026778,-0.00003788,0
 .00005879,0.00033351,0.00026365,-0.00005396,0.00002326,0.00001244,0.00
 000905,-0.00005089,-0.00036054,-0.00019575,-0.00032697,-0.00007547,0.0
 0001255,0.00013674,0.00046330,-0.00025214,-0.00052037,0.00063248,-0.00
 023146,0.00005637,0.00006486,-0.00016065,-0.00008194,0.00027900,-0.000
 78926,-0.00015288,0.00040177,0.00094557,0.00021083,-0.02775171,0.00965
 515,-0.01768854,0.03859304,0.00001492,0.00004576,0.00002266,-0.0001668
 4,-0.00086311,-0.00024850,0.00689484,-0.02388161,-0.01714539,0.0000453
 6,-0.00035253,-0.00079943,0.00255858,-0.00188968,0.00311878,-0.0002305
 3,-0.00027557,0.00001202,-0.00116399,0.00301678,-0.00074129,0.00015187
 ,-0.00001217,0.00005459,-0.00005548,0.00022271,0.00012846,-0.00005828,
 -0.00015999,0.00002300,-0.00007424,0.00045929,-0.00000162,-0.00009347,
 -0.00008817,-0.00001026,-0.00002476,-0.00002989,0.00000174,0.00000242,
 -0.00007353,0.00005857,0.00001625,0.00003133,-0.00006238,-0.00075388,0
 .00028604,-0.00053075,0.00006857,-0.00021707,-0.00003919,0.00000062,0.
 00003852,-0.00002043,-0.00001387,0.00052089,0.00009966,-0.00007793,0.0
 0000860,-0.00008414,0.04053335,-0.28810076,-0.21112757,-0.04749072,0.3
 1239664,-0.00016449,0.00013334,-0.00016777,0.00011314,-0.00044325,-0.0
 0032403,-0.00406235,0.01513651,0.00842866,-0.00015627,-0.00016340,0.00
 063441,-0.00085918,0.00033860,-0.00103522,0.00007205,-0.00031254,-0.00
 002731,-0.00226278,0.00105735,0.00172793,0.00000950,0.00003034,-0.0000
 1579,-0.00013121,-0.00012937,0.00039723,0.00059549,-0.00020671,-0.0004
 2021,-0.00005017,0.00029464,0.00003630,-0.00004399,-0.00006645,-0.0000
 2067,0.00004576,-0.00002307,-0.00003575,-0.00012273,0.00010563,-0.0000
 9322,-0.00003851,-0.00001681,0.00004164,-0.00084917,0.00127062,-0.0005
 2148,0.00027695,-0.00009843,-0.00011994,0.00007235,-0.00006893,0.00002
 150,0.00026628,0.00017141,0.00022426,-0.00005905,0.00010049,-0.0002802
 8,0.01127307,-0.24446112,-0.21725114,-0.00507425,0.22667216,0.21014172
 ,0.00154184,-0.00089541,0.00135269,-0.00357138,0.02082070,0.01898536,0
 .00652993,-0.02403138,-0.02595188,-0.00327213,-0.00084487,-0.00371292,
 -0.00632499,-0.00121655,0.00106517,-0.00281772,0.00709959,0.00091263,-
 0.10580506,0.00989424,0.01729833,0.00040449,0.00004959,0.00038369,0.00
 037533,-0.00008245,-0.00046757,-0.00150569,0.01568163,0.01291752,0.000
 33718,-0.00330459,-0.00128787,0.00000423,0.00079391,-0.00018915,-0.000
 09478,0.00037196,0.00003820,0.00058073,0.00045758,0.00131457,0.0001924
 7,-0.00011341,-0.00038311,0.00215485,0.00148169,0.00032912,-0.00915143
 ,-0.00105141,0.00029714,-0.00113860,0.00211630,-0.00023479,-0.00019999
 ,-0.00307300,-0.00206388,0.00045999,0.00037678,0.00038379,0.00338558,-
 0.00454668,-0.00091032,0.00201393,0.00026446,0.00068617,0.47652085,-0.
 00234884,0.00156113,-0.00242017,0.00993608,-0.02735645,-0.02154340,0.0
 0470044,-0.02769195,-0.02594622,-0.00047743,0.00148388,0.00443299,-0.0
 0374921,0.00173497,0.00155050,0.00671377,-0.00799294,-0.00065927,0.041
 51037,-0.14619488,-0.07357494,-0.00006032,-0.00014484,-0.00035268,0.00
 012575,-0.00033538,-0.00052530,0.00338068,0.00428671,-0.00768584,-0.00
 088447,-0.00461591,-0.00117569,0.00081905,0.00052593,0.00032942,0.0002
 3815,0.00051540,0.00017346,0.00096759,0.00022012,-0.00154815,-0.000201
 21,0.00001396,0.00039578,0.00162110,0.00183735,0.00084888,-0.00111113,
 0.00514633,0.00052384,0.00026344,0.00018902,-0.00002763,-0.00130955,-0
 .00289618,-0.00186546,0.00053426,0.00006829,0.00031690,0.00037225,0.00
 177088,0.00000577,0.00026367,-0.00100017,0.00142101,0.13230589,0.32061
 760,0.00035562,-0.00029236,0.00390127,-0.00032126,-0.00112704,0.002959
 38,-0.00037168,-0.01646259,-0.01355781,-0.00142474,0.00207755,-0.00227
 901,-0.00243589,0.00082046,0.00143426,0.00068328,0.00269839,0.00323059
 ,0.04573660,-0.06881677,-0.13287411,0.00020336,-0.00016326,0.00027944,
 0.00025668,0.00000102,0.00048460,0.01337675,-0.03323517,-0.02526666,-0
 .00043861,-0.00309955,-0.00118193,0.00051141,0.00021942,0.00027909,-0.
 00076880,0.00042544,0.00051334,0.00056873,-0.00126173,0.00034992,-0.00
 008673,-0.00025215,-0.00009697,-0.00092379,0.00002677,0.00148560,-0.00
 176434,0.00081622,0.00234764,-0.00066397,0.00076547,0.00007357,-0.0007
 4284,-0.00228758,-0.00092636,0.00045350,0.00018285,0.00016388,0.000406
 82,-0.00213422,0.00100493,0.00093011,0.00039315,-0.00098755,0.04822994
 ,0.18882182,0.20556537,0.00025365,-0.00014402,0.00002299,0.00265734,0.
 00202538,0.00106975,-0.00136680,0.00244026,0.00173876,0.00082485,-0.00
 029195,0.00033001,0.00077434,-0.00004849,-0.00025693,-0.00188220,0.000
 07840,-0.00068922,0.01055089,0.00794571,0.00522005,-0.00009407,0.00000
 520,-0.00006082,-0.00004940,-0.00000749,-0.00001514,-0.00052236,0.0010
 0547,0.00158040,0.00165431,0.00644453,0.00302329,-0.00017450,-0.001370
 08,-0.00052280,0.00004719,-0.00098980,-0.00054858,-0.00054567,-0.00008
 337,-0.00014869,0.00005695,0.00022905,0.00013283,0.00000301,0.00003604
 ,-0.00010499,-0.00129315,-0.00254182,-0.00163908,0.00056849,-0.0023671
 5,-0.00021400,0.00014935,0.00073866,0.00044104,-0.00010494,-0.00007014
 ,-0.00009585,0.00036793,-0.00028984,-0.00019318,0.00018162,-0.00034725
 ,0.00046337,-0.36061964,-0.19361035,-0.10177014,0.34856281,0.00020812,
 -0.00070459,0.00078891,-0.00020063,-0.00193677,-0.00056261,0.00385656,
 -0.00475139,-0.00480803,-0.00067277,0.00003481,-0.00137308,-0.00178111
 ,0.00004761,0.00024642,0.00006740,0.00183435,0.00129357,-0.02843912,-0
 .02066061,-0.01180081,0.00008626,0.00004307,0.00020278,0.00016829,-0.0
 0008067,-0.00010369,0.00024498,0.00160987,0.00053730,0.00220790,-0.001
 46306,-0.00041791,-0.00025528,0.00002383,-0.00010007,-0.00020778,0.000
 00088,0.00019038,-0.00002742,0.00001331,0.00066141,0.00007073,-0.00008
 250,-0.00018080,0.00025398,0.00031292,0.00019014,-0.00226360,-0.004021
 88,-0.00027168,-0.00168108,0.00160026,0.00018142,-0.00000858,-0.000595
 82,-0.00036053,0.00006167,-0.00006184,0.00000094,0.00137800,0.00109921
 ,0.00131466,-0.00172498,-0.00008231,-0.00074202,-0.15255459,-0.1217428
 9,-0.06811612,0.18121305,0.14956423,0.00024235,0.00061381,-0.00035649,
 0.00073579,0.00002818,0.00250653,0.00184560,-0.00305202,-0.00372580,-0
 .00011015,-0.00030832,0.00024838,-0.00118658,-0.00054632,0.00064313,-0
 .00045254,0.00024781,-0.00069106,-0.02336573,-0.01905811,-0.01036058,-
 0.00000691,0.00002523,-0.00004395,0.00001206,0.00014140,-0.00008181,-0
 .00098444,0.00041854,0.00013705,0.00101265,-0.00054792,0.00027293,-0.0
 0007486,0.00022646,-0.00011263,0.00019801,-0.00034686,-0.00032061,0.00
 004650,0.00026227,-0.00006145,0.00001813,0.00001521,0.00000253,0.00008
 912,-0.00001815,0.00011032,-0.00241823,0.00078163,-0.00249129,0.000346
 72,-0.00028558,-0.00029256,0.00001379,-0.00033585,-0.00037898,0.000032
 72,-0.00004347,0.00000486,0.00068098,-0.00017792,0.00038359,0.00008088
 ,0.00022617,-0.00035330,-0.06899284,-0.06149561,-0.04690249,0.09223696
 ,0.08322943,0.06186370\\0.00000220,-0.00000733,0.00000032,0.00000033,-
 0.00000192,0.00000297,-0.00002039,0.00000358,-0.00000027,0.00000568,-0
 .00000222,0.00000466,0.00001068,0.00000561,-0.00000717,0.00000583,0.00
 000757,-0.00002252,0.00000692,-0.00000761,-0.00000166,0.00000413,0.000
 00331,-0.00001220,-0.00000148,0.00000754,0.00000116,-0.00000644,0.0000
 0063,0.00000757,-0.00000519,0.00000050,-0.00000615,0.00000063,-0.00000
 236,-0.00000523,0.00000388,0.00000511,-0.00000153,0.00000054,0.0000109
 2,0.00000155,-0.00000349,0.00001222,-0.00001457,0.00000341,-0.00000823
 ,0.00000065,0.00000348,-0.00000582,0.00001182,-0.00000601,0.00000051,0
 .00000017,0.00000235,-0.00000214,-0.00000970,0.00000004,-0.00000012,0.
 00000085,0.00000004,-0.00000699,0.00001543,-0.00000174,-0.00000111,0.0
 0001150,-0.00000403,-0.00000597,0.00001384,-0.00000137,-0.00000569,0.0
 0000849\\\@


 MICHAEL FARADAY, ASKED BY A POLITICIAN WHAT GOOD
 HIS ELECTRICAL DISCOVERIES WERE, REPLIED 
 "AT PRESENT I DO NOT KNOW, BUT ONE DAY YOU WILL BE
 ABLE TO TAX THEM."
 Job cpu time:       0 days  0 hours 54 minutes  4.0 seconds.
 File lengths (MBytes):  RWF=    129 Int=      0 D2E=      0 Chk=      4 Scr=      1
 Normal termination of Gaussian 09 at Tue Jun 14 01:02:10 2016.
