 Entering Gaussian System, Link 0=g09
 Initial command:
 /global/software/gaussian/g09.e01/l1.exe "/scratch/10502187.yak.local/Gau-21910.inp" -scrdir="/scratch/10502187.yak.local/"
 Entering Link 1 = /global/software/gaussian/g09.e01/l1.exe PID=     21911.
  
 Copyright (c) 1988,1990,1992,1993,1995,1998,2003,2009,2015,
            Gaussian, Inc.  All Rights Reserved.
  
 This is part of the Gaussian(R) 09 program.  It is based on
 the Gaussian(R) 03 system (copyright 2003, Gaussian, Inc.),
 the Gaussian(R) 98 system (copyright 1998, Gaussian, Inc.),
 the Gaussian(R) 94 system (copyright 1995, Gaussian, Inc.),
 the Gaussian 92(TM) system (copyright 1992, Gaussian, Inc.),
 the Gaussian 90(TM) system (copyright 1990, Gaussian, Inc.),
 the Gaussian 88(TM) system (copyright 1988, Gaussian, Inc.),
 the Gaussian 86(TM) system (copyright 1986, Carnegie Mellon
 University), and the Gaussian 82(TM) system (copyright 1983,
 Carnegie Mellon University). Gaussian is a federally registered
 trademark of Gaussian, Inc.
  
 This software contains proprietary and confidential information,
 including trade secrets, belonging to Gaussian, Inc.
  
 This software is provided under written license and may be
 used, copied, transmitted, or stored only in accord with that
 written license.
  
 The following legend is applicable only to US Government
 contracts under FAR:
  
                    RESTRICTED RIGHTS LEGEND
  
 Use, reproduction and disclosure by the US Government is
 subject to restrictions as set forth in subparagraphs (a)
 and (c) of the Commercial Computer Software - Restricted
 Rights clause in FAR 52.227-19.
  
 Gaussian, Inc.
 340 Quinnipiac St., Bldg. 40, Wallingford CT 06492
  
  
 ---------------------------------------------------------------
 Warning -- This program may not be used in any manner that
 competes with the business of Gaussian, Inc. or will provide
 assistance to any competitor of Gaussian, Inc.  The licensee
 of this program is prohibited from giving any competitor of
 Gaussian, Inc. access to this program.  By using this program,
 the user acknowledges that Gaussian, Inc. is engaged in the
 business of creating and licensing software in the field of
 computational chemistry and represents and warrants to the
 licensee that it is not a competitor of Gaussian, Inc. and that
 it will not use this program in any manner prohibited above.
 ---------------------------------------------------------------
  

 Cite this work as:
 Gaussian 09, Revision E.01,
 M. J. Frisch, G. W. Trucks, H. B. Schlegel, G. E. Scuseria, 
 M. A. Robb, J. R. Cheeseman, G. Scalmani, V. Barone, B. Mennucci, 
 G. A. Petersson, H. Nakatsuji, M. Caricato, X. Li, H. P. Hratchian, 
 A. F. Izmaylov, J. Bloino, G. Zheng, J. L. Sonnenberg, M. Hada, 
 M. Ehara, K. Toyota, R. Fukuda, J. Hasegawa, M. Ishida, T. Nakajima, 
 Y. Honda, O. Kitao, H. Nakai, T. Vreven, J. A. Montgomery, Jr., 
 J. E. Peralta, F. Ogliaro, M. Bearpark, J. J. Heyd, E. Brothers, 
 K. N. Kudin, V. N. Staroverov, T. Keith, R. Kobayashi, J. Normand, 
 K. Raghavachari, A. Rendell, J. C. Burant, S. S. Iyengar, J. Tomasi, 
 M. Cossi, N. Rega, J. M. Millam, M. Klene, J. E. Knox, J. B. Cross, 
 V. Bakken, C. Adamo, J. Jaramillo, R. Gomperts, R. E. Stratmann, 
 O. Yazyev, A. J. Austin, R. Cammi, C. Pomelli, J. W. Ochterski, 
 R. L. Martin, K. Morokuma, V. G. Zakrzewski, G. A. Voth, 
 P. Salvador, J. J. Dannenberg, S. Dapprich, A. D. Daniels, 
 O. Farkas, J. B. Foresman, J. V. Ortiz, J. Cioslowski, 
 and D. J. Fox, Gaussian, Inc., Wallingford CT, 2013.
 
 ******************************************
 Gaussian 09:  ES64L-G09RevE.01 30-Nov-2015
                31-Jan-2017 
 ******************************************
 %NPROCS=4
 Will use up to    4 processors via shared memory.
 --------------------------------------------------
 # b3lyp/6-31g(d) irc=(calcfc,reverse,maxpoints=20)
 --------------------------------------------------
 1/10=4,14=-1,18=10,22=2,26=3,38=1,42=20,44=3/1,23;
 2/12=2,17=6,18=5,29=1,40=1/2;
 3/5=1,6=6,7=1,11=2,16=1,25=1,30=1,71=2,74=-5,140=1/1,2,3;
 4//1;
 5/5=2,38=5/2;
 8/6=4,10=90,11=11/1;
 11/6=1,8=1,9=11,15=111,16=1/1,2,10;
 10/6=1,13=1/2;
 6/7=2,8=2,9=2,10=2,28=1/1;
 7/10=1,18=20,25=1/1,2,3,16;
 1/10=4,14=-1,18=10,22=2,26=3,42=20,44=3/23(2);
 2/29=1/2;
 99/5=20/99;
 2/29=1/2;
 3/5=1,6=6,7=1,11=2,16=1,25=1,30=1,71=2,74=-5,140=1/1,2,3;
 4/5=5,16=3,69=1/1;
 5/5=2,38=5/2;
 8/6=4,10=90,11=11/1;
 11/6=1,8=1,9=11,15=111,16=1/1,2,10;
 10/6=1,13=1/2;
 7/10=1,18=20,25=1/1,2,3,16;
 1/14=-1,18=10,22=2,26=3,42=20,44=3/23(-8);
 2/29=1/2;
 6/7=2,8=2,9=2,10=2,19=2,28=1/1;
 99/5=20,9=1/99;
 -------------------------------------------
 ./5/glo_1w_alpha_boat5_b3lyp_631Gd_iopt.out
 -------------------------------------------
 Symbolic Z-matrix:
 Charge =  0 Multiplicity = 1
 O                    -1.53085  -0.41389  -0.69639 
 C                    -0.24403   0.83743   1.03554 
 C                     0.89856  -0.37287  -0.93024 
 C                     1.09818   0.48733   0.3295 
 C                    -0.35896  -1.23048  -0.79656 
 C                    -1.44199   0.81245   0.07642 
 H                     1.68639  -0.08252   1.06004 
 H                    -2.34849   0.83566   0.69602 
 H                    -0.18256   1.85807   1.43013 
 H                     0.73094   0.30161  -1.77575 
 C                    -1.48182   2.01581  -0.88142 
 H                    -2.26146   1.84035  -1.63678 
 H                    -0.52781   2.13504  -1.40068 
 O                    -1.68455   3.23351  -0.174 
 H                    -2.58692   3.22482   0.18219 
 O                     2.03167  -1.13746  -1.28442 
 H                     2.36833  -1.5843   -0.48862 
 O                     1.84001   1.63433  -0.09922 
 H                     1.96493   2.21179   0.67115 
 O                    -0.46263  -0.00782   2.15434 
 H                    -0.39862  -0.92018   1.80369 
 H                    -0.51322  -1.82177  -1.70471 
 O                    -0.21719  -2.08392   0.32083 
 H                    -1.02985  -2.64559   0.33809 
 O                     4.1494   -0.47804   0.42297 
 H                     4.50323   0.09056   1.12262 
 H                     3.7267    0.13626  -0.20125 
 O                    -2.85684  -2.78459   0.12252 
 H                    -3.28597  -2.70748   0.98865 
 H                    -2.81735  -1.86731  -0.21725 
 
 IRC-IRC-IRC-IRC-IRC-IRC-IRC-IRC-IRC-IRC-IRC-IRC-IRC-IRC-IRC-IRC-IRC-IRC
 ------------------------------------------------------------------------
 INPUT DATA FOR L123
 ------------------------------------------------------------------------
 GENERAL PARAMETERS:
 Rxn path following direction = Reverse
 Maximum points per path      =  20
 Step size                    =   0.100 bohr
 Integration scheme           = HPC                                 
    Redo corrector integration= Yes                                 
    DWI Weight Power          =  2
    DWI will use Hessian update vectors when possible.
    Max correction cycles     =  20
 Initial Hessian              = CalcFC
 Hessian evaluation           = All updating
 Hessian updating method      = Bofill                              
 ------------------------------------------------------------------------
 IRC-IRC-IRC-IRC-IRC-IRC-IRC-IRC-IRC-IRC-IRC-IRC-IRC-IRC-IRC-IRC-IRC-IRC
                          Input orientation:                          
 ---------------------------------------------------------------------
 Center     Atomic      Atomic             Coordinates (Angstroms)
 Number     Number       Type             X           Y           Z
 ---------------------------------------------------------------------
      1          8           0       -1.530850   -0.413890   -0.696390
      2          6           0       -0.244030    0.837430    1.035540
      3          6           0        0.898560   -0.372870   -0.930240
      4          6           0        1.098180    0.487330    0.329500
      5          6           0       -0.358960   -1.230480   -0.796560
      6          6           0       -1.441990    0.812450    0.076420
      7          1           0        1.686390   -0.082520    1.060040
      8          1           0       -2.348490    0.835660    0.696020
      9          1           0       -0.182560    1.858070    1.430130
     10          1           0        0.730940    0.301610   -1.775750
     11          6           0       -1.481820    2.015810   -0.881420
     12          1           0       -2.261460    1.840350   -1.636780
     13          1           0       -0.527810    2.135040   -1.400680
     14          8           0       -1.684550    3.233510   -0.174000
     15          1           0       -2.586920    3.224820    0.182190
     16          8           0        2.031670   -1.137460   -1.284420
     17          1           0        2.368330   -1.584300   -0.488620
     18          8           0        1.840010    1.634330   -0.099220
     19          1           0        1.964930    2.211790    0.671150
     20          8           0       -0.462630   -0.007820    2.154340
     21          1           0       -0.398620   -0.920180    1.803690
     22          1           0       -0.513220   -1.821770   -1.704710
     23          8           0       -0.217190   -2.083920    0.320830
     24          1           0       -1.029850   -2.645590    0.338090
     25          8           0        4.149400   -0.478040    0.422970
     26          1           0        4.503230    0.090560    1.122620
     27          1           0        3.726700    0.136260   -0.201250
     28          8           0       -2.856840   -2.784590    0.122520
     29          1           0       -3.285970   -2.707480    0.988650
     30          1           0       -2.817350   -1.867310   -0.217250
 ---------------------------------------------------------------------
                    Distance matrix (angstroms):
                    1          2          3          4          5
     1  O    0.000000
     2  C    2.494251   0.000000
     3  C    2.440984   2.575777   0.000000
     4  C    2.962507   1.556467   1.538420   0.000000
     5  C    1.431845   2.765149   1.527980   2.518360   0.000000
     6  C    1.452254   1.534811   2.810075   2.573367   2.471560
     7  H    3.680419   2.138558   2.160137   1.097456   2.991360
     8  H    2.041743   2.131673   3.827349   3.483562   3.233413
     9  H    3.391427   1.095986   3.423048   2.174996   3.811615
    10  H    2.606272   3.023412   1.094489   2.145095   2.119904
    11  C    2.437228   2.568159   3.372593   3.234034   3.436046
    12  H    2.549455   3.495306   3.922151   4.121177   3.708837
    13  H    2.828278   2.774796   2.923261   2.890037   3.423477
    14  O    3.687823   3.046192   4.500037   3.941903   4.698082
    15  H    3.889395   3.452097   5.131223   4.592985   5.076559
    16  O    3.682510   3.802790   1.412083   2.473072   2.441674
    17  H    4.076350   3.874566   1.955202   2.564030   2.767332
    18  O    3.989300   2.503188   2.367652   1.431685   3.678164
    19  H    4.580921   2.627004   3.222121   1.960036   4.404981
    20  O    3.071262   1.419136   3.391273   2.451804   3.195850
    21  H    2.790820   1.924356   3.075158   2.528780   2.619000
    22  H    2.008583   3.827895   2.166157   3.473696   1.094603
    23  O    2.355725   3.007626   2.395364   2.888183   1.413159
    24  H    2.510306   3.638046   3.239241   3.787317   1.933924
    25  O    5.789846   4.626870   3.522811   3.201659   4.730616
    26  H    6.322451   4.806441   4.174044   3.518641   5.391594
    27  H    5.309394   4.217581   2.964627   2.704452   4.349137
    28  O    2.837090   4.558444   4.585600   5.137167   3.082105
    29  H    3.343705   4.671401   5.161670   5.464619   3.733081
    30  H    1.999272   3.937903   4.068131   4.601591   2.604771
                    6          7          8          9         10
     6  C    0.000000
     7  H    3.399300   0.000000
     8  H    1.098265   4.154013   0.000000
     9  H    2.124151   2.719528   2.505093   0.000000
    10  H    2.900537   3.016976   3.984689   3.678956   0.000000
    11  C    1.538545   4.267295   2.152252   2.656355   2.938471
    12  H    2.159436   5.153231   2.541443   3.705142   3.367713
    13  H    2.183299   3.984394   3.065847   2.865204   2.255348
    14  O    2.446033   4.886936   2.635799   2.592497   4.122649
    15  H    2.672374   5.474513   2.455393   3.034190   4.835998
    16  O    4.209554   2.593956   5.196263   4.609208   2.001056
    17  H    4.536763   2.262462   5.432124   4.694524   2.809699
    18  O    3.387899   2.077271   4.337489   2.545537   2.411832
    19  H    3.730812   2.343646   4.527686   2.304969   3.340485
    20  O    2.439209   2.412749   2.528759   2.021006   4.118976
    21  H    2.659716   2.366845   2.848140   2.811566   3.947286
    22  H    3.312726   3.937908   4.024134   4.845388   2.462057
    23  O    3.154177   2.859309   3.634165   4.095245   3.314416
    24  H    3.492330   3.803748   3.739790   4.710988   4.031710
    25  O    5.748835   2.574629   6.634978   5.023710   4.138610
    26  H    6.079581   2.822846   6.905304   5.017498   4.761855
    27  H    5.220124   2.408647   6.180792   4.572564   3.388358
    28  O    3.865569   5.368525   3.700477   5.515062   5.099042
    29  H    4.077050   5.623155   3.676730   5.538078   5.729930
    30  H    3.026379   5.010052   2.891356   4.851230   4.441115
                   11         12         13         14         15
    11  C    0.000000
    12  H    1.099633   0.000000
    13  H    1.092695   1.774296   0.000000
    14  O    1.422792   2.100820   2.012319   0.000000
    15  H    1.953002   2.308968   2.816564   0.970164   0.000000
    16  O    4.738157   5.236647   4.156165   5.843689   6.520108
    17  H    5.285711   5.872091   4.801351   6.303659   6.937732
    18  O    3.433936   4.385042   2.747923   3.871110   4.712384
    19  H    3.785362   4.829791   3.242240   3.882898   4.688779
    20  O    3.788095   4.585206   4.151417   4.173784   4.341883
    21  H    4.123491   4.788270   4.429339   4.776821   4.959732
    22  H    4.042649   4.058581   3.968500   5.410263   5.773101
    23  O    4.455612   4.838509   4.567243   5.538327   5.815287
    24  H    4.839435   5.053774   5.111730   5.937566   6.075400
    25  O    6.295344   7.121561   5.659521   6.940241   7.690719
    26  H    6.598757   7.512462   5.988180   7.060310   7.808855
    27  H    5.578891   6.389267   4.851248   6.235008   7.039036
    28  O    5.093370   4.983943   5.652192   6.138381   6.015765
    29  H    5.390880   5.350258   6.063526   6.261922   6.027539
    30  H    4.159734   4.008843   4.760389   5.225272   5.112968
                   16         17         18         19         20
    16  O    0.000000
    17  H    0.972781   0.000000
    18  O    3.020638   3.284864   0.000000
    19  H    3.878941   3.989749   0.970842   0.000000
    20  O    4.395758   4.181490   3.616261   3.608264   0.000000
    21  H    3.935727   3.654005   3.893334   4.083902   0.979517
    22  H    2.668593   3.136654   4.478830   5.296748   4.264416
    23  O    2.920614   2.754949   4.270117   4.830890   2.780682
    24  H    3.778875   3.654780   5.171562   5.716098   3.252435
    25  O    2.799071   2.286267   3.173022   3.474002   4.948694
    26  H    3.662033   3.155796   3.311927   3.338624   5.072858
    27  H    2.380913   2.210900   2.411270   2.858800   4.808331
    28  O    5.346966   5.395979   6.452629   6.965219   4.191776
    29  H    5.992421   5.951048   6.805178   7.202220   4.076548
    30  H    5.018419   5.200482   5.828071   6.348111   3.824506
                   21         22         23         24         25
    21  H    0.000000
    22  H    3.624206   0.000000
    23  O    1.893695   2.063775   0.000000
    24  H    2.350207   2.262436   0.988022   0.000000
    25  O    4.773506   5.298364   4.653643   5.615168   0.000000
    26  H    5.051097   6.067584   5.258669   6.222297   0.968510
    27  H    4.706816   4.906240   4.555879   5.536637   0.972466
    28  O    3.513574   3.123835   2.738251   1.844908   7.382265
    29  H    3.492209   3.965705   3.201909   2.348858   7.783002
    30  H    3.291126   2.742923   2.664072   2.027136   7.132710
                   26         27         28         29         30
    26  H    0.000000
    27  H    1.535487   0.000000
    28  O    7.964755   7.209660   0.000000
    29  H    8.277597   7.660304   0.969680   0.000000
    30  H    7.695414   6.843913   0.978982   1.542623   0.000000
 Symmetry turned off by external request.
 Stoichiometry    C6H16O8
 Framework group  C1[X(C6H16O8)]
 Deg. of freedom    84
 Full point group                 C1      NOp   1
 Rotational constants (GHZ):      0.6766485      0.5304531      0.3751384
 Standard basis: 6-31G(d) (6D, 7F)
   242 basis functions,   456 primitive gaussians,   242 cartesian basis functions
    58 alpha electrons       58 beta electrons
       nuclear repulsion energy      1110.9351515342 Hartrees.
 NAtoms=   30 NActive=   30 NUniq=   30 SFac= 1.00D+00 NAtFMM=   60 NAOKFM=F Big=F
 Integral buffers will be    131072 words long.
 Raffenetti 2 integral format.
 Two-electron integral symmetry is turned off.
 One-electron integrals computed using PRISM.
 NBasis=   242 RedAO= T EigKep=  1.05D-03  NBF=   242
 NBsUse=   242 1.00D-06 EigRej= -1.00D+00 NBFU=   242
 ExpMin= 1.61D-01 ExpMax= 5.48D+03 ExpMxC= 8.25D+02 IAcc=1 IRadAn=         1 AccDes= 0.00D+00
 Harris functional with IExCor=  402 and IRadAn=       1 diagonalized for initial guess.
 HarFok:  IExCor=  402 AccDes= 0.00D+00 IRadAn=         1 IDoV= 1 UseB2=F ITyADJ=14
 ICtDFT=  3500011 ScaDFX=  1.000000  1.000000  1.000000  1.000000
 FoFCou: FMM=F IPFlag=           0 FMFlag=      100000 FMFlg1=           0
         NFxFlg=           0 DoJE=T BraDBF=F KetDBF=T FulRan=T
         wScrn=  0.000000 ICntrl=     500 IOpCl=  0 I1Cent=   200000004 NGrid=           0
         NMat0=    1 NMatS0=      1 NMatT0=    0 NMatD0=    1 NMtDS0=    0 NMtDT0=    0
 Symmetry not used in FoFCou.
 Requested convergence on RMS density matrix=1.00D-08 within 128 cycles.
 Requested convergence on MAX density matrix=1.00D-06.
 Requested convergence on             energy=1.00D-06.
 No special actions if energy rises.
 Integral accuracy reduced to 1.0D-05 until final iterations.
 Initial convergence to 1.0D-05 achieved.  Increase integral accuracy.
 SCF Done:  E(RB3LYP) =  -839.986361019     A.U. after   14 cycles
            NFock= 14  Conv=0.39D-08     -V/T= 2.0085
 DoSCS=F DFT=T ScalE2(SS,OS)=  1.000000  1.000000
 Range of M.O.s used for correlation:     1   242
 NBasis=   242 NAE=    58 NBE=    58 NFC=     0 NFV=     0
 NROrb=    242 NOA=    58 NOB=    58 NVA=   184 NVB=   184
 Symmetrizing basis deriv contribution to polar:
 IMax=3 JMax=2 DiffMx= 0.00D+00
 G2DrvN: will do    31 centers at a time, making    1 passes.
 Calling FoFCou, ICntrl=  3107 FMM=F I1Cent=   0 AccDes= 0.00D+00.
 End of G2Drv F.D. properties file   721 does not exist.
 End of G2Drv F.D. properties file   722 does not exist.
 End of G2Drv F.D. properties file   788 does not exist.
          IDoAtm=111111111111111111111111111111
          Differentiating once with respect to nuclear coordinates.
          There are    93 degrees of freedom in the 1st order CPHF.  IDoFFX=6 NUNeed=     0.
     87 vectors produced by pass  0 Test12= 1.15D-14 1.08D-09 XBig12= 9.92D-02 1.00D-01.
 AX will form    87 AO Fock derivatives at one time.
     87 vectors produced by pass  1 Test12= 1.15D-14 1.08D-09 XBig12= 1.11D-02 1.25D-02.
     87 vectors produced by pass  2 Test12= 1.15D-14 1.08D-09 XBig12= 1.19D-04 1.16D-03.
     87 vectors produced by pass  3 Test12= 1.15D-14 1.08D-09 XBig12= 2.43D-07 6.76D-05.
     87 vectors produced by pass  4 Test12= 1.15D-14 1.08D-09 XBig12= 3.00D-10 1.37D-06.
     66 vectors produced by pass  5 Test12= 1.15D-14 1.08D-09 XBig12= 2.11D-13 4.61D-08.
      2 vectors produced by pass  6 Test12= 1.15D-14 1.08D-09 XBig12= 2.16D-16 1.42D-09.
 InvSVY:  IOpt=1 It=  1 EMax= 5.83D-16
 Solved reduced A of dimension   503 with    93 vectors.
 End of Minotr F.D. properties file   721 does not exist.
 End of Minotr F.D. properties file   722 does not exist.
 End of Minotr F.D. properties file   788 does not exist.

 **********************************************************************

            Population analysis using the SCF density.

 **********************************************************************

 Alpha  occ. eigenvalues --  -19.17810 -19.16847 -19.16623 -19.16448 -19.15982
 Alpha  occ. eigenvalues --  -19.14667 -19.13825 -19.13615 -10.29469 -10.25054
 Alpha  occ. eigenvalues --  -10.24492 -10.24394 -10.24356 -10.24018  -1.08221
 Alpha  occ. eigenvalues --   -1.04021  -1.03213  -1.02522  -1.02136  -1.01195
 Alpha  occ. eigenvalues --   -1.01028  -0.99543  -0.78409  -0.77213  -0.69231
 Alpha  occ. eigenvalues --   -0.66011  -0.63756  -0.58726  -0.55606  -0.54285
 Alpha  occ. eigenvalues --   -0.53921  -0.52425  -0.51813  -0.50798  -0.49045
 Alpha  occ. eigenvalues --   -0.48828  -0.46342  -0.45055  -0.43546  -0.42542
 Alpha  occ. eigenvalues --   -0.41949  -0.41740  -0.39818  -0.38976  -0.37871
 Alpha  occ. eigenvalues --   -0.37139  -0.36161  -0.35511  -0.34328  -0.32290
 Alpha  occ. eigenvalues --   -0.31871  -0.30662  -0.30345  -0.29824  -0.29185
 Alpha  occ. eigenvalues --   -0.27626  -0.26390  -0.25649
 Alpha virt. eigenvalues --    0.04518   0.04826   0.05752   0.08191   0.09491
 Alpha virt. eigenvalues --    0.09742   0.11261   0.12475   0.13292   0.13974
 Alpha virt. eigenvalues --    0.14162   0.15485   0.16240   0.18005   0.18158
 Alpha virt. eigenvalues --    0.18677   0.20268   0.20613   0.21524   0.22293
 Alpha virt. eigenvalues --    0.23731   0.24850   0.25811   0.26305   0.29981
 Alpha virt. eigenvalues --    0.30624   0.32739   0.35810   0.52053   0.52848
 Alpha virt. eigenvalues --    0.53147   0.55185   0.56797   0.57179   0.58274
 Alpha virt. eigenvalues --    0.61053   0.62676   0.63157   0.64622   0.66749
 Alpha virt. eigenvalues --    0.67918   0.69390   0.71301   0.75055   0.76514
 Alpha virt. eigenvalues --    0.76988   0.78268   0.79339   0.80721   0.81271
 Alpha virt. eigenvalues --    0.82420   0.83114   0.83735   0.84565   0.85101
 Alpha virt. eigenvalues --    0.85782   0.87400   0.87573   0.88424   0.88706
 Alpha virt. eigenvalues --    0.90268   0.91035   0.92201   0.93975   0.95509
 Alpha virt. eigenvalues --    0.96707   0.98238   0.99276   1.01476   1.02046
 Alpha virt. eigenvalues --    1.02877   1.03312   1.03852   1.06034   1.07239
 Alpha virt. eigenvalues --    1.07701   1.09450   1.11741   1.12412   1.14597
 Alpha virt. eigenvalues --    1.16968   1.17852   1.19619   1.21608   1.23256
 Alpha virt. eigenvalues --    1.26091   1.26737   1.30553   1.32593   1.35130
 Alpha virt. eigenvalues --    1.37465   1.39098   1.43145   1.44383   1.46610
 Alpha virt. eigenvalues --    1.51188   1.52974   1.54711   1.57890   1.58596
 Alpha virt. eigenvalues --    1.61267   1.63427   1.64416   1.66637   1.68505
 Alpha virt. eigenvalues --    1.70296   1.71194   1.72229   1.73155   1.73711
 Alpha virt. eigenvalues --    1.74600   1.76775   1.77085   1.78216   1.79296
 Alpha virt. eigenvalues --    1.80627   1.81310   1.83073   1.83621   1.84764
 Alpha virt. eigenvalues --    1.86898   1.88053   1.91619   1.92627   1.93864
 Alpha virt. eigenvalues --    1.98259   1.99212   2.00124   2.05495   2.06676
 Alpha virt. eigenvalues --    2.07557   2.08615   2.11271   2.12459   2.16190
 Alpha virt. eigenvalues --    2.18549   2.19751   2.23509   2.25858   2.27701
 Alpha virt. eigenvalues --    2.28441   2.32305   2.34985   2.36692   2.37883
 Alpha virt. eigenvalues --    2.41085   2.44843   2.46071   2.47743   2.49731
 Alpha virt. eigenvalues --    2.52386   2.54380   2.55171   2.56093   2.57788
 Alpha virt. eigenvalues --    2.59555   2.61049   2.63118   2.64203   2.69632
 Alpha virt. eigenvalues --    2.76287   2.76990   2.84722   2.88605   2.90578
 Alpha virt. eigenvalues --    2.92891   2.97821   2.99931   3.04901   3.14697
 Alpha virt. eigenvalues --    3.62460   3.67598   3.71546   3.81652   3.88624
 Alpha virt. eigenvalues --    3.91574   3.99128   4.15849   4.25262   4.38262
 Alpha virt. eigenvalues --    4.53255   4.59990   4.60978   4.95266
          Condensed to atoms (all electrons):
               1          2          3          4          5          6
     1  O    8.400677  -0.026086  -0.014213  -0.012712   0.159814   0.159214
     2  C   -0.026086   4.988404  -0.030774   0.253108   0.005165   0.300440
     3  C   -0.014213  -0.030774   4.901752   0.288541   0.292877  -0.016968
     4  C   -0.012712   0.253108   0.288541   5.142731  -0.030567  -0.018960
     5  C    0.159814   0.005165   0.292877  -0.030567   4.842536  -0.022076
     6  C    0.159214   0.300440  -0.016968  -0.018960  -0.022076   5.068672
     7  H    0.000292  -0.050276  -0.039443   0.341365  -0.004735   0.005434
     8  H   -0.037911  -0.042282   0.000199   0.005087   0.002911   0.357334
     9  H    0.003252   0.362573   0.003780  -0.045573  -0.000222  -0.047105
    10  H    0.004688  -0.000585   0.373823  -0.044177  -0.056295  -0.001097
    11  C   -0.034436  -0.034050  -0.001868  -0.002497  -0.001332   0.286664
    12  H    0.006588   0.005362  -0.000009  -0.000265   0.000194  -0.046900
    13  H    0.001918  -0.009958  -0.002635   0.002048   0.000431  -0.038048
    14  O    0.001485  -0.004484   0.000067  -0.000112   0.000004  -0.039601
    15  H    0.000023  -0.000739   0.000002   0.000007  -0.000000  -0.003077
    16  O    0.001415   0.002917   0.268995  -0.036995  -0.041067  -0.000077
    17  H    0.000107   0.000259  -0.027781  -0.005736  -0.008364   0.000002
    18  O    0.000037  -0.026306  -0.034212   0.170954   0.002534  -0.000008
    19  H    0.000013  -0.002916   0.006682  -0.024746  -0.000339  -0.000033
    20  O    0.000252   0.242897   0.001729  -0.039246   0.003338  -0.042336
    21  H    0.001275  -0.039726  -0.002264  -0.001531  -0.004780  -0.000682
    22  H   -0.049537  -0.000500  -0.044426   0.006621   0.384082   0.005661
    23  O   -0.056868   0.003575  -0.043068  -0.004147   0.200157  -0.001846
    24  H    0.002602  -0.000367   0.005427  -0.000156  -0.016560  -0.000057
    25  O    0.000000   0.000307  -0.003050   0.000472  -0.000007  -0.000002
    26  H   -0.000000  -0.000011   0.000097   0.000169  -0.000000  -0.000000
    27  H   -0.000002   0.000230  -0.000196  -0.001764   0.000326  -0.000004
    28  O   -0.013716  -0.000117   0.000016   0.000002   0.004444   0.000323
    29  H    0.000548  -0.000021  -0.000010   0.000002  -0.000253   0.000106
    30  H    0.043558   0.000350   0.000367   0.000001  -0.004408  -0.000785
               7          8          9         10         11         12
     1  O    0.000292  -0.037911   0.003252   0.004688  -0.034436   0.006588
     2  C   -0.050276  -0.042282   0.362573  -0.000585  -0.034050   0.005362
     3  C   -0.039443   0.000199   0.003780   0.373823  -0.001868  -0.000009
     4  C    0.341365   0.005087  -0.045573  -0.044177  -0.002497  -0.000265
     5  C   -0.004735   0.002911  -0.000222  -0.056295  -0.001332   0.000194
     6  C    0.005434   0.357334  -0.047105  -0.001097   0.286664  -0.046900
     7  H    0.603968  -0.000255  -0.000399   0.005106  -0.000017   0.000009
     8  H   -0.000255   0.635948  -0.001413   0.000057  -0.055463  -0.005323
     9  H   -0.000399  -0.001413   0.588759  -0.000223  -0.004576   0.000467
    10  H    0.005106   0.000057  -0.000223   0.583778   0.000284   0.000206
    11  C   -0.000017  -0.055463  -0.004576   0.000284   4.984521   0.351002
    12  H    0.000009  -0.005323   0.000467   0.000206   0.351002   0.622269
    13  H    0.000126   0.005208   0.000106   0.005531   0.373709  -0.036709
    14  O   -0.000007   0.002049   0.016256   0.000011   0.231330  -0.028837
    15  H   -0.000000   0.006367  -0.000195   0.000004  -0.032050  -0.007294
    16  O   -0.005227   0.000003  -0.000045  -0.038583   0.000024  -0.000001
    17  H    0.007743  -0.000001   0.000000   0.007004   0.000001   0.000000
    18  O   -0.036244  -0.000132  -0.000282  -0.001110  -0.000436   0.000097
    19  H   -0.003007   0.000000   0.006882   0.000024   0.000002  -0.000008
    20  O    0.008179   0.002828  -0.036627  -0.000067   0.003827  -0.000071
    21  H    0.000726  -0.000875   0.006200   0.000039   0.000076   0.000002
    22  H   -0.000167  -0.000212   0.000010  -0.004344  -0.000031  -0.000033
    23  O    0.002182   0.000053  -0.000002   0.003739   0.000003   0.000007
    24  H   -0.000032  -0.000031   0.000003  -0.000199   0.000010  -0.000001
    25  O    0.016940   0.000000   0.000002  -0.000021   0.000000   0.000000
    26  H    0.000027  -0.000000  -0.000001   0.000007   0.000000   0.000000
    27  H   -0.005368   0.000000  -0.000015  -0.000309  -0.000000  -0.000000
    28  O    0.000000   0.000515   0.000000   0.000003  -0.000002  -0.000002
    29  H   -0.000000   0.000037  -0.000000  -0.000000   0.000004  -0.000000
    30  H    0.000000  -0.001373  -0.000013  -0.000012   0.000155   0.000064
              13         14         15         16         17         18
     1  O    0.001918   0.001485   0.000023   0.001415   0.000107   0.000037
     2  C   -0.009958  -0.004484  -0.000739   0.002917   0.000259  -0.026306
     3  C   -0.002635   0.000067   0.000002   0.268995  -0.027781  -0.034212
     4  C    0.002048  -0.000112   0.000007  -0.036995  -0.005736   0.170954
     5  C    0.000431   0.000004  -0.000000  -0.041067  -0.008364   0.002534
     6  C   -0.038048  -0.039601  -0.003077  -0.000077   0.000002  -0.000008
     7  H    0.000126  -0.000007  -0.000000  -0.005227   0.007743  -0.036244
     8  H    0.005208   0.002049   0.006367   0.000003  -0.000001  -0.000132
     9  H    0.000106   0.016256  -0.000195  -0.000045   0.000000  -0.000282
    10  H    0.005531   0.000011   0.000004  -0.038583   0.007004  -0.001110
    11  C    0.373709   0.231330  -0.032050   0.000024   0.000001  -0.000436
    12  H   -0.036709  -0.028837  -0.007294  -0.000001   0.000000   0.000097
    13  H    0.542482  -0.034480   0.007016   0.000010   0.000001   0.008029
    14  O   -0.034480   8.232162   0.234596  -0.000000   0.000000  -0.000084
    15  H    0.007016   0.234596   0.402762   0.000000  -0.000000  -0.000008
    16  O    0.000010  -0.000000   0.000000   8.235038   0.232027   0.001025
    17  H    0.000001   0.000000  -0.000000   0.232027   0.360480  -0.000482
    18  O    0.008029  -0.000084  -0.000008   0.001025  -0.000482   8.308330
    19  H   -0.000264  -0.000013   0.000002  -0.000183   0.000005   0.229229
    20  O    0.000022  -0.000006  -0.000028  -0.000008  -0.000024   0.001570
    21  H    0.000004  -0.000003   0.000001  -0.000058   0.000047  -0.000029
    22  H   -0.000049   0.000001  -0.000000   0.003454  -0.000293  -0.000065
    23  O    0.000013   0.000000   0.000000   0.001078   0.006192   0.000025
    24  H    0.000000  -0.000000   0.000000  -0.000178  -0.000081   0.000001
    25  O   -0.000000   0.000000  -0.000000  -0.007021   0.017629  -0.003980
    26  H   -0.000000  -0.000000  -0.000000   0.000528  -0.000652   0.000540
    27  H   -0.000000   0.000000   0.000000   0.016211  -0.007730   0.020594
    28  O    0.000000   0.000000   0.000000   0.000000   0.000001   0.000000
    29  H   -0.000000  -0.000000  -0.000000  -0.000000  -0.000000  -0.000000
    30  H   -0.000009  -0.000001  -0.000001  -0.000007  -0.000000   0.000000
              19         20         21         22         23         24
     1  O    0.000013   0.000252   0.001275  -0.049537  -0.056868   0.002602
     2  C   -0.002916   0.242897  -0.039726  -0.000500   0.003575  -0.000367
     3  C    0.006682   0.001729  -0.002264  -0.044426  -0.043068   0.005427
     4  C   -0.024746  -0.039246  -0.001531   0.006621  -0.004147  -0.000156
     5  C   -0.000339   0.003338  -0.004780   0.384082   0.200157  -0.016560
     6  C   -0.000033  -0.042336  -0.000682   0.005661  -0.001846  -0.000057
     7  H   -0.003007   0.008179   0.000726  -0.000167   0.002182  -0.000032
     8  H    0.000000   0.002828  -0.000875  -0.000212   0.000053  -0.000031
     9  H    0.006882  -0.036627   0.006200   0.000010  -0.000002   0.000003
    10  H    0.000024  -0.000067   0.000039  -0.004344   0.003739  -0.000199
    11  C    0.000002   0.003827   0.000076  -0.000031   0.000003   0.000010
    12  H   -0.000008  -0.000071   0.000002  -0.000033   0.000007  -0.000001
    13  H   -0.000264   0.000022   0.000004  -0.000049   0.000013   0.000000
    14  O   -0.000013  -0.000006  -0.000003   0.000001   0.000000  -0.000000
    15  H    0.000002  -0.000028   0.000001  -0.000000   0.000000   0.000000
    16  O   -0.000183  -0.000008  -0.000058   0.003454   0.001078  -0.000178
    17  H    0.000005  -0.000024   0.000047  -0.000293   0.006192  -0.000081
    18  O    0.229229   0.001570  -0.000029  -0.000065   0.000025   0.000001
    19  H    0.391235   0.000024   0.000050   0.000006   0.000003  -0.000000
    20  O    0.000024   8.319161   0.221059  -0.000079  -0.021821   0.001103
    21  H    0.000050   0.221059   0.351236   0.000848   0.057255  -0.001353
    22  H    0.000006  -0.000079   0.000848   0.590015  -0.044347  -0.005113
    23  O    0.000003  -0.021821   0.057255  -0.044347   8.378076   0.200646
    24  H   -0.000000   0.001103  -0.001353  -0.005113   0.200646   0.323603
    25  O    0.000522  -0.000001  -0.000007   0.000001  -0.000006  -0.000000
    26  H    0.000131  -0.000001   0.000000  -0.000000  -0.000000   0.000000
    27  H   -0.001029  -0.000008  -0.000001  -0.000005  -0.000005   0.000000
    28  O    0.000000  -0.000042   0.000525   0.000487  -0.024449   0.069824
    29  H   -0.000000   0.000052   0.000149   0.000001   0.001553  -0.002964
    30  H   -0.000000   0.000025   0.000054  -0.000960   0.003591  -0.008178
              25         26         27         28         29         30
     1  O    0.000000  -0.000000  -0.000002  -0.013716   0.000548   0.043558
     2  C    0.000307  -0.000011   0.000230  -0.000117  -0.000021   0.000350
     3  C   -0.003050   0.000097  -0.000196   0.000016  -0.000010   0.000367
     4  C    0.000472   0.000169  -0.001764   0.000002   0.000002   0.000001
     5  C   -0.000007  -0.000000   0.000326   0.004444  -0.000253  -0.004408
     6  C   -0.000002  -0.000000  -0.000004   0.000323   0.000106  -0.000785
     7  H    0.016940   0.000027  -0.005368   0.000000  -0.000000   0.000000
     8  H    0.000000  -0.000000   0.000000   0.000515   0.000037  -0.001373
     9  H    0.000002  -0.000001  -0.000015   0.000000  -0.000000  -0.000013
    10  H   -0.000021   0.000007  -0.000309   0.000003  -0.000000  -0.000012
    11  C    0.000000   0.000000  -0.000000  -0.000002   0.000004   0.000155
    12  H    0.000000   0.000000  -0.000000  -0.000002  -0.000000   0.000064
    13  H   -0.000000  -0.000000  -0.000000   0.000000  -0.000000  -0.000009
    14  O    0.000000  -0.000000   0.000000   0.000000  -0.000000  -0.000001
    15  H   -0.000000  -0.000000   0.000000   0.000000  -0.000000  -0.000001
    16  O   -0.007021   0.000528   0.016211   0.000000  -0.000000  -0.000007
    17  H    0.017629  -0.000652  -0.007730   0.000001  -0.000000  -0.000000
    18  O   -0.003980   0.000540   0.020594   0.000000  -0.000000   0.000000
    19  H    0.000522   0.000131  -0.001029   0.000000  -0.000000  -0.000000
    20  O   -0.000001  -0.000001  -0.000008  -0.000042   0.000052   0.000025
    21  H   -0.000007   0.000000  -0.000001   0.000525   0.000149   0.000054
    22  H    0.000001  -0.000000  -0.000005   0.000487   0.000001  -0.000960
    23  O   -0.000006  -0.000000  -0.000005  -0.024449   0.001553   0.003591
    24  H   -0.000000   0.000000   0.000000   0.069824  -0.002964  -0.008178
    25  O    8.314370   0.237633   0.222366  -0.000000   0.000000   0.000000
    26  H    0.237633   0.392087  -0.016618  -0.000000   0.000000   0.000000
    27  H    0.222366  -0.016618   0.359858  -0.000000   0.000000   0.000000
    28  O   -0.000000  -0.000000  -0.000000   8.300166   0.241538   0.215790
    29  H    0.000000   0.000000   0.000000   0.241538   0.371658  -0.014616
    30  H    0.000000   0.000000   0.000000   0.215790  -0.014616   0.343691
 Mulliken charges:
               1
     1  O   -0.542277
     2  C    0.103612
     3  C    0.116563
     4  C    0.058075
     5  C    0.292194
     6  C    0.095809
     7  H    0.153079
     8  H    0.126676
     9  H    0.148401
    10  H    0.162716
    11  C   -0.064852
    12  H    0.139188
    13  H    0.175501
    14  O   -0.610334
    15  H    0.392612
    16  O   -0.633276
    17  H    0.419646
    18  O   -0.639586
    19  H    0.397730
    20  O   -0.665698
    21  H    0.411765
    22  H    0.158975
    23  O   -0.661588
    24  H    0.432053
    25  O   -0.796147
    26  H    0.386063
    27  H    0.413470
    28  O   -0.795305
    29  H    0.402217
    30  H    0.422719
 Sum of Mulliken charges =  -0.00000
 Mulliken charges with hydrogens summed into heavy atoms:
               1
     1  O   -0.542277
     2  C    0.252013
     3  C    0.279279
     4  C    0.211154
     5  C    0.451169
     6  C    0.222485
    11  C    0.249836
    14  O   -0.217722
    16  O   -0.213630
    18  O   -0.241855
    20  O   -0.253933
    23  O   -0.229535
    25  O    0.003385
    28  O    0.029631
 APT charges:
               1
     1  O   -0.411581
     2  C   -0.347801
     3  C   -0.286110
     4  C   -0.194490
     5  C   -0.262699
     6  C   -0.307866
     7  H    0.344159
     8  H    0.449643
     9  H    0.454125
    10  H    0.390173
    11  C   -0.583868
    12  H    0.485457
    13  H    0.265086
    14  O   -0.851764
    15  H    0.764536
    16  O   -0.703069
    17  H    0.584343
    18  O   -0.902939
    19  H    0.707953
    20  O   -0.565401
    21  H    0.413859
    22  H    0.541076
    23  O   -0.797006
    24  H    0.645601
    25  O   -0.892637
    26  H    0.772717
    27  H    0.195710
    28  O   -0.835252
    29  H    0.744435
    30  H    0.183610
 Sum of APT charges =  -0.00000
 APT charges with hydrogens summed into heavy atoms:
               1
     1  O   -0.411581
     2  C    0.106324
     3  C    0.104063
     4  C    0.149669
     5  C    0.278378
     6  C    0.141777
    11  C    0.166675
    14  O   -0.087228
    16  O   -0.118726
    18  O   -0.194986
    20  O   -0.151543
    23  O   -0.151405
    25  O    0.075790
    28  O    0.092792
 Electronic spatial extent (au):  <R**2>=           3186.0529
 Charge=             -0.0000 electrons
 Dipole moment (field-independent basis, Debye):
    X=             -2.8960    Y=              1.9028    Z=              1.9433  Tot=              3.9729
 Quadrupole moment (field-independent basis, Debye-Ang):
   XX=            -75.2057   YY=            -88.4371   ZZ=            -86.5708
   XY=              5.5563   XZ=              3.7331   YZ=             -0.5365
 Traceless Quadrupole moment (field-independent basis, Debye-Ang):
   XX=              8.1988   YY=             -5.0325   ZZ=             -3.1663
   XY=              5.5563   XZ=              3.7331   YZ=             -0.5365
 Octapole moment (field-independent basis, Debye-Ang**2):
  XXX=            -39.5672  YYY=            -13.9419  ZZZ=             -7.4526  XYY=              2.6455
  XXY=             45.8008  XXZ=             48.9553  XZZ=              1.8754  YZZ=             -3.8714
  YYZ=             26.3823  XYZ=             16.2575
 Hexadecapole moment (field-independent basis, Debye-Ang**3):
 XXXX=          -1685.1565 YYYY=          -1485.7082 ZZZZ=           -533.3970 XXXY=             97.9118
 XXXZ=             38.1597 YYYX=            -11.9627 YYYZ=              5.4500 ZZZX=             23.3298
 ZZZY=            -17.7661 XXYY=           -487.2345 XXZZ=           -343.0772 YYZZ=           -280.3135
 XXYZ=            -19.4400 YYXZ=            -36.2981 ZZXY=             37.7490
 N-N= 1.110935151534D+03 E-N=-4.194098583798D+03  KE= 8.329052825263D+02
  Exact polarizability:   0.000   0.000   0.000   0.000   0.000   0.000
 Approx polarizability: 126.171  -1.777 132.870  -1.311   1.717 125.348
 Calling FoFJK, ICntrl=    100147 FMM=F ISym2X=0 I1Cent= 0 IOpClX= 0 NMat=1 NMatS=1 NMatT=0.
 -------------------------------------------------------------------
 Center     Atomic                   Forces (Hartrees/Bohr)
 Number     Number              X              Y              Z
 -------------------------------------------------------------------
      1        8          -0.000002373   -0.000001233    0.000007680
      2        6           0.000004831    0.000004227   -0.000000016
      3        6           0.000002434   -0.000006704    0.000006012
      4        6          -0.000004811    0.000003929   -0.000010617
      5        6          -0.000001448   -0.000003689    0.000006002
      6        6          -0.000002281   -0.000002995   -0.000006189
      7        1           0.000002926    0.000000846    0.000002574
      8        1           0.000000176    0.000001036    0.000000924
      9        1           0.000000359    0.000002156   -0.000004243
     10        1          -0.000000911   -0.000000551   -0.000004572
     11        6           0.000005096   -0.000004434   -0.000010838
     12        1          -0.000003211   -0.000004648   -0.000003764
     13        1          -0.000006075   -0.000003956   -0.000001480
     14        8          -0.000004541    0.000000594   -0.000012563
     15        1           0.000000821   -0.000000245   -0.000005484
     16        8          -0.000003391   -0.000003953   -0.000002019
     17        1           0.000000806   -0.000002324    0.000005726
     18        8          -0.000001334    0.000000949   -0.000008665
     19        1           0.000000276    0.000000811   -0.000008221
     20        8           0.000003508    0.000013276    0.000001092
     21        1           0.000001310    0.000002037    0.000001730
     22        1          -0.000000228   -0.000004660    0.000004366
     23        8           0.000001775    0.000001227    0.000011980
     24        1           0.000001259    0.000000804    0.000006444
     25        8          -0.000002038    0.000006065   -0.000009230
     26        1           0.000002752    0.000004437    0.000000310
     27        1           0.000000973   -0.000002255   -0.000001362
     28        8          -0.000000090   -0.000000729    0.000024652
     29        1           0.000002969    0.000000948    0.000004176
     30        1           0.000000459   -0.000000968    0.000005593
 -------------------------------------------------------------------
 Cartesian Forces:  Max     0.000024652 RMS     0.000005231
 IRC-IRC-IRC-IRC-IRC-IRC-IRC-IRC-IRC-IRC-IRC-IRC-IRC-IRC-IRC-IRC-IRC-IRC
          ******** Start new reaction path calculation ********
 Supplied step size of   0.1000 bohr.
    Integration on MW PES will use step size of   0.1100 sqrt(amu)*bohr.
 Point Number:   0          Path Number:   1
 Calculating another point on the path.
 IRC-IRC-IRC-IRC-IRC-IRC-IRC-IRC-IRC-IRC-IRC-IRC-IRC-IRC-IRC-IRC-IRC-IRC
                          Input orientation:                          
 ---------------------------------------------------------------------
 Center     Atomic      Atomic             Coordinates (Angstroms)
 Number     Number       Type             X           Y           Z
 ---------------------------------------------------------------------
      1          8           0       -1.535143   -0.409564   -0.692524
      2          6           0       -0.248288    0.841992    1.039103
      3          6           0        0.894372   -0.368907   -0.926361
      4          6           0        1.093909    0.490973    0.333450
      5          6           0       -0.363087   -1.226719   -0.791682
      6          6           0       -1.446307    0.816735    0.080046
      7          1           0        1.680513   -0.079709    1.064638
      8          1           0       -2.352664    0.840190    0.699883
      9          1           0       -0.186720    1.862803    1.433326
     10          1           0        0.724424    0.306017   -1.771217
     11          6           0       -1.486232    2.020199   -0.877678
     12          1           0       -2.265997    1.844862   -1.632921
     13          1           0       -0.532343    2.139400   -1.397188
     14          8           0       -1.688771    3.237900   -0.170109
     15          1           0       -2.591103    3.229244    0.186177
     16          8           0        2.026764   -1.132962   -1.282215
     17          1           0        2.381583   -1.560159   -0.483021
     18          8           0        1.837978    1.637395   -0.093867
     19          1           0        1.957394    2.217317    0.675595
     20          8           0       -0.466847   -0.002800    2.158246
     21          1           0       -0.403950   -0.915288    1.807482
     22          1           0       -0.517285   -1.818444   -1.699533
     23          8           0       -0.222371   -2.079256    0.326280
     24          1           0       -1.034912   -2.641016    0.343045
     25          8           0        4.142568   -0.471321    0.424162
     26          1           0        4.495039    0.070424    1.146378
     27          1           0        3.725121    0.167413   -0.179802
     28          8           0       -2.861943   -2.779906    0.126424
     29          1           0       -3.291231   -2.702060    0.992407
     30          1           0       -2.821636   -1.862785   -0.213722
 ---------------------------------------------------------------------
                    Distance matrix (angstroms):
                    1          2          3          4          5
     1  O    0.000000
     2  C    2.494177   0.000000
     3  C    2.441081   2.575849   0.000000
     4  C    2.962348   1.556488   1.538289   0.000000
     5  C    1.432232   2.764872   1.528130   2.517782   0.000000
     6  C    1.452090   1.534821   2.810228   2.573525   2.471634
     7  H    3.679248   2.137863   2.160030   1.097459   2.989625
     8  H    2.041819   2.131541   3.827509   3.483546   3.233465
     9  H    3.391333   1.096019   3.423071   2.175238   3.811419
    10  H    2.604089   3.021810   1.094617   2.144843   2.119303
    11  C    2.437299   2.568020   3.373051   3.234578   3.436761
    12  H    2.549693   3.495226   3.922746   4.121723   3.709900
    13  H    2.828318   2.774792   2.923833   2.890868   3.424331
    14  O    3.687888   3.045908   4.500401   3.942397   4.698576
    15  H    3.889485   3.451845   5.131566   4.593380   5.076994
    16  O    3.682149   3.803265   1.411638   2.473410   2.441475
    17  H    4.087603   3.873424   1.956381   2.555752   2.782026
    18  O    3.990787   2.503756   2.368267   1.431964   3.678965
    19  H    4.579309   2.624632   3.222551   1.960340   4.404421
    20  O    3.071417   1.419128   3.391423   2.451459   3.195437
    21  H    2.790230   1.924232   3.075397   2.528620   2.618074
    22  H    2.008742   3.827585   2.166039   3.473093   1.094582
    23  O    2.355674   3.007071   2.396146   2.887684   1.412961
    24  H    2.510380   3.637941   3.239753   3.786994   1.933698
    25  O    5.786813   4.624128   3.519258   3.198211   4.727561
    26  H    6.322582   4.806868   4.177805   3.522129   5.388881
    27  H    5.316594   4.210555   2.976261   2.700259   4.362505
    28  O    2.837181   4.558763   4.585976   5.137147   3.082141
    29  H    3.343407   4.671401   5.161835   5.464352   3.732778
    30  H    1.999041   3.937957   4.067953   4.601203   2.604435
                    6          7          8          9         10
     6  C    0.000000
     7  H    3.398534   0.000000
     8  H    1.098286   4.152803   0.000000
     9  H    2.124190   2.719530   2.504992   0.000000
    10  H    2.898289   3.017444   3.982480   3.677345   0.000000
    11  C    1.538556   4.267374   2.152167   2.655982   2.936636
    12  H    2.159443   5.153226   2.541427   3.704806   3.365975
    13  H    2.183345   3.985193   3.065815   2.864920   2.254031
    14  O    2.446101   4.887044   2.635651   2.591920   4.121043
    15  H    2.672457   5.474264   2.455265   3.033743   4.834187
    16  O    4.209429   2.595564   5.196290   4.609586   2.001468
    17  H    4.540859   2.253548   5.438201   4.688842   2.808600
    18  O    3.389728   2.077348   4.339015   2.546081   2.413726
    19  H    3.728470   2.346134   4.524784   2.301535   3.340685
    20  O    2.439240   2.411026   2.528588   2.021004   4.117666
    21  H    2.659031   2.365374   2.847097   2.811579   3.946124
    22  H    3.312725   3.936262   4.024195   4.845169   2.461770
    23  O    3.153634   2.857329   3.633303   4.094710   3.314428
    24  H    3.492055   3.801910   3.739331   4.710894   4.031174
    25  O    5.745696   2.573963   6.632052   5.020885   4.136140
    26  H    6.082239   2.819712   6.905282   5.021338   4.773406
    27  H    5.218506   2.406268   6.177860   4.558403   3.399411
    28  O    3.865489   5.367050   3.700449   5.515393   5.097646
    29  H    4.076526   5.621404   3.676142   5.538084   5.728143
    30  H    3.026162   5.008284   2.891485   4.851346   4.438922
                   11         12         13         14         15
    11  C    0.000000
    12  H    1.099622   0.000000
    13  H    1.092705   1.774227   0.000000
    14  O    1.422839   2.100849   2.012399   0.000000
    15  H    1.953027   2.308966   2.816611   0.970164   0.000000
    16  O    4.737849   5.236242   4.155792   5.843493   6.519947
    17  H    5.285329   5.875069   4.797228   6.299767   6.936412
    18  O    3.436753   4.387977   2.751195   3.873679   4.714782
    19  H    3.782866   4.827526   3.240570   3.879604   4.685334
    20  O    3.787942   4.585166   4.151436   4.173305   4.341386
    21  H    4.122924   4.787694   4.429166   4.776045   4.958771
    22  H    4.043449   4.059832   3.969404   5.410927   5.773714
    23  O    4.455602   4.838757   4.567656   5.537949   5.814696
    24  H    4.839502   5.054019   5.112080   5.937382   6.075054
    25  O    6.291729   7.118005   5.655791   6.936569   7.687207
    26  H    6.608633   7.522283   6.002079   7.071460   7.817515
    27  H    5.574769   6.388966   4.847346   6.224003   7.028759
    28  O    5.093311   4.983867   5.652257   6.138262   6.015547
    29  H    5.390266   5.349575   6.063116   6.261186   6.026654
    30  H    4.159532   4.008679   4.760141   5.225158   5.112907
                   16         17         18         19         20
    16  O    0.000000
    17  H    0.973192   0.000000
    18  O    3.020379   3.266695   0.000000
    19  H    3.881006   3.973871   0.970897   0.000000
    20  O    4.396832   4.185118   3.615863   3.606123   0.000000
    21  H    3.937254   3.663530   3.893271   4.082932   0.979605
    22  H    2.667625   3.154370   4.479760   5.296474   4.263985
    23  O    2.922556   2.775789   4.270252   4.830522   2.779845
    24  H    3.780152   3.677373   5.171961   5.715582   3.252358
    25  O    2.797520   2.260446   3.166413   3.473756   4.947046
    26  H    3.665867   3.127369   3.324692   3.357146   5.064538
    27  H    2.406389   2.209421   2.393647   2.838780   4.802920
    28  O    5.347536   5.417912   6.453707   6.964183   4.192506
    29  H    5.993082   5.971737   6.805854   7.200605   4.077049
    30  H    5.018097   5.218964   5.829033   6.346436   3.825023
                   21         22         23         24         25
    21  H    0.000000
    22  H    3.623215   0.000000
    23  O    1.892551   2.063714   0.000000
    24  H    2.349643   2.262010   0.987966   0.000000
    25  O    4.772997   5.295191   4.652712   5.614307   0.000000
    26  H    5.040712   6.065511   5.248584   6.211087   0.969185
    27  H    4.708585   4.924553   4.570157   5.551446   0.973147
    28  O    3.513472   3.123452   2.738283   1.845064   7.381151
    29  H    3.491890   3.965110   3.201486   2.348696   7.782060
    30  H    3.290626   2.742195   2.663576   2.026824   7.130442
                   26         27         28         29         30
    26  H    0.000000
    27  H    1.536533   0.000000
    28  O    7.955493   7.222873   0.000000
    29  H    8.266581   7.670538   0.969677   0.000000
    30  H    7.689011   6.854406   0.978997   1.542611   0.000000
 Symmetry turned off by external request.
 Stoichiometry    C6H16O8
 Framework group  C1[X(C6H16O8)]
 Deg. of freedom    84
 Full point group                 C1      NOp   1
 Rotational constants (GHZ):      0.6767661      0.5304866      0.3752210
 Standard basis: 6-31G(d) (6D, 7F)
   242 basis functions,   456 primitive gaussians,   242 cartesian basis functions
    58 alpha electrons       58 beta electrons
       nuclear repulsion energy      1110.9660226545 Hartrees.
 NAtoms=   30 NActive=   30 NUniq=   30 SFac= 1.00D+00 NAtFMM=   60 NAOKFM=F Big=F
 Integral buffers will be    131072 words long.
 Raffenetti 2 integral format.
 Two-electron integral symmetry is turned off.
 One-electron integrals computed using PRISM.
 NBasis=   242 RedAO= T EigKep=  1.05D-03  NBF=   242
 NBsUse=   242 1.00D-06 EigRej= -1.00D+00 NBFU=   242
 Initial guess from the checkpoint file:  "/scratch/10502187.yak.local/Gau-21911.chk"
 B after Tr=    -0.008305    0.008793    0.007884
         Rot=    1.000000   -0.000022    0.000083   -0.000021 Ang=  -0.01 deg.
 ExpMin= 1.61D-01 ExpMax= 5.48D+03 ExpMxC= 8.25D+02 IAcc=1 IRadAn=         1 AccDes= 0.00D+00
 Harris functional with IExCor=  402 and IRadAn=       1 diagonalized for initial guess.
 HarFok:  IExCor=  402 AccDes= 0.00D+00 IRadAn=         1 IDoV= 1 UseB2=F ITyADJ=14
 ICtDFT=  3500011 ScaDFX=  1.000000  1.000000  1.000000  1.000000
 FoFCou: FMM=F IPFlag=           0 FMFlag=      100000 FMFlg1=           0
         NFxFlg=           0 DoJE=T BraDBF=F KetDBF=T FulRan=T
         wScrn=  0.000000 ICntrl=     500 IOpCl=  0 I1Cent=   200000004 NGrid=           0
         NMat0=    1 NMatS0=      1 NMatT0=    0 NMatD0=    1 NMtDS0=    0 NMtDT0=    0
 Symmetry not used in FoFCou.
 Requested convergence on RMS density matrix=1.00D-08 within 128 cycles.
 Requested convergence on MAX density matrix=1.00D-06.
 Requested convergence on             energy=1.00D-06.
 No special actions if energy rises.
 Integral accuracy reduced to 1.0D-05 until final iterations.
 Initial convergence to 1.0D-05 achieved.  Increase integral accuracy.
 SCF Done:  E(RB3LYP) =  -839.986366629     A.U. after   11 cycles
            NFock= 11  Conv=0.33D-08     -V/T= 2.0085
 DoSCS=F DFT=T ScalE2(SS,OS)=  1.000000  1.000000
 Range of M.O.s used for correlation:     1   242
 NBasis=   242 NAE=    58 NBE=    58 NFC=     0 NFV=     0
 NROrb=    242 NOA=    58 NOB=    58 NVA=   184 NVB=   184
 Symmetrizing basis deriv contribution to polar:
 IMax=3 JMax=2 DiffMx= 0.00D+00
 Calling FoFJK, ICntrl=      2147 FMM=F ISym2X=0 I1Cent= 0 IOpClX= 0 NMat=1 NMatS=1 NMatT=0.
 -------------------------------------------------------------------
 Center     Atomic                   Forces (Hartrees/Bohr)
 Number     Number              X              Y              Z
 -------------------------------------------------------------------
      1        8           0.000004028   -0.000011160    0.000003057
      2        6           0.000010217    0.000005213   -0.000011754
      3        6           0.000011257   -0.000008842   -0.000001856
      4        6          -0.000001578   -0.000023824   -0.000011174
      5        6           0.000007711   -0.000021795    0.000025837
      6        6           0.000000732   -0.000009321   -0.000014781
      7        1          -0.000000438   -0.000002709   -0.000000080
      8        1           0.000000616    0.000000733    0.000000515
      9        1           0.000000555    0.000002609   -0.000005742
     10        1          -0.000010670    0.000003858   -0.000003065
     11        6           0.000005735   -0.000008677   -0.000017213
     12        1          -0.000003521   -0.000004736   -0.000004051
     13        1          -0.000006574   -0.000004623   -0.000002371
     14        8           0.000001937   -0.000005480   -0.000015386
     15        1           0.000001321   -0.000000524   -0.000005397
     16        8           0.000098688   -0.000169782    0.000221040
     17        1          -0.000075444    0.000187786   -0.000270118
     18        8           0.000083472   -0.000035720    0.000054209
     19        1          -0.000008550   -0.000007257   -0.000021741
     20        8           0.000010572    0.000027001   -0.000002275
     21        1          -0.000000125    0.000003668    0.000001881
     22        1          -0.000000231   -0.000007696    0.000006834
     23        8          -0.000021478    0.000003606    0.000059126
     24        1          -0.000000339    0.000000298    0.000008496
     25        8          -0.000058478    0.000705821    0.000049911
     26        1          -0.000236527   -0.000370065   -0.000424516
     27        1           0.000206975   -0.000253181    0.000351169
     28        8          -0.000021906    0.000003398    0.000021293
     29        1           0.000001328    0.000002684    0.000003435
     30        1           0.000000715   -0.000001283    0.000004717
 -------------------------------------------------------------------
 Cartesian Forces:  Max     0.000705821 RMS     0.000121584
 IRC-IRC-IRC-IRC-IRC-IRC-IRC-IRC-IRC-IRC-IRC-IRC-IRC-IRC-IRC-IRC-IRC-IRC
 Pt  1 Step number   1 out of a maximum of  20
 Modified Bulirsch-Stoer Extrapolation Cycles:
    EPS =    0.000010000000000
 Maximum DWI energy   std dev =  0.000000385 at pt     2
 Maximum DWI gradient std dev =  1.516413287 at pt     2
 CORRECTOR INTEGRATION CONVERGENCE:
   Recorrection delta-x convergence threshold:    0.010000
   Delta-x Convergence Met
 Point Number:   1          Path Number:   1
   CHANGE IN THE REACTION COORDINATE =    0.10951
   NET REACTION COORDINATE UP TO THIS POINT =    0.10951
  # OF POINTS ALONG THE PATH =   1
  # OF STEPS =   1

 PES minimum detected on this side of the pathway.
    Magnitude of the gradient =      0.0001054
 Calculation of REVERSE path complete.
 Reaction path calculation complete.
 
 Energies reported relative to the TS energy of        -839.986361
 --------------------------------------------------------------------------
    Summary of reaction path following
 --------------------------------------------------------------------------
                        Energy    RxCoord
   1                   -0.00001  -0.10951
   2                    0.00000   0.00000
 --------------------------------------------------------------------------
 
 Total number of points:                    1
 Total number of gradient calculations:     2
 Total number of Hessian calculations:      1
 IRC-IRC-IRC-IRC-IRC-IRC-IRC-IRC-IRC-IRC-IRC-IRC-IRC-IRC-IRC-IRC-IRC-IRC
                          Input orientation:                          
 ---------------------------------------------------------------------
 Center     Atomic      Atomic             Coordinates (Angstroms)
 Number     Number       Type             X           Y           Z
 ---------------------------------------------------------------------
      1          8           0       -1.535143   -0.409564   -0.692524
      2          6           0       -0.248288    0.841992    1.039103
      3          6           0        0.894372   -0.368907   -0.926361
      4          6           0        1.093909    0.490973    0.333450
      5          6           0       -0.363087   -1.226719   -0.791682
      6          6           0       -1.446307    0.816735    0.080046
      7          1           0        1.680513   -0.079709    1.064638
      8          1           0       -2.352664    0.840190    0.699883
      9          1           0       -0.186720    1.862803    1.433326
     10          1           0        0.724424    0.306017   -1.771217
     11          6           0       -1.486232    2.020199   -0.877678
     12          1           0       -2.265997    1.844862   -1.632921
     13          1           0       -0.532343    2.139400   -1.397188
     14          8           0       -1.688771    3.237900   -0.170109
     15          1           0       -2.591103    3.229244    0.186177
     16          8           0        2.026764   -1.132962   -1.282215
     17          1           0        2.381583   -1.560159   -0.483021
     18          8           0        1.837978    1.637395   -0.093867
     19          1           0        1.957394    2.217317    0.675595
     20          8           0       -0.466847   -0.002800    2.158246
     21          1           0       -0.403950   -0.915288    1.807482
     22          1           0       -0.517285   -1.818444   -1.699533
     23          8           0       -0.222371   -2.079256    0.326280
     24          1           0       -1.034912   -2.641016    0.343045
     25          8           0        4.142568   -0.471321    0.424162
     26          1           0        4.495039    0.070424    1.146378
     27          1           0        3.725121    0.167413   -0.179802
     28          8           0       -2.861943   -2.779906    0.126424
     29          1           0       -3.291231   -2.702060    0.992407
     30          1           0       -2.821636   -1.862785   -0.213722
 ---------------------------------------------------------------------
                    Distance matrix (angstroms):
                    1          2          3          4          5
     1  O    0.000000
     2  C    2.494177   0.000000
     3  C    2.441081   2.575849   0.000000
     4  C    2.962348   1.556488   1.538289   0.000000
     5  C    1.432232   2.764872   1.528130   2.517782   0.000000
     6  C    1.452090   1.534821   2.810228   2.573525   2.471634
     7  H    3.679248   2.137863   2.160030   1.097459   2.989625
     8  H    2.041819   2.131541   3.827509   3.483546   3.233465
     9  H    3.391333   1.096019   3.423071   2.175238   3.811419
    10  H    2.604089   3.021810   1.094617   2.144843   2.119303
    11  C    2.437299   2.568020   3.373051   3.234578   3.436761
    12  H    2.549693   3.495226   3.922746   4.121723   3.709900
    13  H    2.828318   2.774792   2.923833   2.890868   3.424331
    14  O    3.687888   3.045908   4.500401   3.942397   4.698576
    15  H    3.889485   3.451845   5.131566   4.593380   5.076994
    16  O    3.682149   3.803265   1.411638   2.473410   2.441475
    17  H    4.087603   3.873424   1.956381   2.555752   2.782026
    18  O    3.990787   2.503756   2.368267   1.431964   3.678965
    19  H    4.579309   2.624632   3.222551   1.960340   4.404421
    20  O    3.071417   1.419128   3.391423   2.451459   3.195437
    21  H    2.790230   1.924232   3.075397   2.528620   2.618074
    22  H    2.008742   3.827585   2.166039   3.473093   1.094582
    23  O    2.355674   3.007071   2.396146   2.887684   1.412961
    24  H    2.510380   3.637941   3.239753   3.786994   1.933698
    25  O    5.786813   4.624128   3.519258   3.198211   4.727561
    26  H    6.322582   4.806868   4.177805   3.522129   5.388881
    27  H    5.316594   4.210555   2.976261   2.700259   4.362505
    28  O    2.837181   4.558763   4.585976   5.137147   3.082141
    29  H    3.343407   4.671401   5.161835   5.464352   3.732778
    30  H    1.999041   3.937957   4.067953   4.601203   2.604435
                    6          7          8          9         10
     6  C    0.000000
     7  H    3.398534   0.000000
     8  H    1.098286   4.152803   0.000000
     9  H    2.124190   2.719530   2.504992   0.000000
    10  H    2.898289   3.017444   3.982480   3.677345   0.000000
    11  C    1.538556   4.267374   2.152167   2.655982   2.936636
    12  H    2.159443   5.153226   2.541427   3.704806   3.365975
    13  H    2.183345   3.985193   3.065815   2.864920   2.254031
    14  O    2.446101   4.887044   2.635651   2.591920   4.121043
    15  H    2.672457   5.474264   2.455265   3.033743   4.834187
    16  O    4.209429   2.595564   5.196290   4.609586   2.001468
    17  H    4.540859   2.253548   5.438201   4.688842   2.808600
    18  O    3.389728   2.077348   4.339015   2.546081   2.413726
    19  H    3.728470   2.346134   4.524784   2.301535   3.340685
    20  O    2.439240   2.411026   2.528588   2.021004   4.117666
    21  H    2.659031   2.365374   2.847097   2.811579   3.946124
    22  H    3.312725   3.936262   4.024195   4.845169   2.461770
    23  O    3.153634   2.857329   3.633303   4.094710   3.314428
    24  H    3.492055   3.801910   3.739331   4.710894   4.031174
    25  O    5.745696   2.573963   6.632052   5.020885   4.136140
    26  H    6.082239   2.819712   6.905282   5.021338   4.773406
    27  H    5.218506   2.406268   6.177860   4.558403   3.399411
    28  O    3.865489   5.367050   3.700449   5.515393   5.097646
    29  H    4.076526   5.621404   3.676142   5.538084   5.728143
    30  H    3.026162   5.008284   2.891485   4.851346   4.438922
                   11         12         13         14         15
    11  C    0.000000
    12  H    1.099622   0.000000
    13  H    1.092705   1.774227   0.000000
    14  O    1.422839   2.100849   2.012399   0.000000
    15  H    1.953027   2.308966   2.816611   0.970164   0.000000
    16  O    4.737849   5.236242   4.155792   5.843493   6.519947
    17  H    5.285329   5.875069   4.797228   6.299767   6.936412
    18  O    3.436753   4.387977   2.751195   3.873679   4.714782
    19  H    3.782866   4.827526   3.240570   3.879604   4.685334
    20  O    3.787942   4.585166   4.151436   4.173305   4.341386
    21  H    4.122924   4.787694   4.429166   4.776045   4.958771
    22  H    4.043449   4.059832   3.969404   5.410927   5.773714
    23  O    4.455602   4.838757   4.567656   5.537949   5.814696
    24  H    4.839502   5.054019   5.112080   5.937382   6.075054
    25  O    6.291729   7.118005   5.655791   6.936569   7.687207
    26  H    6.608633   7.522283   6.002079   7.071460   7.817515
    27  H    5.574769   6.388966   4.847346   6.224003   7.028759
    28  O    5.093311   4.983867   5.652257   6.138262   6.015547
    29  H    5.390266   5.349575   6.063116   6.261186   6.026654
    30  H    4.159532   4.008679   4.760141   5.225158   5.112907
                   16         17         18         19         20
    16  O    0.000000
    17  H    0.973192   0.000000
    18  O    3.020379   3.266695   0.000000
    19  H    3.881006   3.973871   0.970897   0.000000
    20  O    4.396832   4.185118   3.615863   3.606123   0.000000
    21  H    3.937254   3.663530   3.893271   4.082932   0.979605
    22  H    2.667625   3.154370   4.479760   5.296474   4.263985
    23  O    2.922556   2.775789   4.270252   4.830522   2.779845
    24  H    3.780152   3.677373   5.171961   5.715582   3.252358
    25  O    2.797520   2.260446   3.166413   3.473756   4.947046
    26  H    3.665867   3.127369   3.324692   3.357146   5.064538
    27  H    2.406389   2.209421   2.393647   2.838780   4.802920
    28  O    5.347536   5.417912   6.453707   6.964183   4.192506
    29  H    5.993082   5.971737   6.805854   7.200605   4.077049
    30  H    5.018097   5.218964   5.829033   6.346436   3.825023
                   21         22         23         24         25
    21  H    0.000000
    22  H    3.623215   0.000000
    23  O    1.892551   2.063714   0.000000
    24  H    2.349643   2.262010   0.987966   0.000000
    25  O    4.772997   5.295191   4.652712   5.614307   0.000000
    26  H    5.040712   6.065511   5.248584   6.211087   0.969185
    27  H    4.708585   4.924553   4.570157   5.551446   0.973147
    28  O    3.513472   3.123452   2.738283   1.845064   7.381151
    29  H    3.491890   3.965110   3.201486   2.348696   7.782060
    30  H    3.290626   2.742195   2.663576   2.026824   7.130442
                   26         27         28         29         30
    26  H    0.000000
    27  H    1.536533   0.000000
    28  O    7.955493   7.222873   0.000000
    29  H    8.266581   7.670538   0.969677   0.000000
    30  H    7.689011   6.854406   0.978997   1.542611   0.000000
 Symmetry turned off by external request.
 Stoichiometry    C6H16O8
 Framework group  C1[X(C6H16O8)]
 Deg. of freedom    84
 Full point group                 C1      NOp   1
 Rotational constants (GHZ):      0.6767661      0.5304866      0.3752210

 **********************************************************************

            Population analysis using the SCF density.

 **********************************************************************

 Alpha  occ. eigenvalues --  -19.17781 -19.16825 -19.16671 -19.16406 -19.15982
 Alpha  occ. eigenvalues --  -19.14541 -19.13957 -19.13614 -10.29422 -10.25046
 Alpha  occ. eigenvalues --  -10.24511 -10.24367 -10.24352 -10.24014  -1.08186
 Alpha  occ. eigenvalues --   -1.04033  -1.03204  -1.02502  -1.02068  -1.01190
 Alpha  occ. eigenvalues --   -1.00989  -0.99626  -0.78402  -0.77186  -0.69222
 Alpha  occ. eigenvalues --   -0.65998  -0.63740  -0.58677  -0.55601  -0.54275
 Alpha  occ. eigenvalues --   -0.53912  -0.52409  -0.51891  -0.50784  -0.49042
 Alpha  occ. eigenvalues --   -0.48760  -0.46331  -0.45041  -0.43559  -0.42511
 Alpha  occ. eigenvalues --   -0.41930  -0.41731  -0.39796  -0.38963  -0.37940
 Alpha  occ. eigenvalues --   -0.37211  -0.36114  -0.35512  -0.34313  -0.32207
 Alpha  occ. eigenvalues --   -0.31843  -0.30635  -0.30320  -0.29861  -0.29242
 Alpha  occ. eigenvalues --   -0.27632  -0.26323  -0.25654
 Alpha virt. eigenvalues --    0.04536   0.04784   0.05744   0.08183   0.09489
 Alpha virt. eigenvalues --    0.09743   0.11274   0.12522   0.13303   0.14004
 Alpha virt. eigenvalues --    0.14205   0.15502   0.16239   0.17937   0.18176
 Alpha virt. eigenvalues --    0.18700   0.20279   0.20623   0.21563   0.22329
 Alpha virt. eigenvalues --    0.23740   0.24903   0.25824   0.26314   0.30030
 Alpha virt. eigenvalues --    0.30629   0.32752   0.35842   0.52076   0.52880
 Alpha virt. eigenvalues --    0.53151   0.55206   0.56818   0.57184   0.58304
 Alpha virt. eigenvalues --    0.61086   0.62679   0.63167   0.64602   0.66767
 Alpha virt. eigenvalues --    0.67947   0.69377   0.71326   0.75041   0.76542
 Alpha virt. eigenvalues --    0.76998   0.78181   0.79372   0.80714   0.81264
 Alpha virt. eigenvalues --    0.82449   0.83138   0.83733   0.84580   0.85140
 Alpha virt. eigenvalues --    0.85786   0.87436   0.87653   0.88409   0.88621
 Alpha virt. eigenvalues --    0.90228   0.91061   0.92218   0.93945   0.95569
 Alpha virt. eigenvalues --    0.96723   0.98197   0.99251   1.01422   1.02054
 Alpha virt. eigenvalues --    1.02867   1.03383   1.03895   1.06120   1.07333
 Alpha virt. eigenvalues --    1.07689   1.09460   1.11764   1.12408   1.14638
 Alpha virt. eigenvalues --    1.17008   1.17871   1.19667   1.21695   1.23313
 Alpha virt. eigenvalues --    1.26065   1.26704   1.30578   1.32660   1.35137
 Alpha virt. eigenvalues --    1.37479   1.39068   1.43145   1.44375   1.46644
 Alpha virt. eigenvalues --    1.51220   1.53071   1.54747   1.57955   1.58547
 Alpha virt. eigenvalues --    1.61259   1.63402   1.64494   1.66654   1.68515
 Alpha virt. eigenvalues --    1.70309   1.71179   1.72220   1.73179   1.73630
 Alpha virt. eigenvalues --    1.74626   1.76784   1.77087   1.78181   1.79365
 Alpha virt. eigenvalues --    1.80639   1.81325   1.83149   1.83573   1.84758
 Alpha virt. eigenvalues --    1.86823   1.88081   1.91611   1.92717   1.93868
 Alpha virt. eigenvalues --    1.98253   1.99185   2.00129   2.05516   2.06675
 Alpha virt. eigenvalues --    2.07603   2.08632   2.11309   2.12501   2.16221
 Alpha virt. eigenvalues --    2.18559   2.19780   2.23551   2.25866   2.27716
 Alpha virt. eigenvalues --    2.28350   2.32323   2.34966   2.36762   2.37888
 Alpha virt. eigenvalues --    2.41153   2.44852   2.46088   2.47663   2.49749
 Alpha virt. eigenvalues --    2.52394   2.54365   2.55162   2.56121   2.57853
 Alpha virt. eigenvalues --    2.59575   2.60921   2.63118   2.64185   2.69614
 Alpha virt. eigenvalues --    2.76300   2.77015   2.84745   2.88622   2.90601
 Alpha virt. eigenvalues --    2.92919   2.97850   2.99960   3.04933   3.14744
 Alpha virt. eigenvalues --    3.62520   3.67624   3.71621   3.81813   3.88622
 Alpha virt. eigenvalues --    3.91593   3.99164   4.15862   4.25275   4.38254
 Alpha virt. eigenvalues --    4.53262   4.60011   4.60944   4.95313
          Condensed to atoms (all electrons):
               1          2          3          4          5          6
     1  O    8.401075  -0.026077  -0.014068  -0.012762   0.159093   0.159395
     2  C   -0.026077   4.987586  -0.030636   0.253422   0.005116   0.300716
     3  C   -0.014068  -0.030636   4.899201   0.289173   0.291819  -0.016904
     4  C   -0.012762   0.253422   0.289173   5.142402  -0.030301  -0.019110
     5  C    0.159093   0.005116   0.291819  -0.030301   4.845624  -0.022053
     6  C    0.159395   0.300716  -0.016904  -0.019110  -0.022053   5.067931
     7  H    0.000300  -0.050355  -0.039555   0.341238  -0.004830   0.005439
     8  H   -0.037919  -0.042349   0.000200   0.005100   0.002899   0.357331
     9  H    0.003252   0.362506   0.003774  -0.045652  -0.000220  -0.047071
    10  H    0.004808  -0.000659   0.373935  -0.044063  -0.057250  -0.001085
    11  C   -0.034454  -0.034009  -0.001885  -0.002507  -0.001323   0.286655
    12  H    0.006587   0.005364  -0.000008  -0.000264   0.000192  -0.046853
    13  H    0.001919  -0.009957  -0.002636   0.002078   0.000422  -0.038057
    14  O    0.001485  -0.004504   0.000068  -0.000108   0.000003  -0.039601
    15  H    0.000023  -0.000739   0.000002   0.000007  -0.000000  -0.003073
    16  O    0.001418   0.002905   0.270000  -0.036337  -0.041721  -0.000076
    17  H    0.000100   0.000270  -0.027786  -0.005827  -0.008054   0.000002
    18  O    0.000037  -0.025968  -0.034346   0.170719   0.002545  -0.000014
    19  H    0.000013  -0.002959   0.006687  -0.024802  -0.000340  -0.000032
    20  O    0.000254   0.243135   0.001723  -0.039426   0.003347  -0.042353
    21  H    0.001269  -0.039729  -0.002272  -0.001535  -0.004801  -0.000676
    22  H   -0.049539  -0.000499  -0.044338   0.006610   0.384113   0.005664
    23  O   -0.056832   0.003594  -0.042898  -0.004162   0.200079  -0.001849
    24  H    0.002590  -0.000368   0.005414  -0.000154  -0.016553  -0.000057
    25  O    0.000000   0.000307  -0.003043   0.000452  -0.000004  -0.000002
    26  H   -0.000000  -0.000012   0.000094   0.000160  -0.000000  -0.000000
    27  H   -0.000002   0.000239  -0.000148  -0.001822   0.000310  -0.000004
    28  O   -0.013723  -0.000117   0.000016   0.000002   0.004447   0.000323
    29  H    0.000549  -0.000021  -0.000010   0.000002  -0.000253   0.000106
    30  H    0.043600   0.000350   0.000365   0.000002  -0.004413  -0.000784
               7          8          9         10         11         12
     1  O    0.000300  -0.037919   0.003252   0.004808  -0.034454   0.006587
     2  C   -0.050355  -0.042349   0.362506  -0.000659  -0.034009   0.005364
     3  C   -0.039555   0.000200   0.003774   0.373935  -0.001885  -0.000008
     4  C    0.341238   0.005100  -0.045652  -0.044063  -0.002507  -0.000264
     5  C   -0.004830   0.002899  -0.000220  -0.057250  -0.001323   0.000192
     6  C    0.005439   0.357331  -0.047071  -0.001085   0.286655  -0.046853
     7  H    0.605241  -0.000256  -0.000381   0.005140  -0.000018   0.000009
     8  H   -0.000256   0.636118  -0.001409   0.000058  -0.055500  -0.005318
     9  H   -0.000381  -0.001409   0.589005  -0.000222  -0.004601   0.000468
    10  H    0.005140   0.000058  -0.000222   0.585315   0.000262   0.000208
    11  C   -0.000018  -0.055500  -0.004601   0.000262   4.984775   0.351046
    12  H    0.000009  -0.005318   0.000468   0.000208   0.351046   0.622058
    13  H    0.000125   0.005213   0.000105   0.005553   0.373729  -0.036706
    14  O   -0.000007   0.002052   0.016292   0.000012   0.231204  -0.028826
    15  H   -0.000000   0.006370  -0.000195   0.000004  -0.032040  -0.007289
    16  O   -0.005342   0.000003  -0.000045  -0.038770   0.000024  -0.000001
    17  H    0.007898  -0.000001   0.000000   0.006999   0.000001   0.000000
    18  O   -0.036447  -0.000131  -0.000331  -0.001186  -0.000425   0.000095
    19  H   -0.002930  -0.000000   0.006951   0.000027   0.000001  -0.000008
    20  O    0.008229   0.002832  -0.036643  -0.000067   0.003827  -0.000071
    21  H    0.000726  -0.000874   0.006197   0.000040   0.000077   0.000002
    22  H   -0.000167  -0.000212   0.000010  -0.004315  -0.000031  -0.000033
    23  O    0.002218   0.000054  -0.000002   0.003752   0.000003   0.000007
    24  H   -0.000033  -0.000031   0.000003  -0.000201   0.000010  -0.000001
    25  O    0.016813   0.000000   0.000002  -0.000024   0.000000   0.000000
    26  H    0.000100  -0.000000  -0.000001   0.000007   0.000000   0.000000
    27  H   -0.005425   0.000000  -0.000016  -0.000302  -0.000000  -0.000000
    28  O    0.000000   0.000517   0.000000   0.000003  -0.000002  -0.000002
    29  H   -0.000000   0.000037  -0.000000  -0.000000   0.000004  -0.000000
    30  H    0.000000  -0.001378  -0.000013  -0.000012   0.000155   0.000064
              13         14         15         16         17         18
     1  O    0.001919   0.001485   0.000023   0.001418   0.000100   0.000037
     2  C   -0.009957  -0.004504  -0.000739   0.002905   0.000270  -0.025968
     3  C   -0.002636   0.000068   0.000002   0.270000  -0.027786  -0.034346
     4  C    0.002078  -0.000108   0.000007  -0.036337  -0.005827   0.170719
     5  C    0.000422   0.000003  -0.000000  -0.041721  -0.008054   0.002545
     6  C   -0.038057  -0.039601  -0.003073  -0.000076   0.000002  -0.000014
     7  H    0.000125  -0.000007  -0.000000  -0.005342   0.007898  -0.036447
     8  H    0.005213   0.002052   0.006370   0.000003  -0.000001  -0.000131
     9  H    0.000105   0.016292  -0.000195  -0.000045   0.000000  -0.000331
    10  H    0.005553   0.000012   0.000004  -0.038770   0.006999  -0.001186
    11  C    0.373729   0.231204  -0.032040   0.000024   0.000001  -0.000425
    12  H   -0.036706  -0.028826  -0.007289  -0.000001   0.000000   0.000095
    13  H    0.542548  -0.034489   0.007015   0.000009   0.000001   0.007954
    14  O   -0.034489   8.232354   0.234593  -0.000000   0.000000  -0.000083
    15  H    0.007015   0.234593   0.402732   0.000000  -0.000000  -0.000008
    16  O    0.000009  -0.000000   0.000000   8.236813   0.231538   0.001021
    17  H    0.000001   0.000000  -0.000000   0.231538   0.359324  -0.000500
    18  O    0.007954  -0.000083  -0.000008   0.001021  -0.000500   8.307857
    19  H   -0.000263  -0.000013   0.000002  -0.000181   0.000003   0.229170
    20  O    0.000021  -0.000006  -0.000028  -0.000008  -0.000025   0.001567
    21  H    0.000004  -0.000003   0.000001  -0.000057   0.000045  -0.000029
    22  H   -0.000049   0.000001  -0.000000   0.003425  -0.000293  -0.000065
    23  O    0.000013   0.000000   0.000000   0.001233   0.005802   0.000025
    24  H    0.000000  -0.000000   0.000000  -0.000182  -0.000075   0.000001
    25  O   -0.000000   0.000000  -0.000000  -0.007041   0.018922  -0.004174
    26  H   -0.000000  -0.000000  -0.000000   0.000538  -0.000701   0.000486
    27  H   -0.000000   0.000000   0.000000   0.015060  -0.007755   0.021706
    28  O    0.000000   0.000000   0.000000   0.000000   0.000000   0.000000
    29  H   -0.000000  -0.000000  -0.000000  -0.000000  -0.000000  -0.000000
    30  H   -0.000009  -0.000001  -0.000001  -0.000007  -0.000000   0.000000
              19         20         21         22         23         24
     1  O    0.000013   0.000254   0.001269  -0.049539  -0.056832   0.002590
     2  C   -0.002959   0.243135  -0.039729  -0.000499   0.003594  -0.000368
     3  C    0.006687   0.001723  -0.002272  -0.044338  -0.042898   0.005414
     4  C   -0.024802  -0.039426  -0.001535   0.006610  -0.004162  -0.000154
     5  C   -0.000340   0.003347  -0.004801   0.384113   0.200079  -0.016553
     6  C   -0.000032  -0.042353  -0.000676   0.005664  -0.001849  -0.000057
     7  H   -0.002930   0.008229   0.000726  -0.000167   0.002218  -0.000033
     8  H   -0.000000   0.002832  -0.000874  -0.000212   0.000054  -0.000031
     9  H    0.006951  -0.036643   0.006197   0.000010  -0.000002   0.000003
    10  H    0.000027  -0.000067   0.000040  -0.004315   0.003752  -0.000201
    11  C    0.000001   0.003827   0.000077  -0.000031   0.000003   0.000010
    12  H   -0.000008  -0.000071   0.000002  -0.000033   0.000007  -0.000001
    13  H   -0.000263   0.000021   0.000004  -0.000049   0.000013   0.000000
    14  O   -0.000013  -0.000006  -0.000003   0.000001   0.000000  -0.000000
    15  H    0.000002  -0.000028   0.000001  -0.000000   0.000000   0.000000
    16  O   -0.000181  -0.000008  -0.000057   0.003425   0.001233  -0.000182
    17  H    0.000003  -0.000025   0.000045  -0.000293   0.005802  -0.000075
    18  O    0.229170   0.001567  -0.000029  -0.000065   0.000025   0.000001
    19  H    0.391191   0.000025   0.000051   0.000006   0.000003  -0.000000
    20  O    0.000025   8.319386   0.220945  -0.000080  -0.021923   0.001105
    21  H    0.000051   0.220945   0.351106   0.000851   0.057472  -0.001365
    22  H    0.000006  -0.000080   0.000851   0.589832  -0.044266  -0.005123
    23  O    0.000003  -0.021923   0.057472  -0.044266   8.377471   0.200681
    24  H   -0.000000   0.001105  -0.001365  -0.005123   0.200681   0.323781
    25  O    0.000519  -0.000001  -0.000007   0.000001  -0.000006  -0.000000
    26  H    0.000122  -0.000001   0.000000  -0.000000  -0.000000   0.000000
    27  H   -0.001065  -0.000008  -0.000001  -0.000004  -0.000005   0.000000
    28  O    0.000000  -0.000042   0.000525   0.000487  -0.024443   0.069770
    29  H   -0.000000   0.000052   0.000149   0.000001   0.001555  -0.002964
    30  H   -0.000000   0.000024   0.000054  -0.000960   0.003598  -0.008179
              25         26         27         28         29         30
     1  O    0.000000  -0.000000  -0.000002  -0.013723   0.000549   0.043600
     2  C    0.000307  -0.000012   0.000239  -0.000117  -0.000021   0.000350
     3  C   -0.003043   0.000094  -0.000148   0.000016  -0.000010   0.000365
     4  C    0.000452   0.000160  -0.001822   0.000002   0.000002   0.000002
     5  C   -0.000004  -0.000000   0.000310   0.004447  -0.000253  -0.004413
     6  C   -0.000002  -0.000000  -0.000004   0.000323   0.000106  -0.000784
     7  H    0.016813   0.000100  -0.005425   0.000000  -0.000000   0.000000
     8  H    0.000000  -0.000000   0.000000   0.000517   0.000037  -0.001378
     9  H    0.000002  -0.000001  -0.000016   0.000000  -0.000000  -0.000013
    10  H   -0.000024   0.000007  -0.000302   0.000003  -0.000000  -0.000012
    11  C    0.000000   0.000000  -0.000000  -0.000002   0.000004   0.000155
    12  H    0.000000   0.000000  -0.000000  -0.000002  -0.000000   0.000064
    13  H   -0.000000  -0.000000  -0.000000   0.000000  -0.000000  -0.000009
    14  O    0.000000  -0.000000   0.000000   0.000000  -0.000000  -0.000001
    15  H   -0.000000  -0.000000   0.000000   0.000000  -0.000000  -0.000001
    16  O   -0.007041   0.000538   0.015060   0.000000  -0.000000  -0.000007
    17  H    0.018922  -0.000701  -0.007755   0.000000  -0.000000  -0.000000
    18  O   -0.004174   0.000486   0.021706   0.000000  -0.000000   0.000000
    19  H    0.000519   0.000122  -0.001065   0.000000  -0.000000  -0.000000
    20  O   -0.000001  -0.000001  -0.000008  -0.000042   0.000052   0.000024
    21  H   -0.000007   0.000000  -0.000001   0.000525   0.000149   0.000054
    22  H    0.000001  -0.000000  -0.000004   0.000487   0.000001  -0.000960
    23  O   -0.000006  -0.000000  -0.000005  -0.024443   0.001555   0.003598
    24  H   -0.000000   0.000000   0.000000   0.069770  -0.002964  -0.008179
    25  O    8.312567   0.237547   0.222567  -0.000000   0.000000   0.000000
    26  H    0.237547   0.391842  -0.016662  -0.000000   0.000000   0.000000
    27  H    0.222567  -0.016662   0.359828  -0.000000   0.000000   0.000000
    28  O   -0.000000  -0.000000  -0.000000   8.300279   0.241510   0.215753
    29  H    0.000000   0.000000   0.000000   0.241510   0.371789  -0.014621
    30  H    0.000000   0.000000   0.000000   0.215753  -0.014621   0.343724
 Mulliken charges:
               1
     1  O   -0.542391
     2  C    0.103446
     3  C    0.118063
     4  C    0.057465
     5  C    0.292107
     6  C    0.096092
     7  H    0.152269
     8  H    0.126598
     9  H    0.148237
    10  H    0.162035
    11  C   -0.064976
    12  H    0.139281
    13  H    0.175457
    14  O   -0.610423
    15  H    0.392625
    16  O   -0.634221
    17  H    0.420114
    18  O   -0.639476
    19  H    0.397822
    20  O   -0.665790
    21  H    0.411837
    22  H    0.158972
    23  O   -0.661173
    24  H    0.431931
    25  O   -0.795393
    26  H    0.386481
    27  H    0.413509
    28  O   -0.795304
    29  H    0.402117
    30  H    0.422689
 Sum of Mulliken charges =  -0.00000
 Mulliken charges with hydrogens summed into heavy atoms:
               1
     1  O   -0.542391
     2  C    0.251683
     3  C    0.280098
     4  C    0.209734
     5  C    0.451079
     6  C    0.222690
    11  C    0.249762
    14  O   -0.217798
    16  O   -0.214107
    18  O   -0.241654
    20  O   -0.253952
    23  O   -0.229242
    25  O    0.004598
    28  O    0.029501
 APT charges:
               1
     1  O   -0.411719
     2  C   -0.349046
     3  C   -0.286486
     4  C   -0.193630
     5  C   -0.260691
     6  C   -0.308738
     7  H    0.343084
     8  H    0.450177
     9  H    0.454458
    10  H    0.389324
    11  C   -0.583017
    12  H    0.485637
    13  H    0.264427
    14  O   -0.852614
    15  H    0.765279
    16  O   -0.702616
    17  H    0.584189
    18  O   -0.903970
    19  H    0.707848
    20  O   -0.564532
    21  H    0.413124
    22  H    0.540473
    23  O   -0.797102
    24  H    0.645808
    25  O   -0.897641
    26  H    0.775628
    27  H    0.199621
    28  O   -0.835816
    29  H    0.744889
    30  H    0.183651
 Sum of APT charges =  -0.00000
 APT charges with hydrogens summed into heavy atoms:
               1
     1  O   -0.411719
     2  C    0.105413
     3  C    0.102838
     4  C    0.149454
     5  C    0.279782
     6  C    0.141438
    11  C    0.167047
    14  O   -0.087335
    16  O   -0.118427
    18  O   -0.196122
    20  O   -0.151408
    23  O   -0.151294
    25  O    0.077608
    28  O    0.092725
 Electronic spatial extent (au):  <R**2>=           3185.5174
 Charge=             -0.0000 electrons
 Dipole moment (field-independent basis, Debye):
    X=             -2.8478    Y=              1.9324    Z=              2.0243  Tot=              3.9927
 Quadrupole moment (field-independent basis, Debye-Ang):
   XX=            -74.9461   YY=            -88.5151   ZZ=            -86.5080
   XY=              5.4658   XZ=              4.0277   YZ=             -0.6082
 Traceless Quadrupole moment (field-independent basis, Debye-Ang):
   XX=              8.3770   YY=             -5.1920   ZZ=             -3.1850
   XY=              5.4658   XZ=              4.0277   YZ=             -0.6082
 Octapole moment (field-independent basis, Debye-Ang**2):
  XXX=            -37.4339  YYY=            -14.7959  ZZZ=             -8.3224  XYY=              2.9818
  XXY=             44.7979  XXZ=             49.8527  XZZ=              2.5982  YZZ=             -4.3290
  YYZ=             26.0531  XYZ=             15.9459
 Hexadecapole moment (field-independent basis, Debye-Ang**3):
 XXXX=          -1680.1042 YYYY=          -1486.1533 ZZZZ=           -533.5313 XXXY=             93.0312
 XXXZ=             42.3835 YYYX=            -11.6924 YYYZ=              5.6524 ZZZX=             24.1636
 ZZZY=            -17.9217 XXYY=           -487.0172 XXZZ=           -341.1582 YYZZ=           -280.1458
 XXYZ=            -20.5990 YYXZ=            -36.0887 ZZXY=             37.5416
 N-N= 1.110966022654D+03 E-N=-4.194167202824D+03  KE= 8.329015374974D+02
  Exact polarizability:   0.000   0.000   0.000   0.000   0.000   0.000
 Approx polarizability: 126.231  -1.901 132.829  -1.281   1.749 125.431

 This type of calculation cannot be archived.


 WE HAVE SEEN THAT MAN ON THE AVERAGE DOES NOT LIVE ABOVE
 TWO-AND-TWENTY YEARS.  DURING THESE TWO AND TWENTY
 YEARS HE IS LIABLE TO TWO AND TWENTY THOUSAND EVILS,
 MANY OF WHICH ARE INCURABLE.  YET EVEN IN THIS DREADFUL STATE
 MEN STILL STRUT AND POSE ON THE STAGE OF LIFE.
 THEY MAKE LOVE AT THE RISK OF DESTRUCTION,
 INTRIGUE, CARRY ON WAR, AND FORM PROJECTS, JUST AS IF THEY
 WERE TO LIVE IN LUXURY AND HAPPINESS FOR A THOUSAND
 AGES.

                                              -- VOLTAIRE
 Job cpu time:       0 days  0 hours 44 minutes 16.4 seconds.
 File lengths (MBytes):  RWF=    220 Int=      0 D2E=      0 Chk=      9 Scr=      1
 Normal termination of Gaussian 09 at Tue Jan 31 13:49:16 2017.
