 Entering Gaussian System, Link 0=g09
 Initial command:
 /global/software/gaussian/g09.e01/l1.exe "/scratch/10502114.yak.local/Gau-18951.inp" -scrdir="/scratch/10502114.yak.local/"
 Entering Link 1 = /global/software/gaussian/g09.e01/l1.exe PID=     18952.
  
 Copyright (c) 1988,1990,1992,1993,1995,1998,2003,2009,2015,
            Gaussian, Inc.  All Rights Reserved.
  
 This is part of the Gaussian(R) 09 program.  It is based on
 the Gaussian(R) 03 system (copyright 2003, Gaussian, Inc.),
 the Gaussian(R) 98 system (copyright 1998, Gaussian, Inc.),
 the Gaussian(R) 94 system (copyright 1995, Gaussian, Inc.),
 the Gaussian 92(TM) system (copyright 1992, Gaussian, Inc.),
 the Gaussian 90(TM) system (copyright 1990, Gaussian, Inc.),
 the Gaussian 88(TM) system (copyright 1988, Gaussian, Inc.),
 the Gaussian 86(TM) system (copyright 1986, Carnegie Mellon
 University), and the Gaussian 82(TM) system (copyright 1983,
 Carnegie Mellon University). Gaussian is a federally registered
 trademark of Gaussian, Inc.
  
 This software contains proprietary and confidential information,
 including trade secrets, belonging to Gaussian, Inc.
  
 This software is provided under written license and may be
 used, copied, transmitted, or stored only in accord with that
 written license.
  
 The following legend is applicable only to US Government
 contracts under FAR:
  
                    RESTRICTED RIGHTS LEGEND
  
 Use, reproduction and disclosure by the US Government is
 subject to restrictions as set forth in subparagraphs (a)
 and (c) of the Commercial Computer Software - Restricted
 Rights clause in FAR 52.227-19.
  
 Gaussian, Inc.
 340 Quinnipiac St., Bldg. 40, Wallingford CT 06492
  
  
 ---------------------------------------------------------------
 Warning -- This program may not be used in any manner that
 competes with the business of Gaussian, Inc. or will provide
 assistance to any competitor of Gaussian, Inc.  The licensee
 of this program is prohibited from giving any competitor of
 Gaussian, Inc. access to this program.  By using this program,
 the user acknowledges that Gaussian, Inc. is engaged in the
 business of creating and licensing software in the field of
 computational chemistry and represents and warrants to the
 licensee that it is not a competitor of Gaussian, Inc. and that
 it will not use this program in any manner prohibited above.
 ---------------------------------------------------------------
  

 Cite this work as:
 Gaussian 09, Revision E.01,
 M. J. Frisch, G. W. Trucks, H. B. Schlegel, G. E. Scuseria, 
 M. A. Robb, J. R. Cheeseman, G. Scalmani, V. Barone, B. Mennucci, 
 G. A. Petersson, H. Nakatsuji, M. Caricato, X. Li, H. P. Hratchian, 
 A. F. Izmaylov, J. Bloino, G. Zheng, J. L. Sonnenberg, M. Hada, 
 M. Ehara, K. Toyota, R. Fukuda, J. Hasegawa, M. Ishida, T. Nakajima, 
 Y. Honda, O. Kitao, H. Nakai, T. Vreven, J. A. Montgomery, Jr., 
 J. E. Peralta, F. Ogliaro, M. Bearpark, J. J. Heyd, E. Brothers, 
 K. N. Kudin, V. N. Staroverov, T. Keith, R. Kobayashi, J. Normand, 
 K. Raghavachari, A. Rendell, J. C. Burant, S. S. Iyengar, J. Tomasi, 
 M. Cossi, N. Rega, J. M. Millam, M. Klene, J. E. Knox, J. B. Cross, 
 V. Bakken, C. Adamo, J. Jaramillo, R. Gomperts, R. E. Stratmann, 
 O. Yazyev, A. J. Austin, R. Cammi, C. Pomelli, J. W. Ochterski, 
 R. L. Martin, K. Morokuma, V. G. Zakrzewski, G. A. Voth, 
 P. Salvador, J. J. Dannenberg, S. Dapprich, A. D. Daniels, 
 O. Farkas, J. B. Foresman, J. V. Ortiz, J. Cioslowski, 
 and D. J. Fox, Gaussian, Inc., Wallingford CT, 2013.
 
 ******************************************
 Gaussian 09:  ES64L-G09RevE.01 30-Nov-2015
                31-Jan-2017 
 ******************************************
 %NPROCS=4
 Will use up to    4 processors via shared memory.
 --------------------------------------------------
 # b3lyp/6-31g(d) irc=(calcfc,forward,maxpoints=20)
 --------------------------------------------------
 1/10=4,14=-1,18=10,22=1,26=3,38=1,42=20,44=3/1,23;
 2/12=2,17=6,18=5,29=1,40=1/2;
 3/5=1,6=6,7=1,11=2,16=1,25=1,30=1,71=2,74=-5,140=1/1,2,3;
 4//1;
 5/5=2,38=5/2;
 8/6=4,10=90,11=11/1;
 11/6=1,8=1,9=11,15=111,16=1/1,2,10;
 10/6=1,13=1/2;
 6/7=2,8=2,9=2,10=2,28=1/1;
 7/10=1,18=20,25=1/1,2,3,16;
 1/10=4,14=-1,18=10,22=1,26=3,42=20,44=3/23(2);
 2/29=1/2;
 99/5=20/99;
 2/29=1/2;
 3/5=1,6=6,7=1,11=2,16=1,25=1,30=1,71=2,74=-5,140=1/1,2,3;
 4/5=5,16=3,69=1/1;
 5/5=2,38=5/2;
 8/6=4,10=90,11=11/1;
 11/6=1,8=1,9=11,15=111,16=1/1,2,10;
 10/6=1,13=1/2;
 7/10=1,18=20,25=1/1,2,3,16;
 1/14=-1,18=10,22=1,26=3,42=20,44=3/23(-8);
 2/29=1/2;
 6/7=2,8=2,9=2,10=2,19=2,28=1/1;
 99/5=20,9=1/99;
 -------------------------------------------
 ./2/glo_2w_alpha_boat2_b3lyp_631Gd_iopt.out
 -------------------------------------------
 Symbolic Z-matrix:
 Charge =  0 Multiplicity = 1
 H                     0.01061   0.56301  -1.37714 
 C                    -0.09254   0.95347  -0.35148 
 C                    -2.16874  -0.0521    0.73089 
 C                     0.00313  -1.34115   0.29409 
 C                    -1.56375  -1.38956   0.25087 
 O                     0.46637   0.01214   0.55044 
 C                    -1.61138   1.13177  -0.07796 
 H                    -3.24962  -0.09056   0.53687 
 H                    -1.8863   -2.18413   0.93509 
 H                    -1.80076   2.04384   0.50553 
 C                     0.67556   2.26564  -0.238 
 H                     0.68952   2.59624   0.80495 
 H                     0.15369   3.03745  -0.82786 
 O                     2.04201   2.17617  -0.63783 
 H                     2.07686   1.76102  -1.51496 
 O                    -2.1053   -1.74674  -1.00267 
 H                    -2.02043  -0.98411  -1.59977 
 O                    -1.89949   0.22303   2.10097 
 H                    -2.34709  -0.45646   2.62855 
 O                    -2.34731   1.16127  -1.309 
 H                    -2.06178   1.9338   -1.82128 
 H                     0.37345  -1.87332   1.18026 
 O                     0.51617  -1.83493  -0.88248 
 H                     1.5054   -1.87952  -0.78891 
 H                     3.17023   1.09769   0.59621 
 H                     3.61135  -2.53087  -0.0933 
 O                     3.21935  -1.76646  -0.54024 
 H                     3.35154  -1.00529   0.08701 
 O                     3.19926   0.32381   1.19288 
 H                     2.24106   0.17636   1.32157 
 
 IRC-IRC-IRC-IRC-IRC-IRC-IRC-IRC-IRC-IRC-IRC-IRC-IRC-IRC-IRC-IRC-IRC-IRC
 ------------------------------------------------------------------------
 INPUT DATA FOR L123
 ------------------------------------------------------------------------
 GENERAL PARAMETERS:
 Rxn path following direction = Forward
 Maximum points per path      =  20
 Step size                    =   0.100 bohr
 Integration scheme           = HPC                                 
    Redo corrector integration= Yes                                 
    DWI Weight Power          =  2
    DWI will use Hessian update vectors when possible.
    Max correction cycles     =  20
 Initial Hessian              = CalcFC
 Hessian evaluation           = All updating
 Hessian updating method      = Bofill                              
 ------------------------------------------------------------------------
 IRC-IRC-IRC-IRC-IRC-IRC-IRC-IRC-IRC-IRC-IRC-IRC-IRC-IRC-IRC-IRC-IRC-IRC
                          Input orientation:                          
 ---------------------------------------------------------------------
 Center     Atomic      Atomic             Coordinates (Angstroms)
 Number     Number       Type             X           Y           Z
 ---------------------------------------------------------------------
      1          1           0        0.010610    0.563010   -1.377140
      2          6           0       -0.092540    0.953470   -0.351480
      3          6           0       -2.168740   -0.052100    0.730890
      4          6           0        0.003130   -1.341150    0.294090
      5          6           0       -1.563750   -1.389560    0.250870
      6          8           0        0.466370    0.012140    0.550440
      7          6           0       -1.611380    1.131770   -0.077960
      8          1           0       -3.249620   -0.090560    0.536870
      9          1           0       -1.886300   -2.184130    0.935090
     10          1           0       -1.800760    2.043840    0.505530
     11          6           0        0.675560    2.265640   -0.238000
     12          1           0        0.689520    2.596240    0.804950
     13          1           0        0.153690    3.037450   -0.827860
     14          8           0        2.042010    2.176170   -0.637830
     15          1           0        2.076860    1.761020   -1.514960
     16          8           0       -2.105300   -1.746740   -1.002670
     17          1           0       -2.020430   -0.984110   -1.599770
     18          8           0       -1.899490    0.223030    2.100970
     19          1           0       -2.347090   -0.456460    2.628550
     20          8           0       -2.347310    1.161270   -1.309000
     21          1           0       -2.061780    1.933800   -1.821280
     22          1           0        0.373450   -1.873320    1.180260
     23          8           0        0.516170   -1.834930   -0.882480
     24          1           0        1.505400   -1.879520   -0.788910
     25          1           0        3.170230    1.097690    0.596210
     26          1           0        3.611350   -2.530870   -0.093300
     27          8           0        3.219350   -1.766460   -0.540240
     28          1           0        3.351540   -1.005290    0.087010
     29          8           0        3.199260    0.323810    1.192880
     30          1           0        2.241060    0.176360    1.321570
 ---------------------------------------------------------------------
                    Distance matrix (angstroms):
                    1          2          3          4          5
     1  H    0.000000
     2  C    1.102305   0.000000
     3  C    3.093819   2.548196   0.000000
     4  C    2.533553   2.385622   2.563096   0.000000
     5  C    2.990243   2.831444   1.544419   1.568223   0.000000
     6  O    2.055904   1.418429   2.642062   1.453169   2.485134
     7  C    2.154578   1.553538   1.538323   2.976642   2.543129
     8  H    3.836625   3.441848   1.098829   3.493322   2.147406
     9  H    4.060967   3.836323   2.160329   2.165974   1.097058
    10  H    3.003059   2.200316   2.139897   3.841469   3.450980
    11  C    2.153775   1.524679   3.794827   3.707319   4.314393
    12  H    3.058833   2.155839   3.897286   4.029286   4.612031
    13  H    2.538707   2.151869   4.167577   4.522563   4.869464
    14  O    2.697304   2.476549   4.956712   4.170977   5.148371
    15  H    2.392407   2.590776   5.133845   4.146863   5.128192
    16  O    3.154718   3.430217   2.425090   2.508300   1.411459
    17  H    2.562863   3.004863   2.514481   2.794455   1.948798
    18  O    3.982627   3.132590   1.423134   3.054740   2.477103
    19  H    4.758531   3.993930   1.948443   3.428690   2.671640
    20  O    2.433587   2.458457   2.380190   3.789007   3.090937
    21  H    2.524109   2.645612   3.235554   4.411796   3.947982
    22  H    3.550725   3.248710   3.159352   1.098016   2.202393
    23  O    2.500079   2.903044   3.604190   1.375262   2.410167
    24  H    2.923417   3.281858   4.375907   1.928613   3.277329
    25  H    3.763402   3.400674   5.463035   4.008708   5.358753
    26  H    4.917893   5.091766   6.342951   3.818999   5.310622
    27  O    4.052511   4.289786   5.795370   3.349786   4.862711
    28  H    3.970531   3.986314   5.638851   3.371577   4.933010
    29  O    4.102403   3.690185   5.400941   3.714184   5.148717
    30  H    3.522420   2.974674   4.455046   2.892556   4.251480
                    6          7          8          9         10
     6  O    0.000000
     7  C    2.442438   0.000000
     8  H    3.717434   2.134464   0.000000
     9  H    3.241391   3.478081   2.529873   0.000000
    10  H    3.044618   1.099180   2.579892   4.250596   0.000000
    11  C    2.396593   2.557610   4.643182   5.266851   2.595032
    12  H    2.606174   2.866765   4.775729   5.431733   2.568325
    13  H    3.339159   2.703597   4.819694   5.876602   2.566138
    14  O    2.928763   3.840766   5.875316   6.076011   4.011442
    15  H    3.149307   4.007997   6.000812   6.105210   4.381587
    16  O    3.481278   3.063473   2.534282   1.998546   4.090954
    17  H    3.435126   2.638215   2.621940   2.807767   3.694459
    18  O    2.836532   2.378351   2.089880   2.674672   2.422917
    19  H    3.528978   3.223188   2.307286   2.462718   3.325235
    20  O    3.562978   1.434546   2.405926   4.054648   2.090494
    21  H    3.963505   1.971111   3.327141   4.958399   2.343989
    22  H    1.990042   3.814870   4.088865   2.294162   4.530628
    23  O    2.338249   3.738319   4.386178   3.032716   4.726478
    24  H    2.540043   4.391769   5.250551   3.816883   5.291410
    25  H    2.913996   4.829023   6.529160   6.037688   5.061044
    26  H    4.095388   6.379034   7.309250   5.603746   7.111786
    27  O    3.454258   5.652379   6.768780   5.330920   6.388546
    28  H    3.094210   5.405998   6.679403   5.435427   6.001545
    29  O    2.824634   5.040842   6.495391   5.676191   5.332087
    30  H    1.941941   4.208656   5.552888   4.770365   4.526556
                   11         12         13         14         15
    11  C    0.000000
    12  H    1.094183   0.000000
    13  H    1.102712   1.774218   0.000000
    14  O    1.426553   2.021708   2.084147   0.000000
    15  H    1.961864   2.829185   2.408311   0.971041   0.000000
    16  O    4.941366   5.471744   5.293587   5.720359   5.482452
    17  H    4.436626   5.093664   4.636333   5.236040   4.932618
    18  O    4.034095   3.743630   4.551324   5.181815   5.590324
    19  H    4.976279   4.676055   5.514352   6.071588   6.454241
    20  O    3.391816   3.968660   3.163313   4.554846   4.469385
    21  H    3.179611   3.860772   2.667065   4.277895   4.153556
    22  H    4.385627   4.496412   5.310038   4.742142   4.834692
    23  O    4.153966   4.744759   4.886150   4.298484   3.970723
    24  H    4.263155   4.820630   5.099532   4.093824   3.755961
    25  H    2.878088   2.905709   3.858777   1.989687   2.468300
    26  H    5.625505   5.969188   6.595542   4.991550   4.774526
    27  O    4.777033   5.219457   5.706010   4.115821   3.833859
    28  H    4.238571   4.535726   5.235167   3.515956   3.441451
    29  O    3.491015   3.407818   4.552222   2.849906   3.264621
    30  H    3.041075   2.920615   4.142825   2.806797   3.253308
                   16         17         18         19         20
    16  O    0.000000
    17  H    0.972284   0.000000
    18  O    3.681702   3.894521   0.000000
    19  H    3.861223   4.273618   0.969739   0.000000
    20  O    2.934098   2.189533   3.564931   4.256918   0.000000
    21  H    3.770728   2.926598   4.282186   5.059222   0.969928
    22  H    3.305360   3.774907   3.226243   3.392105   4.775739
    23  O    2.625705   2.769971   4.355638   4.735585   4.166371
    24  H    3.619458   3.727027   4.936132   5.342828   4.935613
    25  H    6.203097   6.008259   5.360167   6.081662   5.837561
    26  H    5.841395   6.031489   6.539736   6.871292   7.114454
    27  O    5.344729   5.402774   6.093979   6.537781   6.336426
    28  H    5.613756   5.630607   5.756572   6.263787   6.254576
    29  O    6.102948   6.062566   5.179965   5.782038   6.142083
    30  H    5.290676   5.295396   4.213525   4.812461   5.379878
                   21         22         23         24         25
    21  H    0.000000
    22  H    5.425288   0.000000
    23  O    4.661598   2.068028   0.000000
    24  H    5.322778   2.271339   0.994645   0.000000
    25  H    5.823853   4.121892   4.222655   3.681575   0.000000
    26  H    7.423180   3.540950   3.269140   2.311527   3.719739
    27  O    6.574445   3.327264   2.725619   1.735582   3.081767
    28  H    6.448554   3.289026   3.109266   2.222554   2.171332
    29  O    6.273418   3.579489   4.020727   3.413402   0.977624
    30  H    5.610752   2.776531   3.446501   3.036769   1.496113
                   26         27         28         29         30
    26  H    0.000000
    27  O    0.968371   0.000000
    28  H    1.558014   0.995136   0.000000
    29  O    3.158049   2.715389   1.735697   0.000000
    30  H    3.347932   2.863204   2.038039   0.977983   0.000000
 Symmetry turned off by external request.
 Stoichiometry    C6H16O8
 Framework group  C1[X(C6H16O8)]
 Deg. of freedom    84
 Full point group                 C1      NOp   1
 Rotational constants (GHZ):      0.7970808      0.4949068      0.4023447
 Standard basis: 6-31G(d) (6D, 7F)
   242 basis functions,   456 primitive gaussians,   242 cartesian basis functions
    58 alpha electrons       58 beta electrons
       nuclear repulsion energy      1118.8154694883 Hartrees.
 NAtoms=   30 NActive=   30 NUniq=   30 SFac= 1.00D+00 NAtFMM=   60 NAOKFM=F Big=F
 Integral buffers will be    131072 words long.
 Raffenetti 2 integral format.
 Two-electron integral symmetry is turned off.
 One-electron integrals computed using PRISM.
 NBasis=   242 RedAO= T EigKep=  1.42D-03  NBF=   242
 NBsUse=   242 1.00D-06 EigRej= -1.00D+00 NBFU=   242
 ExpMin= 1.61D-01 ExpMax= 5.48D+03 ExpMxC= 8.25D+02 IAcc=1 IRadAn=         1 AccDes= 0.00D+00
 Harris functional with IExCor=  402 and IRadAn=       1 diagonalized for initial guess.
 HarFok:  IExCor=  402 AccDes= 0.00D+00 IRadAn=         1 IDoV= 1 UseB2=F ITyADJ=14
 ICtDFT=  3500011 ScaDFX=  1.000000  1.000000  1.000000  1.000000
 FoFCou: FMM=F IPFlag=           0 FMFlag=      100000 FMFlg1=           0
         NFxFlg=           0 DoJE=T BraDBF=F KetDBF=T FulRan=T
         wScrn=  0.000000 ICntrl=     500 IOpCl=  0 I1Cent=   200000004 NGrid=           0
         NMat0=    1 NMatS0=      1 NMatT0=    0 NMatD0=    1 NMtDS0=    0 NMtDT0=    0
 Symmetry not used in FoFCou.
 Requested convergence on RMS density matrix=1.00D-08 within 128 cycles.
 Requested convergence on MAX density matrix=1.00D-06.
 Requested convergence on             energy=1.00D-06.
 No special actions if energy rises.
 Integral accuracy reduced to 1.0D-05 until final iterations.
 Initial convergence to 1.0D-05 achieved.  Increase integral accuracy.
 SCF Done:  E(RB3LYP) =  -839.992143982     A.U. after   14 cycles
            NFock= 14  Conv=0.27D-08     -V/T= 2.0085
 DoSCS=F DFT=T ScalE2(SS,OS)=  1.000000  1.000000
 Range of M.O.s used for correlation:     1   242
 NBasis=   242 NAE=    58 NBE=    58 NFC=     0 NFV=     0
 NROrb=    242 NOA=    58 NOB=    58 NVA=   184 NVB=   184
 Symmetrizing basis deriv contribution to polar:
 IMax=3 JMax=2 DiffMx= 0.00D+00
 G2DrvN: will do    31 centers at a time, making    1 passes.
 Calling FoFCou, ICntrl=  3107 FMM=F I1Cent=   0 AccDes= 0.00D+00.
 End of G2Drv F.D. properties file   721 does not exist.
 End of G2Drv F.D. properties file   722 does not exist.
 End of G2Drv F.D. properties file   788 does not exist.
          IDoAtm=111111111111111111111111111111
          Differentiating once with respect to nuclear coordinates.
          There are    93 degrees of freedom in the 1st order CPHF.  IDoFFX=6 NUNeed=     0.
     87 vectors produced by pass  0 Test12= 1.15D-14 1.08D-09 XBig12= 1.20D-01 6.29D-02.
 AX will form    87 AO Fock derivatives at one time.
     87 vectors produced by pass  1 Test12= 1.15D-14 1.08D-09 XBig12= 7.41D-03 1.22D-02.
     87 vectors produced by pass  2 Test12= 1.15D-14 1.08D-09 XBig12= 8.29D-05 1.06D-03.
     87 vectors produced by pass  3 Test12= 1.15D-14 1.08D-09 XBig12= 1.94D-07 5.27D-05.
     87 vectors produced by pass  4 Test12= 1.15D-14 1.08D-09 XBig12= 3.11D-10 2.00D-06.
     66 vectors produced by pass  5 Test12= 1.15D-14 1.08D-09 XBig12= 2.35D-13 3.84D-08.
      1 vectors produced by pass  6 Test12= 1.15D-14 1.08D-09 XBig12= 1.86D-16 1.10D-09.
 InvSVY:  IOpt=1 It=  1 EMax= 4.44D-16
 Solved reduced A of dimension   502 with    93 vectors.
 End of Minotr F.D. properties file   721 does not exist.
 End of Minotr F.D. properties file   722 does not exist.
 End of Minotr F.D. properties file   788 does not exist.

 **********************************************************************

            Population analysis using the SCF density.

 **********************************************************************

 Alpha  occ. eigenvalues --  -19.18025 -19.17581 -19.16354 -19.15632 -19.13800
 Alpha  occ. eigenvalues --  -19.13630 -19.13481 -19.12905 -10.28048 -10.25852
 Alpha  occ. eigenvalues --  -10.25540 -10.25252 -10.24455 -10.23715  -1.07239
 Alpha  occ. eigenvalues --   -1.04834  -1.04552  -1.02868  -1.01197  -1.00312
 Alpha  occ. eigenvalues --   -0.99426  -0.98289  -0.78957  -0.76393  -0.70388
 Alpha  occ. eigenvalues --   -0.64476  -0.63903  -0.57228  -0.56043  -0.55045
 Alpha  occ. eigenvalues --   -0.53016  -0.51777  -0.50776  -0.50521  -0.50471
 Alpha  occ. eigenvalues --   -0.49079  -0.45886  -0.44888  -0.44440  -0.42923
 Alpha  occ. eigenvalues --   -0.41123  -0.40620  -0.39808  -0.39084  -0.37759
 Alpha  occ. eigenvalues --   -0.37051  -0.35863  -0.35676  -0.34627  -0.31361
 Alpha  occ. eigenvalues --   -0.30426  -0.29983  -0.29439  -0.28816  -0.28666
 Alpha  occ. eigenvalues --   -0.27669  -0.27536  -0.24602
 Alpha virt. eigenvalues --    0.03315   0.04556   0.06225   0.07326   0.09911
 Alpha virt. eigenvalues --    0.10244   0.10815   0.12334   0.13685   0.14001
 Alpha virt. eigenvalues --    0.14955   0.15865   0.17015   0.17726   0.17979
 Alpha virt. eigenvalues --    0.20360   0.20701   0.22677   0.23636   0.23702
 Alpha virt. eigenvalues --    0.23960   0.25916   0.26149   0.27634   0.28992
 Alpha virt. eigenvalues --    0.31987   0.33874   0.35567   0.51534   0.53169
 Alpha virt. eigenvalues --    0.53592   0.56057   0.57168   0.58400   0.59300
 Alpha virt. eigenvalues --    0.61329   0.61912   0.62062   0.63881   0.65820
 Alpha virt. eigenvalues --    0.67652   0.71323   0.72775   0.74431   0.74615
 Alpha virt. eigenvalues --    0.76602   0.77599   0.78749   0.80116   0.81047
 Alpha virt. eigenvalues --    0.81540   0.82308   0.82571   0.83852   0.85671
 Alpha virt. eigenvalues --    0.86096   0.86980   0.87257   0.88099   0.88744
 Alpha virt. eigenvalues --    0.90005   0.90639   0.93173   0.95061   0.95541
 Alpha virt. eigenvalues --    0.96710   0.98063   1.00524   1.01195   1.01446
 Alpha virt. eigenvalues --    1.04322   1.04666   1.06015   1.06411   1.06661
 Alpha virt. eigenvalues --    1.07764   1.11448   1.11826   1.13855   1.16451
 Alpha virt. eigenvalues --    1.16963   1.18728   1.22164   1.23249   1.26145
 Alpha virt. eigenvalues --    1.27218   1.30995   1.32542   1.34717   1.38474
 Alpha virt. eigenvalues --    1.39278   1.41374   1.46232   1.46386   1.50128
 Alpha virt. eigenvalues --    1.53043   1.55046   1.56550   1.56801   1.60133
 Alpha virt. eigenvalues --    1.63329   1.64319   1.65356   1.68212   1.70538
 Alpha virt. eigenvalues --    1.71397   1.71764   1.72850   1.73332   1.73507
 Alpha virt. eigenvalues --    1.74432   1.75734   1.76571   1.77547   1.79719
 Alpha virt. eigenvalues --    1.80174   1.80975   1.83388   1.85107   1.86120
 Alpha virt. eigenvalues --    1.87127   1.89859   1.91257   1.94149   1.94930
 Alpha virt. eigenvalues --    1.96280   2.00241   2.02453   2.03359   2.06061
 Alpha virt. eigenvalues --    2.07179   2.11051   2.12309   2.14384   2.17409
 Alpha virt. eigenvalues --    2.18802   2.21273   2.24107   2.27440   2.28496
 Alpha virt. eigenvalues --    2.29851   2.33220   2.35894   2.38318   2.40482
 Alpha virt. eigenvalues --    2.42358   2.43330   2.45386   2.48962   2.51437
 Alpha virt. eigenvalues --    2.53035   2.53659   2.57002   2.57662   2.59610
 Alpha virt. eigenvalues --    2.60679   2.62978   2.64935   2.65326   2.68870
 Alpha virt. eigenvalues --    2.75175   2.82938   2.84299   2.86563   2.88275
 Alpha virt. eigenvalues --    2.91459   2.95366   2.98926   3.08498   3.12918
 Alpha virt. eigenvalues --    3.70191   3.76329   3.79706   3.83913   3.87080
 Alpha virt. eigenvalues --    3.95206   4.06397   4.19228   4.29261   4.36470
 Alpha virt. eigenvalues --    4.39590   4.56817   4.75426   4.92078
          Condensed to atoms (all electrons):
               1          2          3          4          5          6
     1  H    0.642810   0.342190  -0.003842  -0.007636  -0.001527  -0.044558
     2  C    0.342190   5.036274  -0.034964  -0.011746  -0.020021   0.191722
     3  C   -0.003842  -0.034964   4.974431  -0.038829   0.304429  -0.002573
     4  C   -0.007636  -0.011746  -0.038829   4.730745   0.276902   0.178438
     5  C   -0.001527  -0.020021   0.304429   0.276902   5.027466  -0.032489
     6  O   -0.044558   0.191722  -0.002573   0.178438  -0.032489   8.391396
     7  C   -0.059612   0.263663   0.315296  -0.026213  -0.016525  -0.042076
     8  H   -0.000224   0.005186   0.372375   0.006656  -0.059860   0.000004
     9  H    0.000021   0.000312  -0.045214  -0.050888   0.369036   0.003457
    10  H    0.006360  -0.056561  -0.044592   0.000102   0.005437   0.003350
    11  C   -0.047908   0.337350   0.001966   0.003001   0.000375  -0.039725
    12  H    0.005824  -0.028365  -0.000246  -0.000030  -0.000008  -0.000479
    13  H   -0.001234  -0.057248   0.000304  -0.000130  -0.000004   0.003453
    14  O   -0.003140  -0.031149  -0.000044  -0.000146  -0.000005   0.001289
    15  H    0.006910  -0.003787  -0.000007  -0.000044   0.000002  -0.000240
    16  O    0.000937   0.000529  -0.033589  -0.042574   0.258583   0.000348
    17  H    0.003112  -0.001252  -0.011197  -0.004157  -0.033688   0.000387
    18  O    0.000003   0.002605   0.192186   0.007276  -0.039212  -0.003822
    19  H    0.000014  -0.000245  -0.024416  -0.000720  -0.003029   0.000578
    20  O    0.004980  -0.036292  -0.040879   0.000310   0.000832   0.001752
    21  H    0.001022  -0.001284   0.006880  -0.000022  -0.000223   0.000025
    22  H    0.000867   0.007223   0.000964   0.370577  -0.046971  -0.057027
    23  O    0.020774  -0.007314   0.000779   0.290533  -0.055923  -0.063840
    24  H   -0.000865   0.000059  -0.000071  -0.018542   0.005335   0.003590
    25  H   -0.000087  -0.000280   0.000003  -0.000040  -0.000002   0.001299
    26  H   -0.000001  -0.000000  -0.000000   0.000150   0.000008   0.000004
    27  O    0.000040  -0.000050   0.000000   0.004318   0.000028  -0.000801
    28  H   -0.000027   0.000221  -0.000000   0.000303   0.000028   0.001108
    29  O   -0.000056   0.000141   0.000001   0.000917  -0.000009  -0.013482
    30  H    0.000462  -0.004248   0.000016  -0.001172   0.000277   0.042472
               7          8          9         10         11         12
     1  H   -0.059612  -0.000224   0.000021   0.006360  -0.047908   0.005824
     2  C    0.263663   0.005186   0.000312  -0.056561   0.337350  -0.028365
     3  C    0.315296   0.372375  -0.045214  -0.044592   0.001966  -0.000246
     4  C   -0.026213   0.006656  -0.050888   0.000102   0.003001  -0.000030
     5  C   -0.016525  -0.059860   0.369036   0.005437   0.000375  -0.000008
     6  O   -0.042076   0.000004   0.003457   0.003350  -0.039725  -0.000479
     7  C    5.072454  -0.054411   0.005780   0.355924  -0.022445  -0.007209
     8  H   -0.054411   0.610651  -0.005508  -0.002618  -0.000112   0.000005
     9  H    0.005780  -0.005508   0.622955  -0.000217   0.000010  -0.000000
    10  H    0.355924  -0.002618  -0.000217   0.617896  -0.006574   0.004312
    11  C   -0.022445  -0.000112   0.000010  -0.006574   4.902132   0.368331
    12  H   -0.007209   0.000005  -0.000000   0.004312   0.368331   0.549167
    13  H    0.006151   0.000001  -0.000000   0.001179   0.356981  -0.038373
    14  O    0.002889   0.000000  -0.000000   0.000079   0.238303  -0.038188
    15  H   -0.000029  -0.000000  -0.000000   0.000033  -0.030045   0.006756
    16  O    0.000554   0.007341  -0.040535  -0.000158   0.000025  -0.000000
    17  H    0.000835  -0.000925   0.006872   0.000433   0.000023  -0.000000
    18  O   -0.043133  -0.028916  -0.000337   0.005308  -0.000409   0.000246
    19  H    0.007888  -0.006160   0.005494  -0.000180   0.000014  -0.000002
    20  O    0.193096   0.005216  -0.000094  -0.031950   0.000428   0.000052
    21  H   -0.024448  -0.000023   0.000013  -0.005455   0.000490  -0.000009
    22  H    0.000604  -0.000207  -0.003847   0.000026  -0.000318  -0.000018
    23  O    0.000436  -0.000065   0.002026  -0.000009   0.000003   0.000003
    24  H    0.000042   0.000006  -0.000221  -0.000001  -0.000090  -0.000002
    25  H    0.000013  -0.000000  -0.000000  -0.000001  -0.002694  -0.001280
    26  H    0.000000   0.000000  -0.000000   0.000000   0.000000  -0.000000
    27  O    0.000000  -0.000000   0.000001   0.000000   0.000004   0.000001
    28  H    0.000005   0.000000  -0.000000  -0.000000  -0.000170  -0.000014
    29  O   -0.000013  -0.000000   0.000000   0.000000   0.002682   0.000556
    30  H    0.000219   0.000001  -0.000015  -0.000010  -0.000481   0.000910
              13         14         15         16         17         18
     1  H   -0.001234  -0.003140   0.006910   0.000937   0.003112   0.000003
     2  C   -0.057248  -0.031149  -0.003787   0.000529  -0.001252   0.002605
     3  C    0.000304  -0.000044  -0.000007  -0.033589  -0.011197   0.192186
     4  C   -0.000130  -0.000146  -0.000044  -0.042574  -0.004157   0.007276
     5  C   -0.000004  -0.000005   0.000002   0.258583  -0.033688  -0.039212
     6  O    0.003453   0.001289  -0.000240   0.000348   0.000387  -0.003822
     7  C    0.006151   0.002889  -0.000029   0.000554   0.000835  -0.043133
     8  H    0.000001   0.000000  -0.000000   0.007341  -0.000925  -0.028916
     9  H   -0.000000  -0.000000  -0.000000  -0.040535   0.006872  -0.000337
    10  H    0.001179   0.000079   0.000033  -0.000158   0.000433   0.005308
    11  C    0.356981   0.238303  -0.030045   0.000025   0.000023  -0.000409
    12  H   -0.038373  -0.038188   0.006756  -0.000000  -0.000000   0.000246
    13  H    0.639127  -0.035653  -0.003355  -0.000000  -0.000001  -0.000002
    14  O   -0.035653   8.219328   0.235931  -0.000000   0.000000   0.000000
    15  H   -0.003355   0.235931   0.382483  -0.000000  -0.000002  -0.000000
    16  O   -0.000000  -0.000000  -0.000000   8.235046   0.235021   0.001751
    17  H   -0.000001   0.000000  -0.000002   0.235021   0.363930   0.000077
    18  O   -0.000002   0.000000  -0.000000   0.001751   0.000077   8.300546
    19  H   -0.000000  -0.000000   0.000000  -0.000010   0.000022   0.233460
    20  O    0.000341  -0.000012  -0.000008  -0.006566   0.027379   0.000978
    21  H    0.002696  -0.000053  -0.000004   0.000302  -0.000574  -0.000103
    22  H    0.000006   0.000006  -0.000000   0.002926   0.000054   0.000888
    23  O    0.000007  -0.000009   0.000023  -0.000724   0.002909   0.000017
    24  H    0.000001   0.000058   0.000055   0.000005  -0.000084   0.000005
    25  H    0.000438   0.043438  -0.002743   0.000000   0.000000  -0.000000
    26  H    0.000000   0.000001  -0.000004   0.000000  -0.000000  -0.000000
    27  O   -0.000000  -0.000056   0.000100  -0.000000   0.000000  -0.000000
    28  H   -0.000000   0.000543   0.000088  -0.000000  -0.000000   0.000000
    29  O   -0.000030  -0.014101   0.001198   0.000000   0.000000   0.000000
    30  H    0.000079   0.001715   0.000081  -0.000002  -0.000001  -0.000012
              19         20         21         22         23         24
     1  H    0.000014   0.004980   0.001022   0.000867   0.020774  -0.000865
     2  C   -0.000245  -0.036292  -0.001284   0.007223  -0.007314   0.000059
     3  C   -0.024416  -0.040879   0.006880   0.000964   0.000779  -0.000071
     4  C   -0.000720   0.000310  -0.000022   0.370577   0.290533  -0.018542
     5  C   -0.003029   0.000832  -0.000223  -0.046971  -0.055923   0.005335
     6  O    0.000578   0.001752   0.000025  -0.057027  -0.063840   0.003590
     7  C    0.007888   0.193096  -0.024448   0.000604   0.000436   0.000042
     8  H   -0.006160   0.005216  -0.000023  -0.000207  -0.000065   0.000006
     9  H    0.005494  -0.000094   0.000013  -0.003847   0.002026  -0.000221
    10  H   -0.000180  -0.031950  -0.005455   0.000026  -0.000009  -0.000001
    11  C    0.000014   0.000428   0.000490  -0.000318   0.000003  -0.000090
    12  H   -0.000002   0.000052  -0.000009  -0.000018   0.000003  -0.000002
    13  H   -0.000000   0.000341   0.002696   0.000006   0.000007   0.000001
    14  O   -0.000000  -0.000012  -0.000053   0.000006  -0.000009   0.000058
    15  H    0.000000  -0.000008  -0.000004  -0.000000   0.000023   0.000055
    16  O   -0.000010  -0.006566   0.000302   0.002926  -0.000724   0.000005
    17  H    0.000022   0.027379  -0.000574   0.000054   0.002909  -0.000084
    18  O    0.233460   0.000978  -0.000103   0.000888   0.000017   0.000005
    19  H    0.390444  -0.000116   0.000009   0.000040   0.000005  -0.000001
    20  O   -0.000116   8.284453   0.231689  -0.000006  -0.000013  -0.000002
    21  H    0.000009   0.231689   0.390031  -0.000001  -0.000002  -0.000000
    22  H    0.000040  -0.000006  -0.000001   0.653044  -0.043522  -0.004389
    23  O    0.000005  -0.000013  -0.000002  -0.043522   8.318514   0.198781
    24  H   -0.000001  -0.000002  -0.000000  -0.004389   0.198781   0.303210
    25  H    0.000000  -0.000000   0.000000  -0.000002   0.000012   0.000008
    26  H   -0.000000  -0.000000  -0.000000   0.000042   0.001480  -0.004478
    27  O    0.000000   0.000000   0.000000   0.001061  -0.030827   0.080702
    28  H   -0.000000  -0.000000   0.000000  -0.000068   0.002024  -0.004453
    29  O    0.000000   0.000000  -0.000000   0.000333  -0.000144   0.000426
    30  H   -0.000000  -0.000002   0.000000  -0.000802   0.000358   0.000305
              25         26         27         28         29         30
     1  H   -0.000087  -0.000001   0.000040  -0.000027  -0.000056   0.000462
     2  C   -0.000280  -0.000000  -0.000050   0.000221   0.000141  -0.004248
     3  C    0.000003  -0.000000   0.000000  -0.000000   0.000001   0.000016
     4  C   -0.000040   0.000150   0.004318   0.000303   0.000917  -0.001172
     5  C   -0.000002   0.000008   0.000028   0.000028  -0.000009   0.000277
     6  O    0.001299   0.000004  -0.000801   0.001108  -0.013482   0.042472
     7  C    0.000013   0.000000   0.000000   0.000005  -0.000013   0.000219
     8  H   -0.000000   0.000000  -0.000000   0.000000  -0.000000   0.000001
     9  H   -0.000000  -0.000000   0.000001  -0.000000   0.000000  -0.000015
    10  H   -0.000001   0.000000   0.000000  -0.000000   0.000000  -0.000010
    11  C   -0.002694   0.000000   0.000004  -0.000170   0.002682  -0.000481
    12  H   -0.001280  -0.000000   0.000001  -0.000014   0.000556   0.000910
    13  H    0.000438   0.000000  -0.000000  -0.000000  -0.000030   0.000079
    14  O    0.043438   0.000001  -0.000056   0.000543  -0.014101   0.001715
    15  H   -0.002743  -0.000004   0.000100   0.000088   0.001198   0.000081
    16  O    0.000000   0.000000  -0.000000  -0.000000   0.000000  -0.000002
    17  H    0.000000  -0.000000   0.000000  -0.000000   0.000000  -0.000001
    18  O   -0.000000  -0.000000  -0.000000   0.000000   0.000000  -0.000012
    19  H    0.000000  -0.000000   0.000000  -0.000000   0.000000  -0.000000
    20  O   -0.000000  -0.000000   0.000000  -0.000000   0.000000  -0.000002
    21  H    0.000000  -0.000000   0.000000   0.000000  -0.000000   0.000000
    22  H   -0.000002   0.000042   0.001061  -0.000068   0.000333  -0.000802
    23  O    0.000012   0.001480  -0.030827   0.002024  -0.000144   0.000358
    24  H    0.000008  -0.004478   0.080702  -0.004453   0.000426   0.000305
    25  H    0.332740  -0.000073   0.001875  -0.003758   0.234583  -0.025378
    26  H   -0.000073   0.380241   0.240142  -0.012989   0.001297  -0.000046
    27  O    0.001875   0.240142   8.374503   0.187885  -0.034403   0.004304
    28  H   -0.003758  -0.012989   0.187885   0.323624   0.092097  -0.008148
    29  O    0.234583   0.001297  -0.034403   0.092097   8.328847   0.228849
    30  H   -0.025378  -0.000046   0.004304  -0.008148   0.228849   0.335855
 Mulliken charges:
               1
     1  H    0.134390
     2  C    0.107332
     3  C    0.110833
     4  C    0.332661
     5  C    0.060756
     6  O   -0.523561
     7  C    0.070267
     8  H    0.151585
     9  H    0.130900
    10  H    0.147886
    11  C   -0.061149
    12  H    0.178063
    13  H    0.125266
    14  O   -0.621024
    15  H    0.406605
    16  O   -0.619212
    17  H    0.410826
    18  O   -0.629398
    19  H    0.396911
    20  O   -0.635566
    21  H    0.399041
    22  H    0.118515
    23  O   -0.636291
    24  H    0.440611
    25  H    0.421930
    26  H    0.394225
    27  O   -0.828826
    28  H    0.421699
    29  O   -0.829689
    30  H    0.424414
 Sum of Mulliken charges =   0.00000
 Mulliken charges with hydrogens summed into heavy atoms:
               1
     2  C    0.241722
     3  C    0.262418
     4  C    0.451177
     5  C    0.191656
     6  O   -0.523561
     7  C    0.218153
    11  C    0.242179
    14  O   -0.214419
    16  O   -0.208385
    18  O   -0.232487
    20  O   -0.236525
    23  O   -0.195679
    27  O   -0.012903
    29  O    0.016654
 APT charges:
               1
     1  H    0.269124
     2  C   -0.132885
     3  C   -0.482289
     4  C   -0.218296
     5  C   -0.412666
     6  O   -0.390126
     7  C   -0.328058
     8  H    0.571508
     9  H    0.540857
    10  H    0.464232
    11  C   -0.745168
    12  H    0.420968
    13  H    0.481978
    14  O   -0.628097
    15  H    0.532204
    16  O   -0.540415
    17  H    0.427482
    18  O   -0.917469
    19  H    0.813815
    20  O   -0.839484
    21  H    0.695463
    22  H    0.431874
    23  O   -0.628313
    24  H    0.543315
    25  H    0.459927
    26  H    0.892130
    27  O   -1.201015
    28  H    0.326569
    29  O   -0.571724
    30  H    0.164560
 Sum of APT charges =   0.00000
 APT charges with hydrogens summed into heavy atoms:
               1
     2  C    0.136238
     3  C    0.089219
     4  C    0.213578
     5  C    0.128192
     6  O   -0.390126
     7  C    0.136175
    11  C    0.157778
    14  O   -0.095893
    16  O   -0.112933
    18  O   -0.103654
    20  O   -0.144021
    23  O   -0.084998
    27  O    0.017684
    29  O    0.052763
 Electronic spatial extent (au):  <R**2>=           3052.1220
 Charge=              0.0000 electrons
 Dipole moment (field-independent basis, Debye):
    X=             -1.0524    Y=              2.3553    Z=              0.2030  Tot=              2.5877
 Quadrupole moment (field-independent basis, Debye-Ang):
   XX=            -89.5080   YY=            -79.1132   ZZ=            -80.8991
   XY=             -7.2342   XZ=             -6.3887   YZ=            -15.3148
 Traceless Quadrupole moment (field-independent basis, Debye-Ang):
   XX=             -6.3346   YY=              4.0602   ZZ=              2.2744
   XY=             -7.2342   XZ=             -6.3887   YZ=            -15.3148
 Octapole moment (field-independent basis, Debye-Ang**2):
  XXX=              8.0541  YYY=              1.5618  ZZZ=            -10.7313  XYY=             18.5701
  XXY=            -19.8102  XXZ=              8.3928  XZZ=            -12.4706  YZZ=              4.8363
  YYZ=             10.3766  XYZ=              6.2344
 Hexadecapole moment (field-independent basis, Debye-Ang**3):
 XXXX=          -1992.5053 YYYY=          -1075.0510 ZZZZ=           -460.5753 XXXY=            -80.7483
 XXXZ=            -80.9394 YYYX=           -131.9355 YYYZ=            -43.8091 ZZZX=            -29.7132
 ZZZY=            -50.3670 XXYY=           -458.9645 XXZZ=           -409.7530 YYZZ=           -253.4087
 XXYZ=            -68.5589 YYXZ=             15.7662 ZZXY=             18.7806
 N-N= 1.118815469488D+03 E-N=-4.210140516800D+03  KE= 8.328755253495D+02
  Exact polarizability:   0.000   0.000   0.000   0.000   0.000   0.000
 Approx polarizability: 124.305   0.200 128.787   4.382  -1.902 131.600
 Calling FoFJK, ICntrl=    100147 FMM=F ISym2X=0 I1Cent= 0 IOpClX= 0 NMat=1 NMatS=1 NMatT=0.
 -------------------------------------------------------------------
 Center     Atomic                   Forces (Hartrees/Bohr)
 Number     Number              X              Y              Z
 -------------------------------------------------------------------
      1        1           0.000001531    0.000000030   -0.000002386
      2        6           0.000003275    0.000005971    0.000002138
      3        6           0.000002810    0.000014627    0.000008562
      4        6          -0.000005381   -0.000001056    0.000000590
      5        6          -0.000008721    0.000011788   -0.000004631
      6        8           0.000001558   -0.000008499    0.000001135
      7        6           0.000001351    0.000014664   -0.000000786
      8        1          -0.000000528    0.000007649    0.000002726
      9        1          -0.000005848    0.000001749    0.000002325
     10        1           0.000005445   -0.000000318   -0.000001754
     11        6           0.000016624   -0.000007399    0.000002675
     12        1           0.000006368   -0.000002161   -0.000001917
     13        1           0.000004312    0.000001640    0.000000596
     14        8           0.000012762   -0.000010472    0.000002843
     15        1           0.000001969   -0.000008326   -0.000003539
     16        8          -0.000007837    0.000014045   -0.000003189
     17        1          -0.000004213    0.000002839    0.000006282
     18        8           0.000005783    0.000015405   -0.000004047
     19        1          -0.000002504    0.000002981    0.000005556
     20        8           0.000008255    0.000014886    0.000006010
     21        1           0.000002263    0.000006642    0.000004935
     22        1          -0.000005028   -0.000000176   -0.000003069
     23        8          -0.000014804   -0.000000856   -0.000000201
     24        1          -0.000007325   -0.000003220   -0.000001738
     25        1           0.000002869   -0.000008579   -0.000001199
     26        1          -0.000005453   -0.000009136   -0.000000930
     27        8          -0.000013451   -0.000021874   -0.000009066
     28        1          -0.000001375   -0.000006913   -0.000001201
     29        8           0.000000658   -0.000020845   -0.000005701
     30        1           0.000004634   -0.000005088   -0.000001018
 -------------------------------------------------------------------
 Cartesian Forces:  Max     0.000021874 RMS     0.000007246
 IRC-IRC-IRC-IRC-IRC-IRC-IRC-IRC-IRC-IRC-IRC-IRC-IRC-IRC-IRC-IRC-IRC-IRC
          ******** Start new reaction path calculation ********
 Supplied step size of   0.1000 bohr.
    Integration on MW PES will use step size of   0.2410 sqrt(amu)*bohr.
 Point Number:   0          Path Number:   1
 Calculating another point on the path.
 IRC-IRC-IRC-IRC-IRC-IRC-IRC-IRC-IRC-IRC-IRC-IRC-IRC-IRC-IRC-IRC-IRC-IRC
                          Input orientation:                          
 ---------------------------------------------------------------------
 Center     Atomic      Atomic             Coordinates (Angstroms)
 Number     Number       Type             X           Y           Z
 ---------------------------------------------------------------------
      1          1           0        0.035129    0.575114   -1.373555
      2          6           0       -0.072526    0.964091   -0.347829
      3          6           0       -2.151070   -0.039618    0.731941
      4          6           0        0.020715   -1.330945    0.296671
      5          6           0       -1.546450   -1.379934    0.258777
      6          8           0        0.483901    0.021771    0.554911
      7          6           0       -1.592807    1.140895   -0.080843
      8          1           0       -3.231728   -0.078925    0.536947
      9          1           0       -1.867168   -2.169664    0.949435
     10          1           0       -1.785869    2.055509    0.497534
     11          6           0        0.694101    2.276676   -0.229306
     12          1           0        0.704658    2.605217    0.814332
     13          1           0        0.173306    3.049119   -0.819242
     14          8           0        2.061864    2.189263   -0.625376
     15          1           0        2.099402    1.777256   -1.503885
     16          8           0       -2.091520   -1.746349   -0.990503
     17          1           0       -1.995369   -0.992602   -1.597228
     18          8           0       -1.883175    0.241490    2.101143
     19          1           0       -2.330869   -0.435986    2.631227
     20          8           0       -2.324199    1.163234   -1.314614
     21          1           0       -2.039400    1.934951   -1.828501
     22          1           0        0.394998   -1.865558    1.179685
     23          8           0        0.529692   -1.821155   -0.883411
     24          1           0        1.519392   -1.864562   -0.793784
     25          1           0        3.188602    1.106285    0.605057
     26          1           0        3.627854   -2.517275   -0.108949
     27          8           0        3.233679   -1.750121   -0.549294
     28          1           0        3.366840   -0.993223    0.082999
     29          8           0        3.217366    0.328923    1.197249
     30          1           0        2.259103    0.181947    1.326037
 ---------------------------------------------------------------------
                    Distance matrix (angstroms):
                    1          2          3          4          5
     1  H    0.000000
     2  C    1.102273   0.000000
     3  C    3.096849   2.548270   0.000000
     4  C    2.534348   2.385636   2.563909   0.000000
     5  C    2.998018   2.834586   1.544635   1.568388   0.000000
     6  O    2.055861   1.418632   2.641625   1.452952   2.484915
     7  C    2.154388   1.553640   1.538144   2.975897   2.544027
     8  H    3.840591   3.442567   1.098813   3.493375   2.147130
     9  H    4.068024   3.837193   2.159860   2.166484   1.097060
    10  H    3.001429   2.200313   2.139597   3.843456   3.452042
    11  C    2.153801   1.524678   3.792652   3.707428   4.316143
    12  H    3.058829   2.155905   3.893215   4.028538   4.610592
    13  H    2.539106   2.151745   4.165236   4.522555   4.871981
    14  O    2.696832   2.476631   4.955707   4.172328   5.151779
    15  H    2.392353   2.591326   5.134828   4.150163   5.134887
    16  O    3.171523   3.440327   2.425549   2.508169   1.411404
    17  H    2.575012   3.014460   2.521398   2.786740   1.948412
    18  O    3.983054   3.130187   1.423202   3.058344   2.477240
    19  H    4.760099   3.991880   1.948518   3.432353   2.671118
    20  O    2.432239   2.458528   2.380171   3.783620   3.090009
    21  H    2.521866   2.646423   3.235314   4.407550   3.948188
    22  H    3.550410   3.249429   3.164963   1.098004   2.202980
    23  O    2.495383   2.899501   3.601350   1.375484   2.410318
    24  H    2.913964   3.276333   4.373848   1.928697   3.277520
    25  H    3.760511   3.400466   5.462718   4.008828   5.359284
    26  H    4.906094   5.086234   6.343645   3.818816   5.310573
    27  O    4.039410   4.282350   5.793349   3.348806   4.862062
    28  H    3.959990   3.980694   5.637181   3.369906   4.931618
    29  O    4.098326   3.689728   5.401151   3.712786   5.147317
    30  H    3.519720   2.974906   4.455520   2.891161   4.249794
                    6          7          8          9         10
     6  O    0.000000
     7  C    2.443223   0.000000
     8  H    3.717037   2.134406   0.000000
     9  H    3.238142   3.478009   2.530486   0.000000
    10  H    3.048153   1.099232   2.578346   4.250048   0.000000
    11  C    2.396617   2.557731   4.641997   5.264928   2.593735
    12  H    2.605806   2.867738   4.772493   5.425129   2.570071
    13  H    3.339102   2.702907   4.818523   5.876006   2.561157
    14  O    2.929345   3.840861   5.875184   6.075982   4.010470
    15  H    3.151224   4.007793   6.002612   6.109880   4.379318
    16  O    3.485305   3.067959   2.532485   1.998222   4.094117
    17  H    3.436195   2.648262   2.630227   2.808452   3.704443
    18  O    2.835870   2.377879   2.089969   2.672143   2.423158
    19  H    3.527543   3.222827   2.307607   2.459487   3.325239
    20  O    3.561388   1.434442   2.407249   4.054997   2.090414
    21  H    3.963327   1.970857   3.327564   4.959280   2.342915
    22  H    1.990039   3.818253   4.093691   2.294098   4.538312
    23  O    2.338214   3.731335   4.381902   3.037387   4.722007
    24  H    2.539581   4.384842   5.247141   3.821084   5.287646
    25  H    2.914463   4.830479   6.529166   6.034173   5.065368
    26  H    4.095351   6.374817   7.308666   5.606806   7.112423
    27  O    3.452556   5.645563   6.765671   5.332995   6.385493
    28  H    3.092612   5.401796   6.677058   5.434111   6.001418
    29  O    2.824672   5.042874   6.495626   5.670699   5.338826
    30  H    1.942069   4.211425   5.553372   4.764242   4.534142
                   11         12         13         14         15
    11  C    0.000000
    12  H    1.094181   0.000000
    13  H    1.102688   1.774246   0.000000
    14  O    1.426635   2.021827   2.084128   0.000000
    15  H    1.961846   2.829304   2.407533   0.971049   0.000000
    16  O    4.952154   5.478336   5.306155   5.733495   5.499380
    17  H    4.448892   5.103927   4.652303   5.246895   4.944489
    18  O    4.026826   3.733626   4.543187   5.176008   5.587103
    19  H    4.969067   4.665238   5.506595   6.065764   6.451735
    20  O    3.395258   3.973122   3.168515   4.556899   4.470021
    21  H    3.185315   3.868291   2.675078   4.281653   4.154507
    22  H    4.385523   4.496354   5.310264   4.741124   4.834939
    23  O    4.152962   4.744018   4.883718   4.300882   3.974611
    24  H    4.260234   4.819622   5.094788   4.093426   3.755462
    25  H    2.878978   2.908706   3.859435   1.989056   2.466616
    26  H    5.621686   5.969711   6.589625   4.987035   4.767075
    27  O    4.771471   5.217699   5.698373   4.110679   3.826253
    28  H    4.234774   4.535508   5.230032   3.511834   3.435135
    29  O    3.492230   3.412014   4.553241   2.849212   3.262459
    30  H    3.042402   2.924103   4.144086   2.806463   3.252533
                   16         17         18         19         20
    16  O    0.000000
    17  H    0.972366   0.000000
    18  O    3.681465   3.900452   0.000000
    19  H    3.858920   4.278108   0.969738   0.000000
    20  O    2.936811   2.199006   3.565321   4.257606   0.000000
    21  H    3.775834   2.937004   4.281859   5.059196   0.969916
    22  H    3.302529   3.766583   3.237099   3.403087   4.773797
    23  O    2.624466   2.751721   4.357063   4.738584   4.151771
    24  H    3.618198   3.709364   4.938980   5.347526   4.920569
    25  H    6.209914   6.010736   5.358085   6.078530   5.837752
    26  H    5.838039   6.013338   6.547269   6.880894   7.101176
    27  O    5.343447   5.386552   6.097009   6.542694   6.321657
    28  H    5.613671   5.619293   5.758479   6.266407   6.244321
    29  O    6.105513   6.060375   5.180752   5.781374   6.141211
    30  H    5.292693   5.293918   4.214594   4.811777   5.379834
                   21         22         23         24         25
    21  H    0.000000
    22  H    5.423960   0.000000
    23  O    4.647770   2.067965   0.000000
    24  H    5.307725   2.271308   0.994697   0.000000
    25  H    5.825882   4.119014   4.225547   3.683606   0.000000
    26  H    7.409247   3.540716   3.268482   2.310983   3.719266
    27  O    6.559076   3.325778   2.725476   1.735411   3.081171
    28  H    6.438592   3.285656   3.109473   2.222846   2.170772
    29  O    6.274399   3.575167   4.021887   3.414485   0.977656
    30  H    5.612598   2.772829   3.447453   3.037928   1.496056
                   26         27         28         29         30
    26  H    0.000000
    27  O    0.968403   0.000000
    28  H    1.558110   0.995198   0.000000
    29  O    3.158401   2.715346   1.735502   0.000000
    30  H    3.349397   2.863485   2.037952   0.977986   0.000000
 Symmetry turned off by external request.
 Stoichiometry    C6H16O8
 Framework group  C1[X(C6H16O8)]
 Deg. of freedom    84
 Full point group                 C1      NOp   1
 Rotational constants (GHZ):      0.7971298      0.4950419      0.4024669
 Standard basis: 6-31G(d) (6D, 7F)
   242 basis functions,   456 primitive gaussians,   242 cartesian basis functions
    58 alpha electrons       58 beta electrons
       nuclear repulsion energy      1118.8400558585 Hartrees.
 NAtoms=   30 NActive=   30 NUniq=   30 SFac= 1.00D+00 NAtFMM=   60 NAOKFM=F Big=F
 Integral buffers will be    131072 words long.
 Raffenetti 2 integral format.
 Two-electron integral symmetry is turned off.
 One-electron integrals computed using PRISM.
 NBasis=   242 RedAO= T EigKep=  1.42D-03  NBF=   242
 NBsUse=   242 1.00D-06 EigRej= -1.00D+00 NBFU=   242
 Initial guess from the checkpoint file:  "/scratch/10502114.yak.local/Gau-18952.chk"
 B after Tr=     0.033423    0.019079    0.004815
         Rot=    1.000000   -0.000010    0.000004   -0.000010 Ang=  -0.00 deg.
 ExpMin= 1.61D-01 ExpMax= 5.48D+03 ExpMxC= 8.25D+02 IAcc=1 IRadAn=         1 AccDes= 0.00D+00
 Harris functional with IExCor=  402 and IRadAn=       1 diagonalized for initial guess.
 HarFok:  IExCor=  402 AccDes= 0.00D+00 IRadAn=         1 IDoV= 1 UseB2=F ITyADJ=14
 ICtDFT=  3500011 ScaDFX=  1.000000  1.000000  1.000000  1.000000
 FoFCou: FMM=F IPFlag=           0 FMFlag=      100000 FMFlg1=           0
         NFxFlg=           0 DoJE=T BraDBF=F KetDBF=T FulRan=T
         wScrn=  0.000000 ICntrl=     500 IOpCl=  0 I1Cent=   200000004 NGrid=           0
         NMat0=    1 NMatS0=      1 NMatT0=    0 NMatD0=    1 NMtDS0=    0 NMtDT0=    0
 Symmetry not used in FoFCou.
 Requested convergence on RMS density matrix=1.00D-08 within 128 cycles.
 Requested convergence on MAX density matrix=1.00D-06.
 Requested convergence on             energy=1.00D-06.
 No special actions if energy rises.
 Integral accuracy reduced to 1.0D-05 until final iterations.
 Initial convergence to 1.0D-05 achieved.  Increase integral accuracy.
 SCF Done:  E(RB3LYP) =  -839.992144292     A.U. after    9 cycles
            NFock=  9  Conv=0.63D-08     -V/T= 2.0085
 DoSCS=F DFT=T ScalE2(SS,OS)=  1.000000  1.000000
 Range of M.O.s used for correlation:     1   242
 NBasis=   242 NAE=    58 NBE=    58 NFC=     0 NFV=     0
 NROrb=    242 NOA=    58 NOB=    58 NVA=   184 NVB=   184
 Symmetrizing basis deriv contribution to polar:
 IMax=3 JMax=2 DiffMx= 0.00D+00
 Calling FoFJK, ICntrl=      2147 FMM=F ISym2X=0 I1Cent= 0 IOpClX= 0 NMat=1 NMatS=1 NMatT=0.
 -------------------------------------------------------------------
 Center     Atomic                   Forces (Hartrees/Bohr)
 Number     Number              X              Y              Z
 -------------------------------------------------------------------
      1        1           0.000001879    0.000004483    0.000004944
      2        6           0.000002675    0.000010552   -0.000002507
      3        6           0.000002029    0.000011595    0.000005456
      4        6          -0.000004977   -0.000006425   -0.000001964
      5        6          -0.000016081    0.000002627   -0.000005356
      6        8          -0.000001000   -0.000011808   -0.000001104
      7        6           0.000001361    0.000019613   -0.000005058
      8        1           0.000000039    0.000007357    0.000003852
      9        1           0.000000284    0.000016061   -0.000009356
     10        1           0.000008369   -0.000011297   -0.000010478
     11        6           0.000016136   -0.000007950    0.000007937
     12        1           0.000006484   -0.000003842   -0.000006576
     13        1           0.000005083    0.000001333    0.000001495
     14        8           0.000009750   -0.000013639    0.000001584
     15        1           0.000001443   -0.000004481    0.000004799
     16        8           0.000016993    0.000128453   -0.000065865
     17        1          -0.000019666   -0.000111161    0.000096036
     18        8           0.000002890    0.000013816   -0.000011778
     19        1          -0.000000677    0.000006391    0.000001944
     20        8           0.000017669    0.000011296    0.000018812
     21        1           0.000002683    0.000005197    0.000006608
     22        1          -0.000008959    0.000002893   -0.000011685
     23        8          -0.000016040    0.000003721    0.000006488
     24        1          -0.000013745   -0.000002660   -0.000001761
     25        1           0.000003070   -0.000020523    0.000007244
     26        1          -0.000016640    0.000014390   -0.000012697
     27        8          -0.000003459   -0.000025914    0.000007267
     28        1          -0.000003030   -0.000020935   -0.000010889
     29        8           0.000000689   -0.000013671   -0.000016372
     30        1           0.000004746   -0.000005471   -0.000001019
 -------------------------------------------------------------------
 Cartesian Forces:  Max     0.000128453 RMS     0.000023770
 IRC-IRC-IRC-IRC-IRC-IRC-IRC-IRC-IRC-IRC-IRC-IRC-IRC-IRC-IRC-IRC-IRC-IRC
 Pt  1 Step number   1 out of a maximum of  20
 Modified Bulirsch-Stoer Extrapolation Cycles:
    EPS =    0.000010000000000
 Maximum DWI energy   std dev =  0.000000178 at pt  1535
 Maximum DWI gradient std dev =  1.552514792 at pt    10
 WARNING: Bulirsch-Stoer Method is not Converging
 CORRECTOR INTEGRATION CONVERGENCE:
   Recorrection delta-x convergence threshold:    0.010000
   Delta-x Convergence NOT Met
 IRC-IRC-IRC-IRC-IRC-IRC-IRC-IRC-IRC-IRC-IRC-IRC-IRC-IRC-IRC-IRC-IRC-IRC
                          Input orientation:                          
 ---------------------------------------------------------------------
 Center     Atomic      Atomic             Coordinates (Angstroms)
 Number     Number       Type             X           Y           Z
 ---------------------------------------------------------------------
      1          1           0        0.032428    0.574434   -1.373885
      2          6           0       -0.073042    0.963956   -0.348129
      3          6           0       -2.151027   -0.039514    0.732840
      4          6           0        0.020047   -1.331032    0.296555
      5          6           0       -1.547022   -1.378928    0.256646
      6          8           0        0.484019    0.021635    0.554101
      7          6           0       -1.592604    1.142167   -0.078263
      8          1           0       -3.231820   -0.077885    0.538376
      9          1           0       -1.868837   -2.170534    0.944618
     10          1           0       -1.783589    2.055751    0.502339
     11          6           0        0.694924    2.275922   -0.231642
     12          1           0        0.707253    2.605165    0.811750
     13          1           0        0.173989    3.048475   -0.821339
     14          8           0        2.062014    2.186954   -0.629539
     15          1           0        2.098044    1.773559   -1.507452
     16          8           0       -2.090934   -1.741150   -0.994357
     17          1           0       -1.999036   -0.983826   -1.597056
     18          8           0       -1.882258    0.238857    2.102389
     19          1           0       -2.330430   -0.439096    2.631461
     20          8           0       -2.325989    1.168004   -1.310795
     21          1           0       -2.040712    1.940103   -1.823845
     22          1           0        0.392524   -1.864941    1.180747
     23          8           0        0.530273   -1.822861   -0.882198
     24          1           0        1.519756   -1.867337   -0.791066
     25          1           0        3.188901    1.105194    0.602061
     26          1           0        3.627020   -2.520652   -0.101963
     27          8           0        3.234016   -1.754463   -0.545000
     28          1           0        3.367302   -0.995838    0.085132
     29          8           0        3.217568    0.329199    1.196014
     30          1           0        2.259302    0.182467    1.325010
 ---------------------------------------------------------------------
                    Distance matrix (angstroms):
                    1          2          3          4          5
     1  H    0.000000
     2  C    1.102282   0.000000
     3  C    3.095593   2.548228   0.000000
     4  C    2.534033   2.385635   2.563576   0.000000
     5  C    2.994816   2.833280   1.544542   1.568309   0.000000
     6  O    2.055882   1.418558   2.641809   1.453034   2.484992
     7  C    2.154457   1.553594   1.538211   2.976213   2.543652
     8  H    3.838955   3.442267   1.098819   3.493350   2.147237
     9  H    4.065109   3.836809   2.160029   2.166248   1.097046
    10  H    3.002071   2.200291   2.139691   3.842622   3.451572
    11  C    2.153760   1.524663   3.793535   3.707367   4.315400
    12  H    3.058799   2.155863   3.894909   4.028811   4.611170
    13  H    2.538941   2.151783   4.166155   4.522551   4.870917
    14  O    2.696941   2.476567   4.956102   4.171751   5.150338
    15  H    2.392176   2.590965   5.134271   4.148614   5.131932
    16  O    3.164591   3.436145   2.425363   2.508165   1.411401
    17  H    2.569986   3.010502   2.518579   2.789805   1.948495
    18  O    3.982852   3.131145   1.423163   3.056853   2.477171
    19  H    4.759531   3.992782   1.948491   3.431046   2.671471
    20  O    2.432784   2.458481   2.380159   3.785847   3.090393
    21  H    2.522979   2.646190   3.235380   4.409438   3.948181
    22  H    3.550544   3.249134   3.162665   1.097995   2.202728
    23  O    2.497324   2.900960   3.602504   1.375385   2.410227
    24  H    2.917888   3.278631   4.374685   1.928645   3.277403
    25  H    3.761567   3.400453   5.462809   4.008761   5.359024
    26  H    4.911053   5.088571   6.343403   3.818936   5.310636
    27  O    4.044871   4.285464   5.794188   3.349195   4.862303
    28  H    3.964325   3.983024   5.637911   3.370634   4.932217
    29  O    4.099955   3.689906   5.401137   3.713426   5.147954
    30  H    3.520886   2.974887   4.455440   2.891827   4.250584
                    6          7          8          9         10
     6  O    0.000000
     7  C    2.442916   0.000000
     8  H    3.717205   2.134432   0.000000
     9  H    3.239451   3.478013   2.530204   0.000000
    10  H    3.046695   1.099185   2.578967   4.250219   0.000000
    11  C    2.396598   2.557676   4.642483   5.265684   2.594268
    12  H    2.605924   2.867372   4.773864   5.427816   2.569413
    13  H    3.339119   2.703150   4.818971   5.876206   2.563149
    14  O    2.929109   3.840796   5.875219   6.075958   4.010863
    15  H    3.150288   4.007757   6.001725   6.107754   4.380178
    16  O    3.483606   3.066118   2.533247   1.998329   4.092800
    17  H    3.435694   2.644195   2.626890   2.808083   3.700392
    18  O    2.836133   2.378047   2.089923   2.673159   2.423014
    19  H    3.528289   3.222947   2.307376   2.460973   3.325125
    20  O    3.562042   1.434454   2.406700   4.054838   2.090394
    21  H    3.963510   1.970928   3.327326   4.958957   2.343206
    22  H    1.990031   3.816875   4.091708   2.294100   4.535143
    23  O    2.338216   3.734208   4.383641   3.035434   4.723825
    24  H    2.539772   4.387709   5.248526   3.819305   5.289197
    25  H    2.914238   4.829803   6.529118   6.035599   5.063512
    26  H    4.095375   6.376620   7.308956   5.605565   7.112196
    27  O    3.453264   5.648413   6.766953   5.332090   6.386784
    28  H    3.093300   5.403557   6.678060   5.434683   6.001494
    29  O    2.824701   5.042068   6.495599   5.673040   5.336078
    30  H    1.942112   4.210389   5.553287   4.766849   4.531109
                   11         12         13         14         15
    11  C    0.000000
    12  H    1.094174   0.000000
    13  H    1.102703   1.774224   0.000000
    14  O    1.426595   2.021779   2.084142   0.000000
    15  H    1.961837   2.829233   2.407934   0.971043   0.000000
    16  O    4.947687   5.475611   5.300973   5.728007   5.492174
    17  H    4.443842   5.099725   4.645775   5.242334   4.939359
    18  O    4.029789   3.737743   4.546458   5.178397   5.588296
    19  H    4.972067   4.669731   5.509727   6.068264   6.452737
    20  O    3.393813   3.971295   3.166327   4.555979   4.469612
    21  H    3.183015   3.865226   2.671779   4.280148   4.154171
    22  H    4.385548   4.496338   5.310156   4.741538   4.834655
    23  O    4.153355   4.744279   4.884727   4.299847   3.972793
    24  H    4.261444   4.820006   5.096785   4.093582   3.755496
    25  H    2.878470   2.907312   3.859029   1.989200   2.467129
    26  H    5.623267   5.969414   6.592124   4.988901   4.770054
    27  O    4.773803   5.218396   5.701609   4.112846   3.829320
    28  H    4.236316   4.535533   5.232152   3.513502   3.437572
    29  O    3.491656   3.410185   4.552751   2.849420   3.263163
    30  H    3.041874   2.922628   4.143591   2.806626   3.252756
                   16         17         18         19         20
    16  O    0.000000
    17  H    0.972229   0.000000
    18  O    3.681550   3.898010   0.000000
    19  H    3.859956   4.276320   0.969740   0.000000
    20  O    2.935739   2.195271   3.565114   4.257250   0.000000
    21  H    3.773883   2.933007   4.281898   5.059078   0.969917
    22  H    3.303629   3.769895   3.232649   3.398835   4.774605
    23  O    2.624877   2.759058   4.356459   4.737533   4.157788
    24  H    3.618608   3.716464   4.937797   5.345792   4.926781
    25  H    6.207002   6.009560   5.358934   6.079992   5.837548
    26  H    5.839434   6.020768   6.544173   6.877186   7.106742
    27  O    5.343893   5.393101   6.095757   6.540883   6.327789
    28  H    5.613655   5.623832   5.757750   6.265613   6.248551
    29  O    6.104445   6.061207   5.180531   5.781960   6.141555
    30  H    5.291911   5.294540   4.214264   4.812358   5.379930
                   21         22         23         24         25
    21  H    0.000000
    22  H    5.424625   0.000000
    23  O    4.653660   2.067967   0.000000
    24  H    5.314147   2.271279   0.994666   0.000000
    25  H    5.825027   4.120231   4.224314   3.682769   0.000000
    26  H    7.415281   3.540801   3.268872   2.311330   3.719456
    27  O    6.565670   3.326333   2.725548   1.735505   3.081464
    28  H    6.442868   3.287099   3.109410   2.222760   2.171032
    29  O    6.274078   3.577060   4.021427   3.414063   0.977635
    30  H    5.612013   2.774447   3.447122   3.037501   1.496073
                   26         27         28         29         30
    26  H    0.000000
    27  O    0.968390   0.000000
    28  H    1.558048   0.995159   0.000000
    29  O    3.158171   2.715335   1.735570   0.000000
    30  H    3.348695   2.863338   2.037982   0.977979   0.000000
 Symmetry turned off by external request.
 Stoichiometry    C6H16O8
 Framework group  C1[X(C6H16O8)]
 Deg. of freedom    84
 Full point group                 C1      NOp   1
 Rotational constants (GHZ):      0.7971167      0.4949903      0.4024147
 Standard basis: 6-31G(d) (6D, 7F)
   242 basis functions,   456 primitive gaussians,   242 cartesian basis functions
    58 alpha electrons       58 beta electrons
       nuclear repulsion energy      1118.8345616361 Hartrees.
 NAtoms=   30 NActive=   30 NUniq=   30 SFac= 1.00D+00 NAtFMM=   60 NAOKFM=F Big=F
 Integral buffers will be    131072 words long.
 Raffenetti 2 integral format.
 Two-electron integral symmetry is turned off.
 One-electron integrals computed using PRISM.
 NBasis=   242 RedAO= T EigKep=  1.42D-03  NBF=   242
 NBsUse=   242 1.00D-06 EigRej= -1.00D+00 NBFU=   242
 Initial guess from the checkpoint file:  "/scratch/10502114.yak.local/Gau-18952.chk"
 B after Tr=    -0.000045   -0.000000    0.000043
         Rot=    1.000000   -0.000041   -0.000067    0.000273 Ang=  -0.03 deg.
 ExpMin= 1.61D-01 ExpMax= 5.48D+03 ExpMxC= 8.25D+02 IAcc=1 IRadAn=         1 AccDes= 0.00D+00
 Harris functional with IExCor=  402 and IRadAn=       1 diagonalized for initial guess.
 HarFok:  IExCor=  402 AccDes= 0.00D+00 IRadAn=         1 IDoV= 1 UseB2=F ITyADJ=14
 ICtDFT=  3500011 ScaDFX=  1.000000  1.000000  1.000000  1.000000
 FoFCou: FMM=F IPFlag=           0 FMFlag=      100000 FMFlg1=           0
         NFxFlg=           0 DoJE=T BraDBF=F KetDBF=T FulRan=T
         wScrn=  0.000000 ICntrl=     500 IOpCl=  0 I1Cent=   200000004 NGrid=           0
         NMat0=    1 NMatS0=      1 NMatT0=    0 NMatD0=    1 NMtDS0=    0 NMtDT0=    0
 Symmetry not used in FoFCou.
 Requested convergence on RMS density matrix=1.00D-08 within 128 cycles.
 Requested convergence on MAX density matrix=1.00D-06.
 Requested convergence on             energy=1.00D-06.
 No special actions if energy rises.
 Integral accuracy reduced to 1.0D-05 until final iterations.
 Initial convergence to 1.0D-05 achieved.  Increase integral accuracy.
 SCF Done:  E(RB3LYP) =  -839.992144903     A.U. after    9 cycles
            NFock=  9  Conv=0.38D-08     -V/T= 2.0085
 DoSCS=F DFT=T ScalE2(SS,OS)=  1.000000  1.000000
 Range of M.O.s used for correlation:     1   242
 NBasis=   242 NAE=    58 NBE=    58 NFC=     0 NFV=     0
 NROrb=    242 NOA=    58 NOB=    58 NVA=   184 NVB=   184
 Symmetrizing basis deriv contribution to polar:
 IMax=3 JMax=2 DiffMx= 0.00D+00
 Calling FoFJK, ICntrl=      2147 FMM=F ISym2X=0 I1Cent= 0 IOpClX= 0 NMat=1 NMatS=1 NMatT=0.
 -------------------------------------------------------------------
 Center     Atomic                   Forces (Hartrees/Bohr)
 Number     Number              X              Y              Z
 -------------------------------------------------------------------
      1        1          -0.000000026   -0.000000147   -0.000000473
      2        6           0.000005489    0.000000670    0.000001907
      3        6           0.000000828    0.000011842    0.000001793
      4        6          -0.000006682   -0.000000010   -0.000000834
      5        6          -0.000006651    0.000008097    0.000003191
      6        8           0.000000879   -0.000003313    0.000000012
      7        6           0.000006144    0.000007774    0.000001756
      8        1          -0.000000169    0.000008623    0.000002073
      9        1          -0.000005459    0.000004092    0.000000468
     10        1           0.000005650    0.000005739    0.000003299
     11        6           0.000011557   -0.000002707    0.000002723
     12        1           0.000007345   -0.000001625    0.000000249
     13        1           0.000007182   -0.000000234    0.000000586
     14        8           0.000013712   -0.000009954    0.000003316
     15        1           0.000003298   -0.000005722   -0.000002377
     16        8          -0.000015151    0.000008344    0.000006619
     17        1          -0.000003678    0.000008465   -0.000001322
     18        8           0.000003777    0.000013434    0.000003073
     19        1           0.000000575    0.000005358    0.000001169
     20        8           0.000006791    0.000011881   -0.000000711
     21        1           0.000003483    0.000006928    0.000002398
     22        1          -0.000004695   -0.000001155   -0.000000456
     23        8          -0.000014707   -0.000000277   -0.000003687
     24        1          -0.000005138   -0.000004017   -0.000001011
     25        1           0.000003239   -0.000008465   -0.000002188
     26        1          -0.000013856    0.000003954   -0.000009528
     27        8          -0.000006545   -0.000031631   -0.000005620
     28        1          -0.000002225   -0.000007718   -0.000000559
     29        8           0.000003360   -0.000022298   -0.000004263
     30        1           0.000001674   -0.000005928   -0.000001603
 -------------------------------------------------------------------
 Cartesian Forces:  Max     0.000031631 RMS     0.000007126
 IRC-IRC-IRC-IRC-IRC-IRC-IRC-IRC-IRC-IRC-IRC-IRC-IRC-IRC-IRC-IRC-IRC-IRC
 Error in corrector energy =           0.0000004926
 Magnitude of corrector gradient =     0.0000461766
 Magnitude of analytic gradient =      0.0000676016
 Magnitude of difference =             0.0000386643
 Angle between gradients (degrees)=   33.4802
 Pt  1 Step number   2 out of a maximum of  20
 Modified Bulirsch-Stoer Extrapolation Cycles:
    EPS =    0.000010000000000
 Maximum DWI energy   std dev =  0.000000858 at pt  1536
 Maximum DWI gradient std dev =  0.666434052 at pt    10
 WARNING: Bulirsch-Stoer Method is not Converging
 CORRECTOR INTEGRATION CONVERGENCE:
   Recorrection delta-x convergence threshold:    0.010000
   Delta-x Convergence NOT Met
 IRC-IRC-IRC-IRC-IRC-IRC-IRC-IRC-IRC-IRC-IRC-IRC-IRC-IRC-IRC-IRC-IRC-IRC
                          Input orientation:                          
 ---------------------------------------------------------------------
 Center     Atomic      Atomic             Coordinates (Angstroms)
 Number     Number       Type             X           Y           Z
 ---------------------------------------------------------------------
      1          1           0        0.033118    0.574637   -1.373750
      2          6           0       -0.072005    0.964091   -0.347935
      3          6           0       -2.150907   -0.037320    0.733190
      4          6           0        0.018770   -1.331080    0.296444
      5          6           0       -1.548376   -1.377427    0.257025
      6          8           0        0.484143    0.021070    0.554147
      7          6           0       -1.591400    1.143722   -0.078068
      8          1           0       -3.231771   -0.074502    0.538905
      9          1           0       -1.870832   -2.168505    0.945300
     10          1           0       -1.781499    2.057600    0.502373
     11          6           0        0.697262    2.275274   -0.231196
     12          1           0        0.710208    2.604123    0.812314
     13          1           0        0.176993    3.048566   -0.820498
     14          8           0        2.064169    2.185101   -0.629455
     15          1           0        2.099640    1.771725   -1.507401
     16          8           0       -2.092950   -1.739402   -0.993759
     17          1           0       -2.000242   -0.982353   -1.596691
     18          8           0       -1.881629    0.240815    2.102693
     19          1           0       -2.331320   -0.435992    2.631936
     20          8           0       -2.324809    1.170038   -1.310585
     21          1           0       -2.038575    1.941632   -1.823874
     22          1           0        0.391013   -1.865582    1.180372
     23          8           0        0.528128   -1.823107   -0.882615
     24          1           0        1.517609   -1.868395   -0.791925
     25          1           0        3.190126    1.101706    0.601528
     26          1           0        3.624068   -2.524464   -0.104275
     27          8           0        3.232083   -1.757299   -0.546494
     28          1           0        3.366408   -0.999397    0.084277
     29          8           0        3.218193    0.325699    1.195487
     30          1           0        2.259825    0.179811    1.324661
 ---------------------------------------------------------------------
                    Distance matrix (angstroms):
                    1          2          3          4          5
     1  H    0.000000
     2  C    1.102280   0.000000
     3  C    3.095748   2.548233   0.000000
     4  C    2.534071   2.385639   2.563603   0.000000
     5  C    2.995180   2.833435   1.544559   1.568326   0.000000
     6  O    2.055881   1.418569   2.641772   1.453030   2.484997
     7  C    2.154462   1.553595   1.538197   2.976165   2.543685
     8  H    3.839158   3.442279   1.098815   3.493392   2.147298
     9  H    4.065445   3.836846   2.159949   2.166307   1.097043
    10  H    3.001975   2.200263   2.139727   3.842724   3.451660
    11  C    2.153761   1.524665   3.793442   3.707364   4.315493
    12  H    3.058781   2.155862   3.894800   4.028652   4.611105
    13  H    2.539117   2.151826   4.166025   4.522598   4.871075
    14  O    2.696802   2.476562   4.956090   4.171867   5.150527
    15  H    2.391944   2.590884   5.134204   4.148648   5.132093
    16  O    3.165333   3.436594   2.425447   2.508129   1.411399
    17  H    2.570695   3.011002   2.518756   2.789620   1.948468
    18  O    3.982882   3.131045   1.423168   3.056943   2.477146
    19  H    4.759985   3.993040   1.948519   3.432001   2.671985
    20  O    2.432757   2.458503   2.380121   3.785564   3.090279
    21  H    2.522538   2.646013   3.235344   4.408975   3.947985
    22  H    3.550535   3.249178   3.162890   1.097992   2.202747
    23  O    2.497084   2.900778   3.602373   1.375397   2.410244
    24  H    2.917300   3.278258   4.374565   1.928672   3.277439
    25  H    3.761147   3.400282   5.462724   4.008619   5.358935
    26  H    4.910287   5.088255   6.343309   3.818759   5.310406
    27  O    4.044213   4.285135   5.794178   3.349267   4.862379
    28  H    3.964120   3.983061   5.638036   3.370713   4.932326
    29  O    4.099714   3.689864   5.401180   3.713422   5.147963
    30  H    3.520730   2.974912   4.455507   2.891773   4.250557
                    6          7          8          9         10
     6  O    0.000000
     7  C    2.442933   0.000000
     8  H    3.717174   2.134372   0.000000
     9  H    3.239312   3.477961   2.530248   0.000000
    10  H    3.046846   1.099192   2.578853   4.250191   0.000000
    11  C    2.396585   2.557701   4.642393   5.265588   2.594179
    12  H    2.605747   2.867569   4.773781   5.427470   2.569700
    13  H    3.339120   2.703118   4.818839   5.876177   2.562751
    14  O    2.929236   3.840792   5.875190   6.076015   4.010793
    15  H    3.150334   4.007638   6.001656   6.107847   4.379973
    16  O    3.483774   3.066341   2.533350   1.998353   4.092998
    17  H    3.435860   2.644534   2.627095   2.808098   3.700707
    18  O    2.836046   2.378065   2.089914   2.672919   2.423171
    19  H    3.528873   3.222903   2.307003   2.461380   3.324958
    20  O    3.561961   1.434461   2.406673   4.054747   2.090399
    21  H    3.963288   1.970904   3.327347   4.958798   2.343280
    22  H    1.990047   3.817008   4.091945   2.294115   4.535510
    23  O    2.338207   3.733868   4.383512   3.035717   4.723607
    24  H    2.539693   4.387298   5.248406   3.819626   5.288928
    25  H    2.914166   4.829763   6.529024   6.035375   5.063657
    26  H    4.095411   6.376315   7.308798   5.605554   7.112207
    27  O    3.453286   5.648127   6.766927   5.332380   6.386673
    28  H    3.093474   5.403626   6.678179   5.434781   6.001748
    29  O    2.824738   5.042152   6.495637   5.672902   5.336367
    30  H    1.942148   4.210548   5.553352   4.766637   4.531507
                   11         12         13         14         15
    11  C    0.000000
    12  H    1.094176   0.000000
    13  H    1.102695   1.774239   0.000000
    14  O    1.426596   2.021753   2.084108   0.000000
    15  H    1.961868   2.829220   2.408055   0.971044   0.000000
    16  O    4.948172   5.475929   5.301631   5.728532   5.492691
    17  H    4.444462   5.100260   4.646626   5.242876   4.939833
    18  O    4.029484   3.737369   4.546035   5.178243   5.588109
    19  H    4.972002   4.669499   5.509363   6.068536   6.453026
    20  O    3.394045   3.971729   3.166712   4.556031   4.469509
[...]
 ICtDFT=  3500011 ScaDFX=  1.000000  1.000000  1.000000  1.000000
 FoFCou: FMM=F IPFlag=           0 FMFlag=      100000 FMFlg1=           0
         NFxFlg=           0 DoJE=T BraDBF=F KetDBF=T FulRan=T
         wScrn=  0.000000 ICntrl=     500 IOpCl=  0 I1Cent=   200000004 NGrid=           0
         NMat0=    1 NMatS0=      1 NMatT0=    0 NMatD0=    1 NMtDS0=    0 NMtDT0=    0
 Symmetry not used in FoFCou.
 Requested convergence on RMS density matrix=1.00D-08 within 128 cycles.
 Requested convergence on MAX density matrix=1.00D-06.
 Requested convergence on             energy=1.00D-06.
 No special actions if energy rises.
 Integral accuracy reduced to 1.0D-05 until final iterations.
 Initial convergence to 1.0D-05 achieved.  Increase integral accuracy.
 SCF Done:  E(RB3LYP) =  -839.992146052     A.U. after    7 cycles
            NFock=  7  Conv=0.91D-08     -V/T= 2.0085
 DoSCS=F DFT=T ScalE2(SS,OS)=  1.000000  1.000000
 Range of M.O.s used for correlation:     1   242
 NBasis=   242 NAE=    58 NBE=    58 NFC=     0 NFV=     0
 NROrb=    242 NOA=    58 NOB=    58 NVA=   184 NVB=   184
 Symmetrizing basis deriv contribution to polar:
 IMax=3 JMax=2 DiffMx= 0.00D+00
 Calling FoFJK, ICntrl=      2147 FMM=F ISym2X=0 I1Cent= 0 IOpClX= 0 NMat=1 NMatS=1 NMatT=0.
 -------------------------------------------------------------------
 Center     Atomic                   Forces (Hartrees/Bohr)
 Number     Number              X              Y              Z
 -------------------------------------------------------------------
      1        1           0.000000288    0.000000095    0.000000074
      2        6           0.000007058    0.000000895    0.000001349
      3        6           0.000000768    0.000015829    0.000003202
      4        6          -0.000009640   -0.000000394   -0.000000793
      5        6          -0.000010126    0.000011306    0.000001976
      6        8           0.000001161   -0.000005503   -0.000000047
      7        6           0.000008596    0.000011745    0.000002781
      8        1           0.000000017    0.000002058    0.000000398
      9        1          -0.000001261    0.000001178    0.000000236
     10        1           0.000001328    0.000001118    0.000000226
     11        6           0.000016903   -0.000004944    0.000002157
     12        1           0.000001829   -0.000000606    0.000000236
     13        1           0.000001805    0.000000017    0.000000407
     14        8           0.000020473   -0.000018991   -0.000001349
     15        1           0.000000896   -0.000001166   -0.000000117
     16        8          -0.000019491    0.000020210    0.000003806
     17        1          -0.000000931    0.000001274    0.000000253
     18        8           0.000006457    0.000017368    0.000003966
     19        1          -0.000000398    0.000001674    0.000000304
     20        8           0.000009919    0.000022369    0.000004707
     21        1           0.000001232    0.000001093    0.000000163
     22        1          -0.000001008   -0.000000358   -0.000000179
     23        8          -0.000020578   -0.000003518   -0.000003184
     24        1          -0.000001301   -0.000000771   -0.000000401
     25        1           0.000000750   -0.000002114   -0.000000422
     26        1          -0.000001759   -0.000002378   -0.000001058
     27        8          -0.000018796   -0.000030114   -0.000011630
     28        1          -0.000000557   -0.000002207   -0.000000492
     29        8           0.000006051   -0.000033593   -0.000006299
     30        1           0.000000316   -0.000001571   -0.000000271
 -------------------------------------------------------------------
 Cartesian Forces:  Max     0.000033593 RMS     0.000008739
 IRC-IRC-IRC-IRC-IRC-IRC-IRC-IRC-IRC-IRC-IRC-IRC-IRC-IRC-IRC-IRC-IRC-IRC
 Error in corrector energy =           0.0000000000
 Magnitude of corrector gradient =     0.0000828840
 Magnitude of analytic gradient =      0.0000829060
 Magnitude of difference =             0.0000000482
 Angle between gradients (degrees)=    0.0296
 Pt  1 Step number  19 out of a maximum of  20
 Modified Bulirsch-Stoer Extrapolation Cycles:
    EPS =    0.000010000000000
 Maximum DWI energy   std dev =  0.000000345 at pt   810
 Maximum DWI gradient std dev =  0.684342453 at pt     3
 WARNING: Bulirsch-Stoer Method is not Converging
 CORRECTOR INTEGRATION CONVERGENCE:
   Recorrection delta-x convergence threshold:    0.010000
   Delta-x Convergence NOT Met
 IRC-IRC-IRC-IRC-IRC-IRC-IRC-IRC-IRC-IRC-IRC-IRC-IRC-IRC-IRC-IRC-IRC-IRC
                          Input orientation:                          
 ---------------------------------------------------------------------
 Center     Atomic      Atomic             Coordinates (Angstroms)
 Number     Number       Type             X           Y           Z
 ---------------------------------------------------------------------
      1          1           0        0.032085    0.574312   -1.373851
      2          6           0       -0.072599    0.963991   -0.348072
      3          6           0       -2.151008   -0.038095    0.733367
      4          6           0        0.019009   -1.331061    0.296548
      5          6           0       -1.548090   -1.377725    0.256448
      6          8           0        0.484054    0.021283    0.553982
      7          6           0       -1.591880    1.143435   -0.077489
      8          1           0       -3.231887   -0.075486    0.539182
      9          1           0       -1.870575   -2.169489    0.943926
     10          1           0       -1.781810    2.056984    0.503519
     11          6           0        0.696494    2.275339   -0.232015
     12          1           0        0.709604    2.604620    0.811355
     13          1           0        0.175964    3.048305   -0.821522
     14          8           0        2.063327    2.185221   -0.630514
     15          1           0        2.098677    1.771418   -1.508268
     16          8           0       -2.092158   -1.738715   -0.994853
     17          1           0       -2.001255   -0.980445   -1.596543
     18          8           0       -1.881674    0.239534    2.102947
     19          1           0       -2.330521   -0.438058    2.631905
     20          8           0       -2.325770    1.170336   -1.309729
     21          1           0       -2.039969    1.942331   -1.822654
     22          1           0        0.390865   -1.865130    1.180907
     23          8           0        0.529022   -1.823448   -0.882042
     24          1           0        1.518454   -1.868670   -0.790808
     25          1           0        3.189729    1.102741    0.600998
     26          1           0        3.624636   -2.523905   -0.101464
     27          8           0        3.232855   -1.757290   -0.544817
     28          1           0        3.366787   -0.998703    0.085209
     29          8           0        3.217914    0.327102    1.195431
     30          1           0        2.259563    0.181011    1.324514
 ---------------------------------------------------------------------
                    Distance matrix (angstroms):
                    1          2          3          4          5
     1  H    0.000000
     2  C    1.102285   0.000000
     3  C    3.095368   2.548229   0.000000
     4  C    2.533939   2.385621   2.563503   0.000000
     5  C    2.994207   2.833046   1.544529   1.568307   0.000000
     6  O    2.055884   1.418542   2.641828   1.453056   2.485027
     7  C    2.154465   1.553586   1.538221   2.976238   2.543556
     8  H    3.838677   3.442213   1.098820   3.493374   2.147309
     9  H    4.064560   3.836753   2.160050   2.166238   1.097047
    10  H    3.002174   2.200282   2.139741   3.842477   3.451506
    11  C    2.153769   1.524666   3.793706   3.707355   4.315279
    12  H    3.058808   2.155870   3.895269   4.028837   4.611310
    13  H    2.538979   2.151814   4.166334   4.522561   4.870742
    14  O    2.696946   2.476561   4.956200   4.171680   5.150109
    15  H    2.392056   2.590837   5.134110   4.148223   5.131300
    16  O    3.163249   3.435340   2.425348   2.508172   1.411410
    17  H    2.569306   3.009855   2.517723   2.790733   1.948529
    18  O    3.982798   3.131308   1.423154   3.056541   2.477168
    19  H    4.759505   3.993021   1.948497   3.430983   2.671698
    20  O    2.432866   2.458484   2.380145   3.786172   3.090358
    21  H    2.523155   2.646145   3.235376   4.409705   3.948086
    22  H    3.550548   3.249077   3.162193   1.097997   2.202665
    23  O    2.497614   2.901187   3.602720   1.375366   2.410233
    24  H    2.918457   3.278938   4.374822   1.928653   3.277418
    25  H    3.761646   3.400408   5.462829   4.008684   5.358952
    26  H    4.911653   5.088790   6.343048   3.818617   5.310266
    27  O    4.045811   4.286036   5.794425   3.349383   4.862462
    28  H    3.965282   3.983625   5.638167   3.370866   4.932443
    29  O    4.100223   3.689919   5.401129   3.713554   5.148099
    30  H    3.521011   2.974825   4.455401   2.891913   4.250723
                    6          7          8          9         10
     6  O    0.000000
     7  C    2.442843   0.000000
     8  H    3.717229   2.134402   0.000000
     9  H    3.239724   3.477991   2.530185   0.000000
    10  H    3.046434   1.099188   2.579035   4.250283   0.000000
    11  C    2.396600   2.557683   4.642553   5.265849   2.594355
    12  H    2.605905   2.867391   4.774138   5.428352   2.569399
    13  H    3.339131   2.703218   4.819028   5.876266   2.563460
    14  O    2.929123   3.840793   5.875225   6.076013   4.010929
    15  H    3.150057   4.007706   6.001501   6.107288   4.380298
    16  O    3.483296   3.065717   2.533490   1.998382   4.092525
    17  H    3.435837   2.643100   2.625781   2.808004   3.699242
    18  O    2.836123   2.378091   2.089898   2.673358   2.423071
    19  H    3.528539   3.222968   2.307251   2.461438   3.325109
    20  O    3.562141   1.434481   2.406573   4.054700   2.090431
    21  H    3.963523   1.970944   3.327239   4.958802   2.343260
    22  H    1.990044   3.816582   4.091328   2.294102   4.534573
    23  O    2.338209   3.734692   4.384026   3.035122   4.724137
    24  H    2.539757   4.388141   5.248821   3.819072   5.289403
    25  H    2.914180   4.829678   6.529103   6.035873   5.063228
    26  H    4.095223   6.376676   7.308699   5.604979   7.111976
    27  O    3.453489   5.648952   6.767304   5.332097   6.387061
    28  H    3.093585   5.404035   6.678391   5.434895   6.001687
    29  O    2.824708   5.041908   6.495588   5.673529   5.335585
    30  H    1.942078   4.210165   5.553248   4.767361   4.530563
                   11         12         13         14         15
    11  C    0.000000
    12  H    1.094175   0.000000
    13  H    1.102700   1.774236   0.000000
    14  O    1.426588   2.021744   2.084115   0.000000
    15  H    1.961855   2.829205   2.408088   0.971048   0.000000
    16  O    4.946830   5.475108   5.299998   5.726960   5.490695
    17  H    4.442963   5.098963   4.644542   5.241706   4.938622
    18  O    4.030323   3.738525   4.547042   5.178855   5.588447
    19  H    4.972663   4.670616   5.510295   6.068844   6.452954
    20  O    3.393608   3.971103   3.166036   4.555820   4.469502
    21  H    3.182649   3.864813   2.671293   4.279863   4.154088
    22  H    4.385572   4.496313   5.310156   4.741700   4.834539
    23  O    4.153388   4.744258   4.884905   4.299626   3.972284
    24  H    4.261535   4.819905   5.097045   4.093484   3.755216
    25  H    2.878388   2.907045   3.858959   1.989263   2.467089
    26  H    5.623504   5.969290   6.592522   4.989333   4.770477
    27  O    4.774208   5.218453   5.702183   4.113214   3.829670
    28  H    4.236796   4.535619   5.232760   3.514062   3.438144
    29  O    3.491530   3.409724   4.552637   2.849518   3.263239
    30  H    3.041739   2.922257   4.143456   2.806689   3.252681
                   16         17         18         19         20
    16  O    0.000000
    17  H    0.972248   0.000000
    18  O    3.681594   3.897291   0.000000
    19  H    3.860297   4.275789   0.969737   0.000000
    20  O    2.935353   2.193954   3.565105   4.257163   0.000000
    21  H    3.773338   2.931765   4.281930   5.059028   0.969922
    22  H    3.303833   3.770826   3.231749   3.398216   4.774665
    23  O    2.624975   2.761063   4.356318   4.737522   4.158786
    24  H    3.618708   3.718401   4.937531   5.345674   4.927768
    25  H    6.206364   6.009590   5.359115   6.080445   5.837481
    26  H    5.839213   6.022307   6.543353   6.876479   7.107366
    27  O    5.344029   5.394954   6.095602   6.540878   6.328854
    28  H    5.613754   5.625344   5.757676   6.265724   6.249462
    29  O    6.104245   6.061726   5.180449   5.782219   6.141604
    30  H    5.291719   5.294915   4.214170   4.812628   5.379896
                   21         22         23         24         25
    21  H    0.000000
    22  H    5.424674   0.000000
    23  O    4.654628   2.067989   0.000000
    24  H    5.315149   2.271371   0.994658   0.000000
    25  H    5.824839   4.120461   4.223903   3.682332   0.000000
    26  H    7.416031   3.540584   3.268451   2.310959   3.719564
    27  O    6.566790   3.326659   2.725584   1.735536   3.081319
    28  H    6.443805   3.287455   3.109451   2.222742   2.171049
    29  O    6.274005   3.577471   4.021306   3.413902   0.977630
    30  H    5.611853   2.774771   3.446958   3.037272   1.496085
                   26         27         28         29         30
    26  H    0.000000
    27  O    0.968377   0.000000
    28  H    1.558068   0.995151   0.000000
    29  O    3.158418   2.715396   1.735660   0.000000
    30  H    3.348643   2.863338   2.038025   0.977978   0.000000
 Symmetry turned off by external request.
 Stoichiometry    C6H16O8
 Framework group  C1[X(C6H16O8)]
 Deg. of freedom    84
 Full point group                 C1      NOp   1
 Rotational constants (GHZ):      0.7971217      0.4949742      0.4024086
 Standard basis: 6-31G(d) (6D, 7F)
   242 basis functions,   456 primitive gaussians,   242 cartesian basis functions
    58 alpha electrons       58 beta electrons
       nuclear repulsion energy      1118.8334944230 Hartrees.
 NAtoms=   30 NActive=   30 NUniq=   30 SFac= 1.00D+00 NAtFMM=   60 NAOKFM=F Big=F
 Integral buffers will be    131072 words long.
 Raffenetti 2 integral format.
 Two-electron integral symmetry is turned off.
 One-electron integrals computed using PRISM.
 NBasis=   242 RedAO= T EigKep=  1.42D-03  NBF=   242
 NBsUse=   242 1.00D-06 EigRej= -1.00D+00 NBFU=   242
 Initial guess from the checkpoint file:  "/scratch/10502114.yak.local/Gau-18952.chk"
 B after Tr=    -0.000000    0.000000    0.000000
         Rot=    1.000000    0.000000    0.000000   -0.000000 Ang=   0.00 deg.
 ExpMin= 1.61D-01 ExpMax= 5.48D+03 ExpMxC= 8.25D+02 IAcc=1 IRadAn=         1 AccDes= 0.00D+00
 Harris functional with IExCor=  402 and IRadAn=       1 diagonalized for initial guess.
 HarFok:  IExCor=  402 AccDes= 0.00D+00 IRadAn=         1 IDoV= 1 UseB2=F ITyADJ=14
 ICtDFT=  3500011 ScaDFX=  1.000000  1.000000  1.000000  1.000000
 FoFCou: FMM=F IPFlag=           0 FMFlag=      100000 FMFlg1=           0
         NFxFlg=           0 DoJE=T BraDBF=F KetDBF=T FulRan=T
         wScrn=  0.000000 ICntrl=     500 IOpCl=  0 I1Cent=   200000004 NGrid=           0
         NMat0=    1 NMatS0=      1 NMatT0=    0 NMatD0=    1 NMtDS0=    0 NMtDT0=    0
 Symmetry not used in FoFCou.
 Requested convergence on RMS density matrix=1.00D-08 within 128 cycles.
 Requested convergence on MAX density matrix=1.00D-06.
 Requested convergence on             energy=1.00D-06.
 No special actions if energy rises.
 Integral accuracy reduced to 1.0D-05 until final iterations.
 Initial convergence to 1.0D-05 achieved.  Increase integral accuracy.
 SCF Done:  E(RB3LYP) =  -839.992146050     A.U. after    7 cycles
            NFock=  7  Conv=0.91D-08     -V/T= 2.0085
 DoSCS=F DFT=T ScalE2(SS,OS)=  1.000000  1.000000
 Range of M.O.s used for correlation:     1   242
 NBasis=   242 NAE=    58 NBE=    58 NFC=     0 NFV=     0
 NROrb=    242 NOA=    58 NOB=    58 NVA=   184 NVB=   184
 Symmetrizing basis deriv contribution to polar:
 IMax=3 JMax=2 DiffMx= 0.00D+00
 Calling FoFJK, ICntrl=      2147 FMM=F ISym2X=0 I1Cent= 0 IOpClX= 0 NMat=1 NMatS=1 NMatT=0.
 -------------------------------------------------------------------
 Center     Atomic                   Forces (Hartrees/Bohr)
 Number     Number              X              Y              Z
 -------------------------------------------------------------------
      1        1           0.000000291    0.000000097    0.000000077
      2        6           0.000007052    0.000000896    0.000001346
      3        6           0.000000768    0.000015821    0.000003203
      4        6          -0.000009637   -0.000000396   -0.000000793
      5        6          -0.000010124    0.000011298    0.000001973
      6        8           0.000001160   -0.000005500   -0.000000047
      7        6           0.000008591    0.000011742    0.000002781
      8        1           0.000000016    0.000002068    0.000000400
      9        1          -0.000001266    0.000001188    0.000000239
     10        1           0.000001334    0.000001122    0.000000222
     11        6           0.000016894   -0.000004941    0.000002154
     12        1           0.000001836   -0.000000608    0.000000238
     13        1           0.000001813    0.000000019    0.000000410
     14        8           0.000020458   -0.000018982   -0.000001356
     15        1           0.000000902   -0.000001168   -0.000000112
     16        8          -0.000019472    0.000020238    0.000003779
     17        1          -0.000000937    0.000001242    0.000000281
     18        8           0.000006457    0.000017359    0.000003959
     19        1          -0.000000402    0.000001679    0.000000310
     20        8           0.000009911    0.000022360    0.000004716
     21        1           0.000001238    0.000001099    0.000000160
     22        1          -0.000001012   -0.000000360   -0.000000183
     23        8          -0.000020565   -0.000003518   -0.000003178
     24        1          -0.000001310   -0.000000773   -0.000000406
     25        1           0.000000754   -0.000002129   -0.000000419
     26        1          -0.000001768   -0.000002390   -0.000001068
     27        8          -0.000018785   -0.000030100   -0.000011618
     28        1          -0.000000561   -0.000002215   -0.000000496
     29        8           0.000006048   -0.000033567   -0.000006301
     30        1           0.000000317   -0.000001580   -0.000000272
 -------------------------------------------------------------------
 Cartesian Forces:  Max     0.000033567 RMS     0.000008735
 IRC-IRC-IRC-IRC-IRC-IRC-IRC-IRC-IRC-IRC-IRC-IRC-IRC-IRC-IRC-IRC-IRC-IRC
 Error in corrector energy =          -0.0000000000
 Magnitude of corrector gradient =     0.0000828852
 Magnitude of analytic gradient =      0.0000828695
 Magnitude of difference =             0.0000000341
 Angle between gradients (degrees)=    0.0209
 Pt  1 Step number  20 out of a maximum of  20
 Modified Bulirsch-Stoer Extrapolation Cycles:
    EPS =    0.000010000000000
 Maximum DWI energy   std dev =  0.000000345 at pt   808
 Maximum DWI gradient std dev =  0.684776381 at pt     3
 WARNING: Bulirsch-Stoer Method is not Converging
 CORRECTOR INTEGRATION CONVERGENCE:
   Recorrection delta-x convergence threshold:    0.010000
   Delta-x Convergence NOT Met
 Maximum number of corrector steps exceded.
 Error termination via Lnk1e in /global/software/gaussian/g09.e01/l123.exe at Tue Jan 31 15:16:33 2017.
 Job cpu time:       0 days  3 hours 56 minutes 16.3 seconds.
 File lengths (MBytes):  RWF=    220 Int=      0 D2E=      0 Chk=      8 Scr=      1
