 Entering Gaussian System, Link 0=g09
 Initial command:
 /global/software/gaussian/g09.e01/l1.exe "/scratch/10502201.yak.local/Gau-15997.inp" -scrdir="/scratch/10502201.yak.local/"
 Entering Link 1 = /global/software/gaussian/g09.e01/l1.exe PID=     15998.
  
 Copyright (c) 1988,1990,1992,1993,1995,1998,2003,2009,2015,
            Gaussian, Inc.  All Rights Reserved.
  
 This is part of the Gaussian(R) 09 program.  It is based on
 the Gaussian(R) 03 system (copyright 2003, Gaussian, Inc.),
 the Gaussian(R) 98 system (copyright 1998, Gaussian, Inc.),
 the Gaussian(R) 94 system (copyright 1995, Gaussian, Inc.),
 the Gaussian 92(TM) system (copyright 1992, Gaussian, Inc.),
 the Gaussian 90(TM) system (copyright 1990, Gaussian, Inc.),
 the Gaussian 88(TM) system (copyright 1988, Gaussian, Inc.),
 the Gaussian 86(TM) system (copyright 1986, Carnegie Mellon
 University), and the Gaussian 82(TM) system (copyright 1983,
 Carnegie Mellon University). Gaussian is a federally registered
 trademark of Gaussian, Inc.
  
 This software contains proprietary and confidential information,
 including trade secrets, belonging to Gaussian, Inc.
  
 This software is provided under written license and may be
 used, copied, transmitted, or stored only in accord with that
 written license.
  
 The following legend is applicable only to US Government
 contracts under FAR:
  
                    RESTRICTED RIGHTS LEGEND
  
 Use, reproduction and disclosure by the US Government is
 subject to restrictions as set forth in subparagraphs (a)
 and (c) of the Commercial Computer Software - Restricted
 Rights clause in FAR 52.227-19.
  
 Gaussian, Inc.
 340 Quinnipiac St., Bldg. 40, Wallingford CT 06492
  
  
 ---------------------------------------------------------------
 Warning -- This program may not be used in any manner that
 competes with the business of Gaussian, Inc. or will provide
 assistance to any competitor of Gaussian, Inc.  The licensee
 of this program is prohibited from giving any competitor of
 Gaussian, Inc. access to this program.  By using this program,
 the user acknowledges that Gaussian, Inc. is engaged in the
 business of creating and licensing software in the field of
 computational chemistry and represents and warrants to the
 licensee that it is not a competitor of Gaussian, Inc. and that
 it will not use this program in any manner prohibited above.
 ---------------------------------------------------------------
  

 Cite this work as:
 Gaussian 09, Revision E.01,
 M. J. Frisch, G. W. Trucks, H. B. Schlegel, G. E. Scuseria, 
 M. A. Robb, J. R. Cheeseman, G. Scalmani, V. Barone, B. Mennucci, 
 G. A. Petersson, H. Nakatsuji, M. Caricato, X. Li, H. P. Hratchian, 
 A. F. Izmaylov, J. Bloino, G. Zheng, J. L. Sonnenberg, M. Hada, 
 M. Ehara, K. Toyota, R. Fukuda, J. Hasegawa, M. Ishida, T. Nakajima, 
 Y. Honda, O. Kitao, H. Nakai, T. Vreven, J. A. Montgomery, Jr., 
 J. E. Peralta, F. Ogliaro, M. Bearpark, J. J. Heyd, E. Brothers, 
 K. N. Kudin, V. N. Staroverov, T. Keith, R. Kobayashi, J. Normand, 
 K. Raghavachari, A. Rendell, J. C. Burant, S. S. Iyengar, J. Tomasi, 
 M. Cossi, N. Rega, J. M. Millam, M. Klene, J. E. Knox, J. B. Cross, 
 V. Bakken, C. Adamo, J. Jaramillo, R. Gomperts, R. E. Stratmann, 
 O. Yazyev, A. J. Austin, R. Cammi, C. Pomelli, J. W. Ochterski, 
 R. L. Martin, K. Morokuma, V. G. Zakrzewski, G. A. Voth, 
 P. Salvador, J. J. Dannenberg, S. Dapprich, A. D. Daniels, 
 O. Farkas, J. B. Foresman, J. V. Ortiz, J. Cioslowski, 
 and D. J. Fox, Gaussian, Inc., Wallingford CT, 2013.
 
 ******************************************
 Gaussian 09:  ES64L-G09RevE.01 30-Nov-2015
                31-Jan-2017 
 ******************************************
 %NPROCS=4
 Will use up to    4 processors via shared memory.
 --------------------------------------------------
 # b3lyp/6-31g(d) irc=(calcfc,reverse,maxpoints=20)
 --------------------------------------------------
 1/10=4,14=-1,18=10,22=2,26=3,38=1,42=20,44=3/1,23;
 2/12=2,17=6,18=5,29=1,40=1/2;
 3/5=1,6=6,7=1,11=2,16=1,25=1,30=1,71=2,74=-5,140=1/1,2,3;
 4//1;
 5/5=2,38=5/2;
 8/6=4,10=90,11=11/1;
 11/6=1,8=1,9=11,15=111,16=1/1,2,10;
 10/6=1,13=1/2;
 6/7=2,8=2,9=2,10=2,28=1/1;
 7/10=1,18=20,25=1/1,2,3,16;
 1/10=4,14=-1,18=10,22=2,26=3,42=20,44=3/23(2);
 2/29=1/2;
 99/5=20/99;
 2/29=1/2;
 3/5=1,6=6,7=1,11=2,16=1,25=1,30=1,71=2,74=-5,140=1/1,2,3;
 4/5=5,16=3,69=1/1;
 5/5=2,38=5/2;
 8/6=4,10=90,11=11/1;
 11/6=1,8=1,9=11,15=111,16=1/1,2,10;
 10/6=1,13=1/2;
 7/10=1,18=20,25=1/1,2,3,16;
 1/14=-1,18=10,22=2,26=3,42=20,44=3/23(-8);
 2/29=1/2;
 6/7=2,8=2,9=2,10=2,19=2,28=1/1;
 99/5=20,9=1/99;
 ------------------------------------------
 ./2/glo_2w_beta_boat2_b3lyp_631Gd_iopt.out
 ------------------------------------------
 Symbolic Z-matrix:
 Charge =  0 Multiplicity = 1
 C                    -0.26192  -0.93619  -1.05534 
 O                     0.49394   0.19506  -0.57884 
 H                     2.96197   0.6582   -0.19841 
 H                     1.66997  -2.02139   1.92576 
 O                     2.0195   -2.21556   1.04358 
 H                     2.6289   -1.47289   0.79816 
 O                     3.32828  -0.24294  -0.3142 
 H                     2.77383  -0.59163  -1.03329 
 C                    -1.51881   1.19278   0.4775 
 C                    -0.24364   1.40864  -0.39629 
 H                    -1.52388   1.92218   1.29554 
 H                    -0.56492   1.78911  -1.37952 
 O                    -2.72225   1.40503  -0.24074 
 H                    -2.90629   0.58657  -0.74094 
 C                     0.72508   2.38818   0.27262 
 O                     2.02203   2.41941  -0.31823 
 H                     0.88894   2.08301   1.31024 
 H                     0.26855   3.38854   0.28512 
 H                     1.92924   2.65441  -1.25555 
 H                     1.03588  -2.22036  -0.42565 
 C                    -1.37759  -1.28281  -0.02692 
 H                    -1.15857  -2.2607    0.41893 
 C                    -1.44887  -0.22211   1.09287 
 H                    -2.34694  -0.38673   1.69878 
 O                    -2.60248  -1.33815  -0.77828 
 H                    -3.28896  -1.72745  -0.2128 
 O                    -0.33582  -0.35315   1.97262 
 H                     0.44713  -0.31194   1.39347 
 O                     0.63121  -1.95768  -1.29277 
 H                    -0.73569  -0.67608  -2.01168 
 
 IRC-IRC-IRC-IRC-IRC-IRC-IRC-IRC-IRC-IRC-IRC-IRC-IRC-IRC-IRC-IRC-IRC-IRC
 ------------------------------------------------------------------------
 INPUT DATA FOR L123
 ------------------------------------------------------------------------
 GENERAL PARAMETERS:
 Rxn path following direction = Reverse
 Maximum points per path      =  20
 Step size                    =   0.100 bohr
 Integration scheme           = HPC                                 
    Redo corrector integration= Yes                                 
    DWI Weight Power          =  2
    DWI will use Hessian update vectors when possible.
    Max correction cycles     =  20
 Initial Hessian              = CalcFC
 Hessian evaluation           = All updating
 Hessian updating method      = Bofill                              
 ------------------------------------------------------------------------
 IRC-IRC-IRC-IRC-IRC-IRC-IRC-IRC-IRC-IRC-IRC-IRC-IRC-IRC-IRC-IRC-IRC-IRC
                          Input orientation:                          
 ---------------------------------------------------------------------
 Center     Atomic      Atomic             Coordinates (Angstroms)
 Number     Number       Type             X           Y           Z
 ---------------------------------------------------------------------
      1          6           0       -0.261920   -0.936190   -1.055340
      2          8           0        0.493940    0.195060   -0.578840
      3          1           0        2.961970    0.658200   -0.198410
      4          1           0        1.669970   -2.021390    1.925760
      5          8           0        2.019500   -2.215560    1.043580
      6          1           0        2.628900   -1.472890    0.798160
      7          8           0        3.328280   -0.242940   -0.314200
      8          1           0        2.773830   -0.591630   -1.033290
      9          6           0       -1.518810    1.192780    0.477500
     10          6           0       -0.243640    1.408640   -0.396290
     11          1           0       -1.523880    1.922180    1.295540
     12          1           0       -0.564920    1.789110   -1.379520
     13          8           0       -2.722250    1.405030   -0.240740
     14          1           0       -2.906290    0.586570   -0.740940
     15          6           0        0.725080    2.388180    0.272620
     16          8           0        2.022030    2.419410   -0.318230
     17          1           0        0.888940    2.083010    1.310240
     18          1           0        0.268550    3.388540    0.285120
     19          1           0        1.929240    2.654410   -1.255550
     20          1           0        1.035880   -2.220360   -0.425650
     21          6           0       -1.377590   -1.282810   -0.026920
     22          1           0       -1.158570   -2.260700    0.418930
     23          6           0       -1.448870   -0.222110    1.092870
     24          1           0       -2.346940   -0.386730    1.698780
     25          8           0       -2.602480   -1.338150   -0.778280
     26          1           0       -3.288960   -1.727450   -0.212800
     27          8           0       -0.335820   -0.353150    1.972620
     28          1           0        0.447130   -0.311940    1.393470
     29          8           0        0.631210   -1.957680   -1.292770
     30          1           0       -0.735690   -0.676080   -2.011680
 ---------------------------------------------------------------------
                    Distance matrix (angstroms):
                    1          2          3          4          5
     1  C    0.000000
     2  O    1.441563   0.000000
     3  H    3.697279   2.539763   0.000000
     4  H    3.714406   3.545239   3.655347   0.000000
     5  O    3.353674   3.281870   3.269447   0.968563   0.000000
     6  H    3.475680   3.039118   2.376054   1.578569   0.991543
     7  O    3.730874   2.880167   0.979614   3.306100   2.729048
     8  H    3.055321   2.454242   1.514759   3.466799   2.742180
     9  C    2.908932   2.482431   4.562896   4.753595   4.945388
    10  C    2.435756   1.431826   3.298220   4.562776   4.508864
    11  H    3.910174   3.250822   4.894117   5.113668   5.453432
    12  H    2.761188   2.074432   3.887535   5.517202   5.346777
    13  O    3.492579   3.452856   5.733228   5.977096   6.102650
    14  H    3.067627   3.426532   5.893721   5.903804   5.941368
    15  C    3.713365   2.363934   2.866771   4.803124   4.843999
    16  O    4.125507   2.711219   1.999926   4.988000   4.830888
    17  H    4.004499   2.699815   2.933183   4.223147   4.452749
    18  H    4.558675   3.315953   3.865627   5.824347   5.920053
    19  H    4.211137   2.926846   2.483733   5.661366   5.386163
    20  H    1.931292   2.480206   3.470961   2.443520   1.768097
    21  C    1.556442   2.447721   4.756964   3.694060   3.681876
    22  H    2.175266   3.123634   5.087233   3.213790   3.239190
    23  C    2.556084   2.596759   4.679515   3.695711   4.000733
    24  H    3.497770   3.687361   5.733736   4.342718   4.779090
    25  O    2.390932   3.460972   5.940098   5.102203   5.044970
    26  H    3.240206   4.259150   6.690714   5.408403   5.476905
    27  O    3.084467   2.738427   4.075735   2.609294   3.143122
    28  H    2.624711   2.036970   3.130443   2.168154   2.493700
    29  O    1.377496   2.272186   3.670544   3.382605   2.729905
    30  H    1.098500   2.079400   4.329081   4.806297   4.392685
                    6          7          8          9         10
     6  H    0.000000
     7  O    1.799793   0.000000
     8  H    2.037605   0.972672   0.000000
     9  C    4.940862   5.116870   4.888084   0.000000
    10  C    4.240450   3.936123   3.675864   1.560821   0.000000
    11  H    5.386972   5.551798   5.496635   1.096011   2.182894
    12  H    5.058006   4.518976   4.115222   2.171184   1.102143
    13  O    6.164134   6.271373   5.900990   1.417458   2.483489
    14  H    6.103158   6.303972   5.808389   1.943499   2.807897
    15  C    4.336886   3.747506   3.844743   2.550686   1.531456
    16  O    4.094462   2.965538   3.184788   3.830843   2.482138
    17  H    3.991755   3.741554   4.024754   2.698745   2.156330
    18  H    5.428440   4.786312   4.884300   2.837786   2.155612
    19  H    4.662816   3.352326   3.361474   4.126606   2.647957
    20  H    2.143393   3.029473   2.458141   4.357941   3.848074
    21  C    4.094979   4.827947   4.327216   2.530401   2.943838
    22  H    3.887080   4.973998   4.512040   3.472712   3.868557
    23  C    4.275455   4.980105   4.742183   1.544502   2.515854
    24  H    5.172025   6.023362   5.807622   2.161522   3.469372
    25  O    5.465405   6.048865   5.433878   3.026042   3.640728
    26  H    6.008986   6.782471   6.222597   3.483919   4.375237
    27  O    3.379754   4.320569   4.331546   2.454536   2.953665
    28  H    2.542109   3.349914   3.373562   2.639717   2.576975
    29  O    2.932196   3.342472   2.554260   4.204978   3.591817
    30  H    4.455398   4.425483   3.644326   3.209662   2.682845
                   11         12         13         14         15
    11  H    0.000000
    12  H    2.844865   0.000000
    13  O    2.015860   2.469496   0.000000
    14  H    2.800386   2.708487   0.976702   0.000000
    15  C    2.514228   2.180035   3.621354   4.178511   0.000000
    16  O    3.927463   2.866343   4.852130   5.275066   1.425538
    17  H    2.418219   3.071627   3.988219   4.566229   1.093908
    18  H    2.526651   2.454358   3.627082   4.356999   1.099680
    19  H    4.355256   2.642905   4.922108   5.284235   1.963717
    20  H    5.164833   4.421343   5.225054   4.849636   4.671490
    21  C    3.470196   3.453498   3.013024   2.518200   4.241122
    22  H    4.289333   4.470772   4.039534   3.536491   5.018130
    23  C    2.155152   3.307429   2.459186   2.478083   3.494636
    24  H    2.484169   4.169629   2.667021   2.685595   4.378512
    25  O    4.011715   3.780595   2.797915   1.948908   5.105152
    26  H    4.325552   4.598676   3.183453   2.404175   5.769451
    27  O    2.654628   3.984797   3.699352   3.854062   3.395644
    28  H    2.980900   3.623276   3.957726   4.075347   2.936700
    29  O    5.137808   3.934042   4.864183   4.392224   4.620147
    30  H    4.279007   2.550676   3.378412   2.814351   4.091646
                   16         17         18         19         20
    16  O    0.000000
    17  H    2.012206   0.000000
    18  H    2.092352   1.772051   0.000000
    19  H    0.970775   2.827013   2.381282   0.000000
    20  H    4.744628   4.642618   5.705589   5.024959   0.000000
    21  C    5.034750   4.272458   4.962727   5.286431   2.619699
    22  H    5.706404   4.884112   5.828249   6.041255   2.351713
    23  C    4.584319   3.290317   4.079067   5.020067   3.531698
    24  H    5.570516   4.089193   4.805402   6.021820   4.395324
    25  O    5.976370   5.315662   5.631628   6.058449   3.760360
    26  H    6.739004   5.856117   6.251172   6.893304   4.358039
    27  O    4.300528   2.806004   4.148875   4.959536   3.334626
    28  H    3.587548   2.436782   3.867025   4.244195   2.701461
    29  O    4.695000   4.813446   5.585994   4.791413   0.992298
    30  H    4.478264   4.613800   4.775450   4.331945   2.835269
                   21         22         23         24         25
    21  C    0.000000
    22  H    1.096823   0.000000
    23  C    1.544051   2.166638   0.000000
    24  H    2.172703   2.561641   1.095790   0.000000
    25  O    1.438040   2.090284   2.465272   2.665769   0.000000
    26  H    1.971190   2.285170   2.712334   2.517751   0.970864
    27  O    2.438793   2.594151   1.424785   2.029956   3.698030
    28  H    2.507927   2.706597   1.921782   2.811696   3.881975
    29  O    2.468421   2.495005   3.609739   4.504068   3.332457
    30  H    2.172425   2.932186   3.217599   4.055535   2.333349
                   26         27         28         29         30
    26  H    0.000000
    27  O    3.922473   0.000000
    28  H    4.306059   0.974743   0.000000
    29  O    4.072723   3.764630   3.155666   0.000000
    30  H    3.295533   4.017316   3.623080   2.006924   0.000000
 Symmetry turned off by external request.
 Stoichiometry    C6H16O8
 Framework group  C1[X(C6H16O8)]
 Deg. of freedom    84
 Full point group                 C1      NOp   1
 Rotational constants (GHZ):      0.7545293      0.5787777      0.4280225
 Standard basis: 6-31G(d) (6D, 7F)
   242 basis functions,   456 primitive gaussians,   242 cartesian basis functions
    58 alpha electrons       58 beta electrons
       nuclear repulsion energy      1136.1538014261 Hartrees.
 NAtoms=   30 NActive=   30 NUniq=   30 SFac= 1.00D+00 NAtFMM=   60 NAOKFM=F Big=F
 Integral buffers will be    131072 words long.
 Raffenetti 2 integral format.
 Two-electron integral symmetry is turned off.
 One-electron integrals computed using PRISM.
 NBasis=   242 RedAO= T EigKep=  1.68D-03  NBF=   242
 NBsUse=   242 1.00D-06 EigRej= -1.00D+00 NBFU=   242
 ExpMin= 1.61D-01 ExpMax= 5.48D+03 ExpMxC= 8.25D+02 IAcc=1 IRadAn=         1 AccDes= 0.00D+00
 Harris functional with IExCor=  402 and IRadAn=       1 diagonalized for initial guess.
 HarFok:  IExCor=  402 AccDes= 0.00D+00 IRadAn=         1 IDoV= 1 UseB2=F ITyADJ=14
 ICtDFT=  3500011 ScaDFX=  1.000000  1.000000  1.000000  1.000000
 FoFCou: FMM=F IPFlag=           0 FMFlag=      100000 FMFlg1=           0
         NFxFlg=           0 DoJE=T BraDBF=F KetDBF=T FulRan=T
         wScrn=  0.000000 ICntrl=     500 IOpCl=  0 I1Cent=   200000004 NGrid=           0
         NMat0=    1 NMatS0=      1 NMatT0=    0 NMatD0=    1 NMtDS0=    0 NMtDT0=    0
 Symmetry not used in FoFCou.
 Requested convergence on RMS density matrix=1.00D-08 within 128 cycles.
 Requested convergence on MAX density matrix=1.00D-06.
 Requested convergence on             energy=1.00D-06.
 No special actions if energy rises.
 Integral accuracy reduced to 1.0D-05 until final iterations.
 Initial convergence to 1.0D-05 achieved.  Increase integral accuracy.
 SCF Done:  E(RB3LYP) =  -840.000018473     A.U. after   13 cycles
            NFock= 13  Conv=0.99D-08     -V/T= 2.0086
 DoSCS=F DFT=T ScalE2(SS,OS)=  1.000000  1.000000
 Range of M.O.s used for correlation:     1   242
 NBasis=   242 NAE=    58 NBE=    58 NFC=     0 NFV=     0
 NROrb=    242 NOA=    58 NOB=    58 NVA=   184 NVB=   184
 Symmetrizing basis deriv contribution to polar:
 IMax=3 JMax=2 DiffMx= 0.00D+00
 G2DrvN: will do    31 centers at a time, making    1 passes.
 Calling FoFCou, ICntrl=  3107 FMM=F I1Cent=   0 AccDes= 0.00D+00.
 End of G2Drv F.D. properties file   721 does not exist.
 End of G2Drv F.D. properties file   722 does not exist.
 End of G2Drv F.D. properties file   788 does not exist.
          IDoAtm=111111111111111111111111111111
          Differentiating once with respect to nuclear coordinates.
          There are    93 degrees of freedom in the 1st order CPHF.  IDoFFX=6 NUNeed=     0.
     87 vectors produced by pass  0 Test12= 1.15D-14 1.08D-09 XBig12= 1.22D-01 4.59D-02.
 AX will form    87 AO Fock derivatives at one time.
     87 vectors produced by pass  1 Test12= 1.15D-14 1.08D-09 XBig12= 2.35D-02 1.76D-02.
     87 vectors produced by pass  2 Test12= 1.15D-14 1.08D-09 XBig12= 2.00D-04 1.34D-03.
     87 vectors produced by pass  3 Test12= 1.15D-14 1.08D-09 XBig12= 4.92D-07 8.07D-05.
     87 vectors produced by pass  4 Test12= 1.15D-14 1.08D-09 XBig12= 6.94D-10 2.28D-06.
     68 vectors produced by pass  5 Test12= 1.15D-14 1.08D-09 XBig12= 5.92D-13 6.45D-08.
      3 vectors produced by pass  6 Test12= 1.15D-14 1.08D-09 XBig12= 5.30D-16 2.15D-09.
 InvSVY:  IOpt=1 It=  1 EMax= 4.44D-16
 Solved reduced A of dimension   506 with    93 vectors.
 End of Minotr F.D. properties file   721 does not exist.
 End of Minotr F.D. properties file   722 does not exist.
 End of Minotr F.D. properties file   788 does not exist.

 **********************************************************************

            Population analysis using the SCF density.

 **********************************************************************

 Alpha  occ. eigenvalues --  -19.18704 -19.18096 -19.17567 -19.16094 -19.14985
 Alpha  occ. eigenvalues --  -19.14925 -19.14643 -19.13989 -10.29880 -10.25772
 Alpha  occ. eigenvalues --  -10.25675 -10.25654 -10.25388 -10.24980  -1.08739
 Alpha  occ. eigenvalues --   -1.05542  -1.04785  -1.03693  -1.02216  -1.01278
 Alpha  occ. eigenvalues --   -1.00448  -0.99186  -0.78910  -0.77644  -0.70319
 Alpha  occ. eigenvalues --   -0.66055  -0.64623  -0.59912  -0.56230  -0.55238
 Alpha  occ. eigenvalues --   -0.54282  -0.53000  -0.52473  -0.51316  -0.50445
 Alpha  occ. eigenvalues --   -0.47990  -0.46829  -0.45773  -0.45553  -0.43645
 Alpha  occ. eigenvalues --   -0.41447  -0.41309  -0.39987  -0.39615  -0.39050
 Alpha  occ. eigenvalues --   -0.38289  -0.36686  -0.35924  -0.35056  -0.33931
 Alpha  occ. eigenvalues --   -0.32034  -0.31613  -0.30693  -0.29770  -0.29452
 Alpha  occ. eigenvalues --   -0.28731  -0.27016  -0.25761
 Alpha virt. eigenvalues --    0.03207   0.04453   0.06331   0.08468   0.10043
 Alpha virt. eigenvalues --    0.10705   0.11056   0.11931   0.12647   0.13060
 Alpha virt. eigenvalues --    0.14518   0.14813   0.15879   0.16657   0.18419
 Alpha virt. eigenvalues --    0.19738   0.20332   0.21019   0.21955   0.22213
 Alpha virt. eigenvalues --    0.22908   0.24826   0.25481   0.26144   0.29774
 Alpha virt. eigenvalues --    0.31160   0.32575   0.34103   0.50981   0.52808
 Alpha virt. eigenvalues --    0.53564   0.54825   0.56491   0.56950   0.57327
 Alpha virt. eigenvalues --    0.59947   0.60321   0.61771   0.64619   0.65285
 Alpha virt. eigenvalues --    0.66981   0.69140   0.72434   0.74195   0.74686
 Alpha virt. eigenvalues --    0.76370   0.77185   0.78571   0.79202   0.80743
 Alpha virt. eigenvalues --    0.80974   0.81613   0.82419   0.82686   0.83957
 Alpha virt. eigenvalues --    0.85142   0.86068   0.86631   0.87952   0.88966
 Alpha virt. eigenvalues --    0.89601   0.90946   0.91751   0.93800   0.95221
 Alpha virt. eigenvalues --    0.96588   0.97611   0.98300   1.00217   1.01400
 Alpha virt. eigenvalues --    1.03632   1.04480   1.04957   1.05597   1.08284
 Alpha virt. eigenvalues --    1.09327   1.11261   1.12974   1.14793   1.17400
 Alpha virt. eigenvalues --    1.17696   1.20033   1.21214   1.24213   1.26271
 Alpha virt. eigenvalues --    1.27133   1.28734   1.29614   1.31829   1.35561
 Alpha virt. eigenvalues --    1.37543   1.40976   1.46027   1.47410   1.48978
 Alpha virt. eigenvalues --    1.50982   1.51866   1.54727   1.58224   1.58830
 Alpha virt. eigenvalues --    1.61767   1.63318   1.64938   1.67671   1.69696
 Alpha virt. eigenvalues --    1.70061   1.71624   1.72542   1.73532   1.73876
 Alpha virt. eigenvalues --    1.74220   1.75093   1.76293   1.78356   1.78834
 Alpha virt. eigenvalues --    1.80664   1.81545   1.83339   1.84750   1.85144
 Alpha virt. eigenvalues --    1.86882   1.88284   1.89342   1.91246   1.96457
 Alpha virt. eigenvalues --    1.97745   1.98505   2.01333   2.03575   2.04325
 Alpha virt. eigenvalues --    2.07202   2.07965   2.11091   2.12361   2.14272
 Alpha virt. eigenvalues --    2.16843   2.18562   2.21268   2.24366   2.27799
 Alpha virt. eigenvalues --    2.28711   2.31234   2.33980   2.34990   2.36748
 Alpha virt. eigenvalues --    2.41381   2.41743   2.44690   2.45559   2.48543
 Alpha virt. eigenvalues --    2.50914   2.51582   2.54899   2.57173   2.58082
 Alpha virt. eigenvalues --    2.59353   2.61106   2.61905   2.64393   2.68580
 Alpha virt. eigenvalues --    2.70588   2.75215   2.80809   2.84854   2.89287
 Alpha virt. eigenvalues --    2.91241   2.95912   2.98550   3.01458   3.04790
 Alpha virt. eigenvalues --    3.70710   3.74170   3.76633   3.85428   3.88502
 Alpha virt. eigenvalues --    3.95871   4.07943   4.11626   4.24972   4.37908
 Alpha virt. eigenvalues --    4.44650   4.57657   4.73459   4.78991
          Condensed to atoms (all electrons):
               1          2          3          4          5          6
     1  C    4.657931   0.170698   0.000034  -0.000052   0.002995  -0.000265
     2  O    0.170698   8.413622   0.004287  -0.000263  -0.001125   0.000685
     3  H    0.000034   0.004287   0.320612  -0.000078   0.001129  -0.002509
     4  H   -0.000052  -0.000263  -0.000078   0.364873   0.235496  -0.010305
     5  O    0.002995  -0.001125   0.001129   0.235496   8.358383   0.193459
     6  H   -0.000265   0.000685  -0.002509  -0.010305   0.193459   0.321546
     7  O   -0.000395  -0.002707   0.228418   0.000836  -0.027540   0.077349
     8  H    0.000538   0.006780  -0.022092  -0.000022   0.003922  -0.009693
     9  C   -0.019965  -0.036724   0.000013   0.000074   0.000029  -0.000007
    10  C   -0.009424   0.177410  -0.001356  -0.000016  -0.000075  -0.000034
    11  H    0.000294   0.003435   0.000001  -0.000002   0.000000  -0.000000
    12  H   -0.004253  -0.040918  -0.000024  -0.000000  -0.000003   0.000002
    13  O    0.000442   0.001159  -0.000000  -0.000000   0.000000  -0.000000
    14  H   -0.001172   0.000232  -0.000000   0.000000  -0.000000   0.000000
    15  C    0.003181  -0.044501  -0.003854   0.000014  -0.000002   0.000045
    16  O    0.000064  -0.000450   0.049150   0.000000  -0.000001   0.000002
    17  H   -0.000188  -0.002373  -0.001248  -0.000042  -0.000035   0.000038
    18  H   -0.000051   0.003310   0.000468  -0.000000  -0.000000   0.000001
    19  H   -0.000086   0.000535  -0.002912  -0.000000   0.000000  -0.000005
    20  H   -0.022945   0.002093  -0.000039  -0.004276   0.070849  -0.005787
    21  C    0.279434  -0.049833  -0.000017   0.000096   0.000421  -0.000082
    22  H   -0.041568   0.002999  -0.000001   0.000593   0.000861  -0.000046
    23  C   -0.040607   0.009180   0.000027  -0.000354  -0.000816   0.000053
    24  H    0.004527   0.000112   0.000000  -0.000031  -0.000009   0.000000
    25  O   -0.029850   0.000950  -0.000000   0.000001   0.000002  -0.000000
    26  H    0.005873  -0.000154   0.000000  -0.000000  -0.000000   0.000000
    27  O    0.003917  -0.019230  -0.000007   0.009508  -0.004481  -0.000003
    28  H    0.003452   0.034096   0.000364  -0.000017   0.019674   0.001031
    29  O    0.313407  -0.058134  -0.000107   0.001351  -0.026424   0.002917
    30  H    0.377139  -0.041646   0.000020   0.000006  -0.000045   0.000020
               7          8          9         10         11         12
     1  C   -0.000395   0.000538  -0.019965  -0.009424   0.000294  -0.004253
     2  O   -0.002707   0.006780  -0.036724   0.177410   0.003435  -0.040918
     3  H    0.228418  -0.022092   0.000013  -0.001356   0.000001  -0.000024
     4  H    0.000836  -0.000022   0.000074  -0.000016  -0.000002  -0.000000
     5  O   -0.027540   0.003922   0.000029  -0.000075   0.000000  -0.000003
     6  H    0.077349  -0.009693  -0.000007  -0.000034  -0.000000   0.000002
     7  O    8.320870   0.232487  -0.000007  -0.000137  -0.000000  -0.000001
     8  H    0.232487   0.370319   0.000025   0.000393  -0.000001  -0.000032
     9  C   -0.000007   0.000025   5.031654   0.252476   0.376730  -0.057462
    10  C   -0.000137   0.000393   0.252476   5.089740  -0.068236   0.350789
    11  H   -0.000000  -0.000001   0.376730  -0.068236   0.598153   0.004380
    12  H   -0.000001  -0.000032  -0.057462   0.350789   0.004380   0.623116
    13  O    0.000000  -0.000000   0.237124  -0.041037  -0.041865   0.005380
    14  H   -0.000000  -0.000000  -0.031073  -0.002081   0.005797   0.001121
    15  C    0.001359  -0.000418  -0.015258   0.322508  -0.001234  -0.037584
    16  O   -0.011563   0.000778   0.002486  -0.034818   0.000110  -0.002269
    17  H    0.000264  -0.000021  -0.006829  -0.036079   0.003530   0.005249
    18  H   -0.000021   0.000004   0.000865  -0.045694   0.003168  -0.002600
    19  H    0.000961   0.000177   0.000084  -0.002676   0.000008   0.003781
    20  H    0.001893  -0.001651   0.000018  -0.000174  -0.000002   0.000019
    21  C   -0.000027   0.000386  -0.015920  -0.024881   0.005627  -0.001841
    22  H    0.000003  -0.000023   0.005776   0.000085  -0.000175   0.000033
    23  C   -0.000001  -0.000033   0.286765  -0.029840  -0.036731   0.004596
    24  H   -0.000000   0.000001  -0.051300   0.006624  -0.006537  -0.000203
    25  O    0.000000  -0.000001   0.000276   0.000401  -0.000191  -0.000005
    26  H   -0.000000   0.000000  -0.000709   0.000031  -0.000011  -0.000015
    27  O   -0.000040   0.000003  -0.038840   0.007771   0.001789  -0.000202
    28  H    0.000925  -0.000016  -0.009592  -0.001464  -0.000062   0.000632
    29  O   -0.002256   0.017039   0.000083   0.003099   0.000004  -0.000048
    30  H   -0.000005  -0.000220  -0.001571  -0.005467   0.000055   0.009728
              13         14         15         16         17         18
     1  C    0.000442  -0.001172   0.003181   0.000064  -0.000188  -0.000051
     2  O    0.001159   0.000232  -0.044501  -0.000450  -0.002373   0.003310
     3  H   -0.000000  -0.000000  -0.003854   0.049150  -0.001248   0.000468
     4  H   -0.000000   0.000000   0.000014   0.000000  -0.000042  -0.000000
     5  O    0.000000  -0.000000  -0.000002  -0.000001  -0.000035  -0.000000
     6  H   -0.000000   0.000000   0.000045   0.000002   0.000038   0.000001
     7  O    0.000000  -0.000000   0.001359  -0.011563   0.000264  -0.000021
     8  H   -0.000000  -0.000000  -0.000418   0.000778  -0.000021   0.000004
     9  C    0.237124  -0.031073  -0.015258   0.002486  -0.006829   0.000865
    10  C   -0.041037  -0.002081   0.322508  -0.034818  -0.036079  -0.045694
    11  H   -0.041865   0.005797  -0.001234   0.000110   0.003530   0.003168
    12  H    0.005380   0.001121  -0.037584  -0.002269   0.005249  -0.002600
    13  O    8.300254   0.225014   0.002002  -0.000009   0.000070  -0.000044
    14  H    0.225014   0.353617  -0.000005   0.000001   0.000001   0.000004
    15  C    0.002002  -0.000005   4.910560   0.235290   0.369122   0.358856
    16  O   -0.000009   0.000001   0.235290   8.207566  -0.038353  -0.030930
    17  H    0.000070   0.000001   0.369122  -0.038353   0.557135  -0.035407
    18  H   -0.000044   0.000004   0.358856  -0.030930  -0.035407   0.600540
    19  H   -0.000001  -0.000000  -0.028773   0.234971   0.006692  -0.004527
    20  H   -0.000000   0.000003   0.000024  -0.000003  -0.000005   0.000000
    21  C    0.002364  -0.004224   0.000155  -0.000021   0.000186  -0.000028
    22  H   -0.000181   0.000773   0.000019  -0.000000  -0.000006  -0.000000
    23  C   -0.026817  -0.011458  -0.002626   0.000002  -0.000034   0.000366
    24  H    0.004816  -0.000542  -0.000114   0.000001  -0.000067   0.000011
    25  O   -0.017162   0.051974  -0.000005   0.000000  -0.000002  -0.000000
    26  H    0.001513  -0.002611  -0.000001   0.000000  -0.000000   0.000000
    27  O    0.001537   0.000060  -0.003478   0.000010   0.007588   0.000073
    28  H    0.000020   0.000040   0.000345  -0.000079   0.002023   0.000043
    29  O    0.000002   0.000010  -0.000147   0.000001   0.000002   0.000001
    30  H    0.000402   0.001491  -0.000002  -0.000023   0.000014   0.000018
              19         20         21         22         23         24
     1  C   -0.000086  -0.022945   0.279434  -0.041568  -0.040607   0.004527
     2  O    0.000535   0.002093  -0.049833   0.002999   0.009180   0.000112
     3  H   -0.002912  -0.000039  -0.000017  -0.000001   0.000027   0.000000
     4  H   -0.000000  -0.004276   0.000096   0.000593  -0.000354  -0.000031
     5  O    0.000000   0.070849   0.000421   0.000861  -0.000816  -0.000009
     6  H   -0.000005  -0.005787  -0.000082  -0.000046   0.000053   0.000000
     7  O    0.000961   0.001893  -0.000027   0.000003  -0.000001  -0.000000
     8  H    0.000177  -0.001651   0.000386  -0.000023  -0.000033   0.000001
     9  C    0.000084   0.000018  -0.015920   0.005776   0.286765  -0.051300
    10  C   -0.002676  -0.000174  -0.024881   0.000085  -0.029840   0.006624
    11  H    0.000008  -0.000002   0.005627  -0.000175  -0.036731  -0.006537
    12  H    0.003781   0.000019  -0.001841   0.000033   0.004596  -0.000203
    13  O   -0.000001  -0.000000   0.002364  -0.000181  -0.026817   0.004816
    14  H   -0.000000   0.000003  -0.004224   0.000773  -0.011458  -0.000542
    15  C   -0.028773   0.000024   0.000155   0.000019  -0.002626  -0.000114
    16  O    0.234971  -0.000003  -0.000021  -0.000000   0.000002   0.000001
    17  H    0.006692  -0.000005   0.000186  -0.000006  -0.000034  -0.000067
    18  H   -0.004527   0.000000  -0.000028  -0.000000   0.000366   0.000011
    19  H    0.387784  -0.000001   0.000007  -0.000000  -0.000008  -0.000000
    20  H   -0.000001   0.310960  -0.008874   0.005000  -0.000178  -0.000025
    21  C    0.000007  -0.008874   5.210355   0.359029   0.279213  -0.047215
    22  H   -0.000000   0.005000   0.359029   0.585030  -0.048995  -0.004866
    23  C   -0.000008  -0.000178   0.279213  -0.048995   5.013072   0.370301
    24  H   -0.000000  -0.000025  -0.047215  -0.004866   0.370301   0.605092
    25  O   -0.000000   0.000001   0.156273  -0.025888  -0.032420   0.000712
    26  H    0.000000  -0.000003  -0.019333  -0.006790  -0.001632   0.004631
    27  O   -0.000003   0.000061  -0.034068   0.004253   0.212880  -0.033338
    28  H    0.000015   0.001170  -0.011158   0.000122  -0.030582   0.006099
    29  O    0.000001   0.202088  -0.032579   0.000003   0.001621  -0.000069
    30  H    0.000001   0.005433  -0.078645   0.004466   0.002724  -0.000281
              25         26         27         28         29         30
     1  C   -0.029850   0.005873   0.003917   0.003452   0.313407   0.377139
     2  O    0.000950  -0.000154  -0.019230   0.034096  -0.058134  -0.041646
     3  H   -0.000000   0.000000  -0.000007   0.000364  -0.000107   0.000020
     4  H    0.000001  -0.000000   0.009508  -0.000017   0.001351   0.000006
     5  O    0.000002  -0.000000  -0.004481   0.019674  -0.026424  -0.000045
     6  H   -0.000000   0.000000  -0.000003   0.001031   0.002917   0.000020
     7  O    0.000000  -0.000000  -0.000040   0.000925  -0.002256  -0.000005
     8  H   -0.000001   0.000000   0.000003  -0.000016   0.017039  -0.000220
     9  C    0.000276  -0.000709  -0.038840  -0.009592   0.000083  -0.001571
    10  C    0.000401   0.000031   0.007771  -0.001464   0.003099  -0.005467
    11  H   -0.000191  -0.000011   0.001789  -0.000062   0.000004   0.000055
    12  H   -0.000005  -0.000015  -0.000202   0.000632  -0.000048   0.009728
    13  O   -0.017162   0.001513   0.001537   0.000020   0.000002   0.000402
    14  H    0.051974  -0.002611   0.000060   0.000040   0.000010   0.001491
    15  C   -0.000005  -0.000001  -0.003478   0.000345  -0.000147  -0.000002
    16  O    0.000000   0.000000   0.000010  -0.000079   0.000001  -0.000023
    17  H   -0.000002  -0.000000   0.007588   0.002023   0.000002   0.000014
    18  H   -0.000000   0.000000   0.000073   0.000043   0.000001   0.000018
    19  H   -0.000000   0.000000  -0.000003   0.000015   0.000001   0.000001
    20  H    0.000001  -0.000003   0.000061   0.001170   0.202088   0.005433
    21  C    0.156273  -0.019333  -0.034068  -0.011158  -0.032579  -0.078645
    22  H   -0.025888  -0.006790   0.004253   0.000122   0.000003   0.004466
    23  C   -0.032420  -0.001632   0.212880  -0.030582   0.001621   0.002724
    24  H    0.000712   0.004631  -0.033338   0.006099  -0.000069  -0.000281
    25  O    8.288157   0.231645   0.001657   0.000050   0.001095   0.005877
    26  H    0.231645   0.378755   0.000007   0.000014  -0.000198  -0.000420
    27  O    0.001657   0.000007   8.335773   0.200918  -0.000116  -0.000161
    28  H    0.000050   0.000014   0.200918   0.379961  -0.000954   0.000652
    29  O    0.001095  -0.000198  -0.000116  -0.000954   8.267750  -0.040158
    30  H    0.005877  -0.000420  -0.000161   0.000652  -0.040158   0.608479
 Mulliken charges:
               1
     1  C    0.346895
     2  O   -0.533526
     3  H    0.429717
     4  H    0.402609
     5  O   -0.826667
     6  H    0.431585
     7  O   -0.820668
     8  H    0.401370
     9  C    0.090780
    10  C    0.092161
    11  H    0.151961
    12  H    0.138632
    13  O   -0.654984
    14  H    0.413027
    15  C   -0.065478
    16  O   -0.611914
    17  H    0.168774
    18  H    0.151574
    19  H    0.403973
    20  H    0.444349
    21  C    0.035200
    22  H    0.159494
    23  C    0.082331
    24  H    0.141671
    25  O   -0.633548
    26  H    0.409407
    27  O   -0.653838
    28  H    0.402278
    29  O   -0.649284
    30  H    0.152117
 Sum of Mulliken charges =  -0.00000
 Mulliken charges with hydrogens summed into heavy atoms:
               1
     1  C    0.499012
     2  O   -0.533526
     5  O    0.007528
     7  O    0.010419
     9  C    0.242741
    10  C    0.230794
    13  O   -0.241956
    15  C    0.254871
    16  O   -0.207940
    21  C    0.194694
    23  C    0.224002
    25  O   -0.224141
    27  O   -0.251560
    29  O   -0.204936
 APT charges:
               1
     1  C   -0.264856
     2  O   -0.362794
     3  H    0.335504
     4  H    0.510627
     5  O   -0.859499
     6  H    0.395846
     7  O   -0.628098
     8  H    0.325773
     9  C   -0.361391
    10  C   -0.267881
    11  H    0.492921
    12  H    0.407943
    13  O   -0.590738
    14  H    0.462427
    15  C   -0.719640
    16  O   -0.753683
    17  H    0.314451
    18  H    0.574511
    19  H    0.664795
    20  H    0.460054
    21  C   -0.233919
    22  H    0.441530
    23  C   -0.444115
    24  H    0.567037
    25  O   -1.007715
    26  H    0.841181
    27  O   -0.521556
    28  H    0.316567
    29  O   -0.530750
    30  H    0.435468
 Sum of APT charges =  -0.00000
 APT charges with hydrogens summed into heavy atoms:
               1
     1  C    0.170612
     2  O   -0.362794
     5  O    0.046974
     7  O    0.033180
     9  C    0.131530
    10  C    0.140062
    13  O   -0.128311
    15  C    0.169323
    16  O   -0.088888
    21  C    0.207612
    23  C    0.122922
    25  O   -0.166534
    27  O   -0.204989
    29  O   -0.070696
 Electronic spatial extent (au):  <R**2>=           2863.4717
 Charge=             -0.0000 electrons
 Dipole moment (field-independent basis, Debye):
    X=             -2.7063    Y=              1.6392    Z=              0.2625  Tot=              3.1749
 Quadrupole moment (field-independent basis, Debye-Ang):
   XX=            -92.5342   YY=            -84.0881   ZZ=            -83.0465
   XY=             12.1411   XZ=             -2.4617   YZ=             -7.0868
 Traceless Quadrupole moment (field-independent basis, Debye-Ang):
   XX=             -5.9779   YY=              2.4682   ZZ=              3.5098
   XY=             12.1411   XZ=             -2.4617   YZ=             -7.0868
 Octapole moment (field-independent basis, Debye-Ang**2):
  XXX=            -47.2423  YYY=             14.6250  ZZZ=             -8.9125  XYY=             -4.7326
  XXY=            -28.8248  XXZ=              6.2129  XZZ=             17.9723  YZZ=              9.9432
  YYZ=              1.2634  XYZ=             -4.5140
 Hexadecapole moment (field-independent basis, Debye-Ang**3):
 XXXX=          -1749.9681 YYYY=          -1227.1764 ZZZZ=           -503.5532 XXXY=            128.1889
 XXXZ=            -11.8989 YYYX=             64.8400 YYYZ=            -44.2327 ZZZX=             15.9669
 ZZZY=            -39.2295 XXYY=           -506.1756 XXZZ=           -322.6650 YYZZ=           -273.2928
 XXYZ=            -20.4778 YYXZ=            -36.2492 ZZXY=              0.4123
 N-N= 1.136153801426D+03 E-N=-4.243839692499D+03  KE= 8.328685892882D+02
  Exact polarizability:   0.000   0.000   0.000   0.000   0.000   0.000
 Approx polarizability: 134.027  -2.558 128.613   3.761  -0.721 127.765
 Calling FoFJK, ICntrl=    100147 FMM=F ISym2X=0 I1Cent= 0 IOpClX= 0 NMat=1 NMatS=1 NMatT=0.
 -------------------------------------------------------------------
 Center     Atomic                   Forces (Hartrees/Bohr)
 Number     Number              X              Y              Z
 -------------------------------------------------------------------
      1        6          -0.000002256   -0.000002870    0.000006216
      2        8           0.000005798   -0.000008812   -0.000000759
      3        1          -0.000011653   -0.000020992   -0.000002937
      4        1          -0.000007464    0.000006034    0.000020592
      5        8          -0.000009195   -0.000008023    0.000015344
      6        1          -0.000003409    0.000001323    0.000013504
      7        8           0.000004176    0.000006404   -0.000002045
      8        1           0.000005454    0.000004259    0.000039037
      9        6          -0.000001031    0.000009548   -0.000014812
     10        6           0.000005171   -0.000000125   -0.000016713
     11        1          -0.000001298    0.000005658   -0.000008443
     12        1           0.000005175   -0.000002997   -0.000004230
     13        8           0.000006624    0.000008160   -0.000023937
     14        1           0.000001043   -0.000003928   -0.000009861
     15        6           0.000006189    0.000001080   -0.000011567
     16        8           0.000008614   -0.000011619    0.000002985
     17        1          -0.000002067    0.000003271   -0.000004294
     18        1           0.000003934   -0.000001306   -0.000010093
     19        1           0.000005988   -0.000004620   -0.000014052
     20        1          -0.000004448   -0.000002802    0.000003587
     21        6           0.000000639    0.000005027    0.000008289
     22        1          -0.000002321    0.000001846    0.000004203
     23        6          -0.000005957    0.000009315   -0.000008912
     24        1          -0.000004530    0.000006688   -0.000001076
     25        8          -0.000005329   -0.000001335   -0.000004175
     26        1          -0.000000499    0.000001675   -0.000000919
     27        8          -0.000003372    0.000015695    0.000001037
     28        1          -0.000005046    0.000006052    0.000001409
     29        8           0.000009227   -0.000016642    0.000024586
     30        1           0.000001843   -0.000005964   -0.000001964
 -------------------------------------------------------------------
 Cartesian Forces:  Max     0.000039037 RMS     0.000009228
 IRC-IRC-IRC-IRC-IRC-IRC-IRC-IRC-IRC-IRC-IRC-IRC-IRC-IRC-IRC-IRC-IRC-IRC
          ******** Start new reaction path calculation ********
 Supplied step size of   0.1000 bohr.
    Integration on MW PES will use step size of   0.1534 sqrt(amu)*bohr.
 Point Number:   0          Path Number:   1
 Calculating another point on the path.
 IRC-IRC-IRC-IRC-IRC-IRC-IRC-IRC-IRC-IRC-IRC-IRC-IRC-IRC-IRC-IRC-IRC-IRC
                          Input orientation:                          
 ---------------------------------------------------------------------
 Center     Atomic      Atomic             Coordinates (Angstroms)
 Number     Number       Type             X           Y           Z
 ---------------------------------------------------------------------
      1          6           0       -0.253795   -0.930456   -1.047051
      2          8           0        0.503291    0.199319   -0.570948
      3          1           0        2.972618    0.666545   -0.192449
      4          1           0        1.715403   -2.024041    1.951614
      5          8           0        2.031667   -2.198728    1.052218
      6          1           0        2.642640   -1.458084    0.803880
      7          8           0        3.340146   -0.234044   -0.309666
      8          1           0        2.784199   -0.583095   -1.027460
      9          6           0       -1.508363    1.199124    0.485650
     10          6           0       -0.232504    1.413631   -0.387024
     11          1           0       -1.513268    1.928463    1.303727
     12          1           0       -0.552666    1.796118   -1.369915
     13          8           0       -2.711123    1.412903   -0.233626
     14          1           0       -2.895836    0.594596   -0.733794
     15          6           0        0.736984    2.390796    0.283800
     16          8           0        2.033316    2.424001   -0.308628
     17          1           0        0.901844    2.081778    1.320077
     18          1           0        0.280745    3.391236    0.299904
     19          1           0        1.939181    2.661268   -1.245247
     20          1           0        1.041561   -2.214998   -0.416397
     21          6           0       -1.369855   -1.276331   -0.018816
     22          1           0       -1.151396   -2.254294    0.427216
     23          6           0       -1.441227   -0.215756    1.101051
     24          1           0       -2.341577   -0.378780    1.704181
     25          8           0       -2.594487   -1.331228   -0.770613
     26          1           0       -3.281706   -1.718367   -0.204537
     27          8           0       -0.331746   -0.349071    1.984146
     28          1           0        0.454395   -0.327738    1.408036
     29          8           0        0.638507   -1.953388   -1.283786
     30          1           0       -0.727096   -0.670923   -2.003797
 ---------------------------------------------------------------------
                    Distance matrix (angstroms):
                    1          2          3          4          5
     1  C    0.000000
     2  O    1.440918   0.000000
     3  H    3.700067   2.541483   0.000000
     4  H    3.750421   3.574334   3.662901   0.000000
     5  O    3.352429   3.274329   3.262571   0.969254   0.000000
     6  H    3.477596   3.035449   2.369726   1.580307   0.991723
     7  O    3.734319   2.881634   0.979733   3.310176   2.725220
     8  H    3.057851   2.454204   1.514709   3.477575   2.738911
     9  C    2.908302   2.482491   4.563184   4.788581   4.939455
    10  C    2.435329   1.431703   3.296786   4.591422   4.499669
    11  H    3.909712   3.251285   4.894298   5.144547   5.446424
    12  H    2.761841   2.074406   3.884583   5.547098   5.338941
    13  O    3.491626   3.452395   5.732683   6.015146   6.098470
    14  H    3.066642   3.425905   5.893808   5.944089   5.939089
    15  C    3.712616   2.363848   2.863201   4.819719   4.830156
    16  O    4.126563   2.712747   1.996106   4.999484   4.818872
    17  H    4.001543   2.697864   2.928946   4.233021   4.435198
    18  H    4.558183   3.316058   3.861675   5.840514   5.905878
    19  H    4.212945   2.928763   2.480987   5.676453   5.376473
    20  H    1.930212   2.478416   3.475977   2.469414   1.771272
    21  C    1.556434   2.447666   4.760460   3.736373   3.683515
    22  H    2.175246   3.123225   5.091440   3.255048   3.244318
    23  C    2.556390   2.597887   4.683334   3.735995   3.999444
    24  H    3.497493   3.688317   5.738517   4.384882   4.781478
    25  O    2.390790   3.461022   5.942897   5.144479   5.047432
    26  H    3.240197   4.258871   6.693618   5.451011   5.481069
    27  O    3.087433   2.743451   4.085078   2.645260   3.142522
    28  H    2.625311   2.048550   3.145091   2.182444   2.472852
    29  O    1.377911   2.271689   3.674661   3.410647   2.730934
    30  H    1.098515   2.079479   4.331014   4.841694   4.391377
                    6          7          8          9         10
     6  H    0.000000
     7  O    1.795764   0.000000
     8  H    2.034563   0.972698   0.000000
     9  C    4.938912   5.118060   4.887934   0.000000
    10  C    4.234554   3.935053   3.673904   1.560574   0.000000
    11  H    5.384247   5.552936   5.496415   1.095997   2.182670
    12  H    5.052246   4.516599   4.112493   2.170917   1.102214
    13  O    6.162935   6.271848   5.900233   1.417636   2.483362
    14  H    6.103495   6.305077   5.808269   1.943599   2.807918
    15  C    4.326186   3.744121   3.841162   2.549982   1.531262
    16  O    4.084058   2.961927   3.181693   3.830756   2.482122
    17  H    3.978373   3.736898   4.019420   2.698971   2.155773
    18  H    5.417420   4.782694   4.881033   2.835624   2.155508
    19  H    4.654335   3.349753   3.359670   4.125462   2.647520
    20  H    2.150686   3.036291   2.464405   4.355689   3.845913
    21  C    4.099998   4.832707   4.330601   2.530128   2.943644
    22  H    3.894937   4.979794   4.516402   3.472309   3.867947
    23  C    4.278978   4.985175   4.745494   1.544380   2.516004
    24  H    5.178596   6.029801   5.811814   2.160751   3.469015
    25  O    5.470157   6.052780   5.436537   3.026639   3.641477
    26  H    6.015192   6.786987   6.225853   3.483225   4.374968
    27  O    3.386725   4.331003   4.339775   2.454960   2.956250
    28  H    2.535962   3.359588   3.380064   2.652268   2.593537
    29  O    2.936022   3.347223   2.558788   4.204556   3.591609
    30  H    4.456208   4.427573   3.645565   3.210109   2.684016
                   11         12         13         14         15
    11  H    0.000000
    12  H    2.844052   0.000000
    13  O    2.015964   2.469200   0.000000
    14  H    2.800390   2.709012   0.976685   0.000000
    15  C    2.513490   2.179820   3.621249   4.178422   0.000000
    16  O    3.927277   2.864938   4.851561   5.274848   1.425676
    17  H    2.420029   3.071361   3.989350   4.566450   1.093865
    18  H    2.523063   2.455050   3.626256   4.356649   1.099678
    19  H    4.353582   2.640706   4.920074   5.283001   1.963777
    20  H    5.162775   4.420385   5.222807   4.847437   4.668660
    21  C    3.469927   3.454447   3.012826   2.517971   4.240067
    22  H    4.288902   4.471464   4.039529   3.536550   5.016314
    23  C    2.154981   3.307998   2.458969   2.477743   3.493796
    24  H    2.483915   4.168987   2.664918   2.682981   4.377850
    25  O    4.012170   3.782656   2.798610   1.949607   5.105287
    26  H    4.324535   4.599714   3.182964   2.403915   5.768324
    27  O    2.654455   3.987527   3.699257   3.853864   3.397092
    28  H    2.995500   3.638949   3.968047   4.081934   2.955366
    29  O    5.137522   3.935112   4.863618   4.391616   4.619411
    30  H    4.279555   2.553140   3.378195   2.813872   4.092769
                   16         17         18         19         20
    16  O    0.000000
    17  H    2.012467   0.000000
    18  H    2.092214   1.772342   0.000000
    19  H    0.970779   2.827148   2.381335   0.000000
    20  H    4.745050   4.636501   5.702787   5.026995   0.000000
    21  C    5.035675   4.269677   4.961072   5.287583   2.618032
    22  H    5.707039   4.880011   5.825739   6.042478   2.349954
    23  C    4.585625   3.288862   4.076446   5.020910   3.530418
    24  H    5.571954   4.089213   4.802248   6.022118   4.394789
    25  O    5.977603   5.314501   5.631574   6.059658   3.758639
    26  H    6.739400   5.853857   6.249285   6.893616   4.356853
    27  O    4.305840   2.805665   4.147495   4.964699   3.336205
    28  H    3.607214   2.452287   3.884440   4.263644   2.689809
    29  O    4.696590   4.809575   5.585792   4.794610   0.991592
    30  H    4.480182   4.612911   4.777438   4.334505   2.834105
                   21         22         23         24         25
    21  C    0.000000
    22  H    1.096850   0.000000
    23  C    1.544025   2.166492   0.000000
    24  H    2.172224   2.562171   1.095890   0.000000
    25  O    1.438032   2.090301   2.465241   2.663781   0.000000
    26  H    1.971056   2.285728   2.711045   2.514268   0.970870
    27  O    2.439127   2.593401   1.424282   2.029454   3.697747
    28  H    2.502724   2.692989   1.923581   2.812075   3.879329
    29  O    2.468213   2.494359   3.610001   4.504247   3.332069
    30  H    2.172512   2.932050   3.218266   4.054750   2.333215
                   26         27         28         29         30
    26  H    0.000000
    27  O    3.920150   0.000000
    28  H    4.300314   0.974872   0.000000
    29  O    4.072848   3.767573   3.150007   0.000000
    30  H    3.295528   4.020396   3.626887   2.006989   0.000000
 Symmetry turned off by external request.
 Stoichiometry    C6H16O8
 Framework group  C1[X(C6H16O8)]
 Deg. of freedom    84
 Full point group                 C1      NOp   1
 Rotational constants (GHZ):      0.7552599      0.5780075      0.4280709
 Standard basis: 6-31G(d) (6D, 7F)
   242 basis functions,   456 primitive gaussians,   242 cartesian basis functions
    58 alpha electrons       58 beta electrons
       nuclear repulsion energy      1136.0332051236 Hartrees.
 NAtoms=   30 NActive=   30 NUniq=   30 SFac= 1.00D+00 NAtFMM=   60 NAOKFM=F Big=F
 Integral buffers will be    131072 words long.
 Raffenetti 2 integral format.
 Two-electron integral symmetry is turned off.
 One-electron integrals computed using PRISM.
 NBasis=   242 RedAO= T EigKep=  1.68D-03  NBF=   242
 NBsUse=   242 1.00D-06 EigRej= -1.00D+00 NBFU=   242
 Initial guess from the checkpoint file:  "/scratch/10502201.yak.local/Gau-15998.chk"
 B after Tr=     0.018459    0.011956    0.016349
         Rot=    1.000000   -0.000034   -0.000019   -0.000007 Ang=  -0.00 deg.
 ExpMin= 1.61D-01 ExpMax= 5.48D+03 ExpMxC= 8.25D+02 IAcc=1 IRadAn=         1 AccDes= 0.00D+00
 Harris functional with IExCor=  402 and IRadAn=       1 diagonalized for initial guess.
 HarFok:  IExCor=  402 AccDes= 0.00D+00 IRadAn=         1 IDoV= 1 UseB2=F ITyADJ=14
 ICtDFT=  3500011 ScaDFX=  1.000000  1.000000  1.000000  1.000000
 FoFCou: FMM=F IPFlag=           0 FMFlag=      100000 FMFlg1=           0
         NFxFlg=           0 DoJE=T BraDBF=F KetDBF=T FulRan=T
         wScrn=  0.000000 ICntrl=     500 IOpCl=  0 I1Cent=   200000004 NGrid=           0
         NMat0=    1 NMatS0=      1 NMatT0=    0 NMatD0=    1 NMtDS0=    0 NMtDT0=    0
 Symmetry not used in FoFCou.
 Requested convergence on RMS density matrix=1.00D-08 within 128 cycles.
 Requested convergence on MAX density matrix=1.00D-06.
 Requested convergence on             energy=1.00D-06.
 No special actions if energy rises.
 Integral accuracy reduced to 1.0D-05 until final iterations.
 Initial convergence to 1.0D-05 achieved.  Increase integral accuracy.
 SCF Done:  E(RB3LYP) =  -840.000020966     A.U. after   10 cycles
            NFock= 10  Conv=0.94D-08     -V/T= 2.0086
 DoSCS=F DFT=T ScalE2(SS,OS)=  1.000000  1.000000
 Range of M.O.s used for correlation:     1   242
 NBasis=   242 NAE=    58 NBE=    58 NFC=     0 NFV=     0
 NROrb=    242 NOA=    58 NOB=    58 NVA=   184 NVB=   184
 Symmetrizing basis deriv contribution to polar:
 IMax=3 JMax=2 DiffMx= 0.00D+00
 Calling FoFJK, ICntrl=      2147 FMM=F ISym2X=0 I1Cent= 0 IOpClX= 0 NMat=1 NMatS=1 NMatT=0.
 -------------------------------------------------------------------
 Center     Atomic                   Forces (Hartrees/Bohr)
 Number     Number              X              Y              Z
 -------------------------------------------------------------------
      1        6          -0.000013250   -0.000002598    0.000003378
      2        8           0.000002983   -0.000024658   -0.000010839
      3        1          -0.000009269   -0.000020916   -0.000004303
      4        1           0.000305341   -0.000161446   -0.000781966
      5        8          -0.000306422    0.000246131    0.000833317
      6        1           0.000004455    0.000008471    0.000008151
      7        8           0.000020187    0.000029406   -0.000039230
      8        1           0.000008178    0.000005115    0.000038864
      9        6           0.000004860    0.000007488   -0.000016048
     10        6           0.000012863   -0.000007564   -0.000013472
     11        1          -0.000000899    0.000005462   -0.000008615
     12        1           0.000007129   -0.000003021   -0.000002101
     13        8           0.000020971    0.000019641   -0.000032943
     14        1           0.000001417   -0.000002871   -0.000010333
     15        6           0.000020994   -0.000021186    0.000007527
     16        8           0.000020489   -0.000025141    0.000010604
     17        1          -0.000000504    0.000001837   -0.000007432
     18        1           0.000006836   -0.000006893   -0.000006764
     19        1           0.000006273   -0.000005115   -0.000009580
     20        1           0.000003603   -0.000017702   -0.000001027
     21        6          -0.000012154    0.000008507    0.000004088
     22        1          -0.000004564    0.000000608    0.000004243
     23        6          -0.000020048    0.000001716   -0.000007053
     24        1          -0.000006222    0.000008278   -0.000006035
     25        8          -0.000019686    0.000001560   -0.000010136
     26        1           0.000000068    0.000004252   -0.000002602
     27        8           0.000100018    0.000003221   -0.000088676
     28        1          -0.000143071   -0.000016685    0.000121638
     29        8          -0.000012095   -0.000029160    0.000029259
     30        1           0.000001519   -0.000006738   -0.000001915
 -------------------------------------------------------------------
 Cartesian Forces:  Max     0.000833317 RMS     0.000135325
 IRC-IRC-IRC-IRC-IRC-IRC-IRC-IRC-IRC-IRC-IRC-IRC-IRC-IRC-IRC-IRC-IRC-IRC
 Pt  1 Step number   1 out of a maximum of  20
 Modified Bulirsch-Stoer Extrapolation Cycles:
    EPS =    0.000010000000000
 Maximum DWI energy   std dev =  0.000000437 at pt    48
 Maximum DWI gradient std dev =  1.901189094 at pt   147
 WARNING: Bulirsch-Stoer Method is not Converging
 CORRECTOR INTEGRATION CONVERGENCE:
   Recorrection delta-x convergence threshold:    0.010000
   Delta-x Convergence NOT Met
 IRC-IRC-IRC-IRC-IRC-IRC-IRC-IRC-IRC-IRC-IRC-IRC-IRC-IRC-IRC-IRC-IRC-IRC
                          Input orientation:                          
 ---------------------------------------------------------------------
 Center     Atomic      Atomic             Coordinates (Angstroms)
 Number     Number       Type             X           Y           Z
 ---------------------------------------------------------------------
      1          6           0       -0.253538   -0.930906   -1.046728
      2          8           0        0.503503    0.199053   -0.570930
      3          1           0        2.972258    0.665964   -0.191933
      4          1           0        1.712687   -2.022753    1.951460
      5          8           0        2.030949   -2.198844    1.054023
      6          1           0        2.642122   -1.458395    0.805657
      7          8           0        3.340105   -0.234544   -0.308633
      8          1           0        2.783996   -0.584324   -1.025908
      9          6           0       -1.508277    1.199505    0.484784
     10          6           0       -0.232235    1.413518   -0.387766
     11          1           0       -1.513254    1.929226    1.302514
     12          1           0       -0.552115    1.795535   -1.370924
     13          8           0       -2.710909    1.413092   -0.234733
     14          1           0       -2.895400    0.594750   -0.734938
     15          6           0        0.737171    2.390955    0.282817
     16          8           0        2.033773    2.423503   -0.309012
     17          1           0        0.901513    2.082672    1.319384
     18          1           0        0.281125    3.391481    0.297980
     19          1           0        1.940161    2.659802   -1.245934
     20          1           0        1.041581   -2.215467   -0.415200
     21          6           0       -1.369959   -1.276180   -0.018663
     22          1           0       -1.151844   -2.254011    0.427831
     23          6           0       -1.441407   -0.215155    1.100764
     24          1           0       -2.341877   -0.377778    1.703816
     25          8           0       -2.594394   -1.331140   -0.770785
     26          1           0       -3.281908   -1.717730   -0.204692
     27          8           0       -0.332032   -0.348308    1.984072
     28          1           0        0.454058   -0.326378    1.408252
     29          8           0        0.638768   -1.953993   -1.282774
     30          1           0       -0.726528   -0.671794   -2.003742
 ---------------------------------------------------------------------
                    Distance matrix (angstroms):
                    1          2          3          4          5
     1  C    0.000000
     2  O    1.440938   0.000000
     3  H    3.699517   2.540944   0.000000
     4  H    3.747973   3.572254   3.661946   0.000000
     5  O    3.352567   3.274672   3.262758   0.968344   0.000000
     6  H    3.477703   3.035757   2.370037   1.579624   0.991706
     7  O    3.734164   2.881514   0.979717   3.309713   2.725655
     8  H    3.057314   2.453841   1.514653   3.475846   2.738589
     9  C    2.908358   2.482477   4.562653   4.786303   4.939528
    10  C    2.435366   1.431707   3.296356   4.589407   4.499991
    11  H    3.909753   3.251245   4.893773   5.142564   5.446475
    12  H    2.761834   2.074385   3.884219   5.544987   5.339256
    13  O    3.491751   3.452442   5.732226   6.012709   6.098540
    14  H    3.066638   3.425786   5.893160   5.941592   5.939147
    15  C    3.712675   2.363878   2.862970   4.818384   4.830619
    16  O    4.126509   2.712656   1.995847   4.998201   4.819124
    17  H    4.001784   2.698095   2.929014   4.232261   4.435924
    18  H    4.558194   3.316029   3.861432   5.839289   5.906371
    19  H    4.212503   2.928293   2.480228   5.674627   5.376289
    20  H    1.930352   2.478647   3.475630   2.467509   1.771368
    21  C    1.556447   2.447687   4.759915   3.733827   3.683496
    22  H    2.175289   3.123335   5.091028   3.252762   3.244277
    23  C    2.556374   2.597845   4.682720   3.733551   3.999308
    24  H    3.497512   3.688277   5.737881   4.382551   4.781225
    25  O    2.390803   3.460982   5.942315   5.141974   5.047439
    26  H    3.240238   4.258817   6.693037   5.448670   5.481085
    27  O    3.087284   2.743311   4.084369   2.643049   3.142158
    28  H    2.625466   2.048337   3.144306   2.181034   2.473498
    29  O    1.377911   2.271702   3.674137   3.408562   2.731069
    30  H    1.098515   2.079495   4.330503   4.839264   4.391524
                    6          7          8          9         10
     6  H    0.000000
     7  O    1.796284   0.000000
     8  H    2.034395   0.972670   0.000000
     9  C    4.938948   5.117892   4.887520   0.000000
    10  C    4.234864   3.934970   3.673725   1.560585   0.000000
    11  H    5.384236   5.552729   5.495984   1.095993   2.182661
    12  H    5.052595   4.516532   4.112469   2.170978   1.102207
    13  O    6.163018   6.271757   5.899967   1.417620   2.483393
    14  H    6.103522   6.304839   5.807790   1.943595   2.807731
    15  C    4.326627   3.744106   3.841164   2.549976   1.531278
    16  O    4.084324   2.961708   3.181791   3.830718   2.482150
    17  H    3.979044   3.737200   4.019578   2.698820   2.155809
    18  H    5.417873   4.782615   4.880991   2.835774   2.155487
    19  H    4.654173   3.348972   3.359288   4.125479   2.647449
    20  H    2.150670   3.036219   2.463657   4.355891   3.846153
    21  C    4.099939   4.832577   4.329960   2.530140   2.943659
    22  H    3.894860   4.979782   4.515756   3.472328   3.868028
    23  C    4.278778   4.984941   4.744792   1.544399   2.516027
    24  H    5.178287   6.029543   5.811078   2.160729   3.469011
    25  O    5.470143   6.052635   5.435983   3.026593   3.641379
    26  H    6.015163   6.786877   6.225288   3.483017   4.374784
    27  O    3.386229   4.330593   4.338815   2.455024   2.956282
    28  H    2.536179   3.359374   3.379391   2.651768   2.593052
    29  O    2.936084   3.347040   2.558120   4.204595   3.591632
    30  H    4.456373   4.427424   3.645215   3.210242   2.684070
                   11         12         13         14         15
    11  H    0.000000
    12  H    2.844104   0.000000
    13  O    2.015911   2.469328   0.000000
    14  H    2.800422   2.708753   0.976692   0.000000
    15  C    2.513441   2.179826   3.621233   4.178247   0.000000
    16  O    3.927178   2.865104   4.851645   5.274704   1.425657
    17  H    2.419696   3.071358   3.989137   4.566257   1.093855
    18  H    2.523306   2.454908   3.626303   4.356482   1.099664
    19  H    4.353666   2.640838   4.920291   5.282822   1.963809
    20  H    5.162965   4.420567   5.223044   4.847615   4.668942
    21  C    3.469967   3.454405   3.012809   2.518015   4.240138
    22  H    4.288958   4.471467   4.039470   3.536588   5.016484
    23  C    2.155049   3.308013   2.458938   2.477871   3.493859
    24  H    2.483934   4.168999   2.664840   2.683229   4.377860
    25  O    4.012159   3.782481   2.798524   1.949600   5.105232
    26  H    4.324361   4.599445   3.182607   2.403770   5.768185
    27  O    2.654612   3.987542   3.699280   3.853988   3.397208
    28  H    2.994871   3.638505   3.967641   4.081741   2.954769
    29  O    5.137539   3.935091   4.863743   4.391647   4.619452
    30  H    4.279670   2.553153   3.378448   2.813894   4.092823
                   16         17         18         19         20
    16  O    0.000000
    17  H    2.012424   0.000000
    18  H    2.092176   1.772324   0.000000
    19  H    0.970785   2.827141   2.381476   0.000000
    20  H    4.745078   4.637068   5.703051   5.026511   0.000000
    21  C    5.035608   4.269877   4.961190   5.287254   2.618211
    22  H    5.707033   4.880365   5.825963   6.042147   2.350170
    23  C    4.585505   3.288933   4.076690   5.020694   3.530527
    24  H    5.571801   4.089154   4.802482   6.021940   4.394896
    25  O    5.977500   5.314535   5.631520   6.059338   3.758828
    26  H    6.739226   5.853792   6.249154   6.893256   4.357133
    27  O    4.305601   2.805905   4.147878   4.964325   3.336106
    28  H    3.606430   2.451864   3.883953   4.262684   2.690505
    29  O    4.696459   4.809878   5.585767   4.793964   0.991620
    30  H    4.480205   4.613108   4.777394   4.334171   2.834184
                   21         22         23         24         25
    21  C    0.000000
    22  H    1.096852   0.000000
    23  C    1.544020   2.166476   0.000000
    24  H    2.172253   2.562140   1.095885   0.000000
    25  O    1.438036   2.090292   2.465258   2.663890   0.000000
    26  H    1.971071   2.285794   2.710976   2.514266   0.970870
    27  O    2.439096   2.593392   1.424315   2.029504   3.697766
    28  H    2.503049   2.693680   1.923462   2.811984   3.879537
    29  O    2.468278   2.494489   3.609978   4.504267   3.332180
    30  H    2.172516   2.932039   3.218311   4.054846   2.333205
                   26         27         28         29         30
    26  H    0.000000
    27  O    3.920175   0.000000
    28  H    4.300569   0.974673   0.000000
    29  O    4.073056   3.767355   3.150376   0.000000
    30  H    3.295532   4.020314   3.626954   2.006954   0.000000
 Symmetry turned off by external request.
 Stoichiometry    C6H16O8
 Framework group  C1[X(C6H16O8)]
 Deg. of freedom    84
 Full point group                 C1      NOp   1
 Rotational constants (GHZ):      0.7552502      0.5780370      0.4280810
 Standard basis: 6-31G(d) (6D, 7F)
   242 basis functions,   456 primitive gaussians,   242 cartesian basis functions
    58 alpha electrons       58 beta electrons
       nuclear repulsion energy      1136.0486404186 Hartrees.
 NAtoms=   30 NActive=   30 NUniq=   30 SFac= 1.00D+00 NAtFMM=   60 NAOKFM=F Big=F
 Integral buffers will be    131072 words long.
 Raffenetti 2 integral format.
 Two-electron integral symmetry is turned off.
 One-electron integrals computed using PRISM.
 NBasis=   242 RedAO= T EigKep=  1.68D-03  NBF=   242
 NBsUse=   242 1.00D-06 EigRej= -1.00D+00 NBFU=   242
 Initial guess from the checkpoint file:  "/scratch/10502201.yak.local/Gau-15998.chk"
 B after Tr=     0.000038   -0.000038    0.000020
         Rot=    1.000000    0.000216    0.000140    0.000071 Ang=   0.03 deg.
 ExpMin= 1.61D-01 ExpMax= 5.48D+03 ExpMxC= 8.25D+02 IAcc=1 IRadAn=         1 AccDes= 0.00D+00
 Harris functional with IExCor=  402 and IRadAn=       1 diagonalized for initial guess.
 HarFok:  IExCor=  402 AccDes= 0.00D+00 IRadAn=         1 IDoV= 1 UseB2=F ITyADJ=14
 ICtDFT=  3500011 ScaDFX=  1.000000  1.000000  1.000000  1.000000
 FoFCou: FMM=F IPFlag=           0 FMFlag=      100000 FMFlg1=           0
         NFxFlg=           0 DoJE=T BraDBF=F KetDBF=T FulRan=T
         wScrn=  0.000000 ICntrl=     500 IOpCl=  0 I1Cent=   200000004 NGrid=           0
         NMat0=    1 NMatS0=      1 NMatT0=    0 NMatD0=    1 NMtDS0=    0 NMtDT0=    0
 Symmetry not used in FoFCou.
 Requested convergence on RMS density matrix=1.00D-08 within 128 cycles.
 Requested convergence on MAX density matrix=1.00D-06.
 Requested convergence on             energy=1.00D-06.
 No special actions if energy rises.
 Integral accuracy reduced to 1.0D-05 until final iterations.
 Initial convergence to 1.0D-05 achieved.  Increase integral accuracy.
 SCF Done:  E(RB3LYP) =  -840.000022169     A.U. after    9 cycles
            NFock=  9  Conv=0.26D-08     -V/T= 2.0086
 DoSCS=F DFT=T ScalE2(SS,OS)=  1.000000  1.000000
 Range of M.O.s used for correlation:     1   242
 NBasis=   242 NAE=    58 NBE=    58 NFC=     0 NFV=     0
 NROrb=    242 NOA=    58 NOB=    58 NVA=   184 NVB=   184
 Symmetrizing basis deriv contribution to polar:
 IMax=3 JMax=2 DiffMx= 0.00D+00
 Calling FoFJK, ICntrl=      2147 FMM=F ISym2X=0 I1Cent= 0 IOpClX= 0 NMat=1 NMatS=1 NMatT=0.
 -------------------------------------------------------------------
 Center     Atomic                   Forces (Hartrees/Bohr)
 Number     Number              X              Y              Z
 -------------------------------------------------------------------
      1        6          -0.000004465   -0.000013580    0.000004570
      2        8           0.000003573   -0.000026030   -0.000005908
      3        1          -0.000000530   -0.000002097    0.000000639
      4        1           0.000016326   -0.000009268    0.000051777
      5        8          -0.000008574    0.000097729   -0.000000034
      6        1          -0.000001227   -0.000000573    0.000002904
      7        8           0.000016906    0.000004581   -0.000007169
      8        1           0.000001429   -0.000000694    0.000005887
      9        6           0.000007027    0.000007104   -0.000020111
     10        6           0.000014834   -0.000011474   -0.000010789
     11        1           0.000000186    0.000001713   -0.000002966
     12        1           0.000001746   -0.000001187   -0.000002141
     13        8           0.000019058    0.000017600   -0.000042494
     14        1           0.000000983    0.000000095   -0.000003053
     15        6           0.000018274   -0.000021774   -0.000003247
     16        8           0.000026589   -0.000028651   -0.000000821
     17        1           0.000000055   -0.000000190    0.000000120
     18        1           0.000000773    0.000000805   -0.000002875
     19        1           0.000002053   -0.000002020   -0.000003968
     20        1          -0.000001703   -0.000000722    0.000002304
     21        6          -0.000013432    0.000003355    0.000000525
     22        1          -0.000001366    0.000000968    0.000001277
     23        6          -0.000015988    0.000011476   -0.000007632
     24        1          -0.000000739    0.000002681   -0.000001955
     25        8          -0.000012601    0.000005277   -0.000011294
     26        1           0.000000516    0.000002399   -0.000001471
     27        8          -0.000050939    0.000005156    0.000018690
     28        1          -0.000007460   -0.000005666    0.000006347
     29        8          -0.000012401   -0.000034611    0.000032686
     30        1           0.000001098   -0.000002401    0.000000205
 -------------------------------------------------------------------
 Cartesian Forces:  Max     0.000097729 RMS     0.000017124
 IRC-IRC-IRC-IRC-IRC-IRC-IRC-IRC-IRC-IRC-IRC-IRC-IRC-IRC-IRC-IRC-IRC-IRC
 Error in corrector energy =          -0.0000000001
 Magnitude of corrector gradient =     0.0001551836
 Magnitude of analytic gradient =      0.0001624570
 Magnitude of difference =             0.0000641950
 Angle between gradients (degrees)=   23.1734
 Pt  1 Step number   2 out of a maximum of  20
 Modified Bulirsch-Stoer Extrapolation Cycles:
    EPS =    0.000010000000000
 Maximum DWI energy   std dev =  0.000000286 at pt    48
 Maximum DWI gradient std dev =  1.835232898 at pt     4
 WARNING: Bulirsch-Stoer Method is not Converging
 CORRECTOR INTEGRATION CONVERGENCE:
   Recorrection delta-x convergence threshold:    0.010000
   Delta-x Convergence NOT Met
 IRC-IRC-IRC-IRC-IRC-IRC-IRC-IRC-IRC-IRC-IRC-IRC-IRC-IRC-IRC-IRC-IRC-IRC
                          Input orientation:                          
 ---------------------------------------------------------------------
 Center     Atomic      Atomic             Coordinates (Angstroms)
 Number     Number       Type             X           Y           Z
 ---------------------------------------------------------------------
      1          6           0       -0.253488   -0.930829   -1.046732
      2          8           0        0.503536    0.199153   -0.571024
      3          1           0        2.972045    0.665661   -0.191472
      4          1           0        1.713944   -2.024381    1.952595
      5          8           0        2.030303   -2.198965    1.054061
      6          1           0        2.641782   -1.458684    0.805985
      7          8           0        3.339949   -0.234824   -0.308164
      8          1           0        2.783842   -0.584627   -1.025429
      9          6           0       -1.508274    1.199607    0.484619
     10          6           0       -0.232281    1.413588   -0.388002
     11          1           0       -1.513259    1.929426    1.302260
     12          1           0       -0.552221    1.795417   -1.371217
     13          8           0       -2.710962    1.413036   -0.234858
     14          1           0       -2.895412    0.594632   -0.734977
     15          6           0        0.737041    2.391232    0.282409
     16          8           0        2.033774    2.423490   -0.309160
     17          1           0        0.901150    2.083353    1.319129
     18          1           0        0.281029    3.391786    0.297053
     19          1           0        1.940350    2.659237   -1.246243
     20          1           0        1.041231   -2.215671   -0.415160
     21          6           0       -1.369822   -1.276103   -0.018589
     22          1           0       -1.151617   -2.253870    0.428000
     23          6           0       -1.441284   -0.214978    1.100752
     24          1           0       -2.341763   -0.377583    1.703798
     25          8           0       -2.594280   -1.331232   -0.770666
     26          1           0       -3.281742   -1.717805   -0.204503
     27          8           0       -0.331958   -0.347988    1.984096
     28          1           0        0.454217   -0.326808    1.408361
     29          8           0        0.638819   -1.953930   -1.282798
     30          1           0       -0.726529   -0.671767   -2.003734
 ---------------------------------------------------------------------
                    Distance matrix (angstroms):
                    1          2          3          4          5
     1  C    0.000000
     2  O    1.440918   0.000000
     3  H    3.699231   2.540713   0.000000
     4  H    3.750014   3.574611   3.662808   0.000000
     5  O    3.352194   3.274582   3.262562   0.968466   0.000000
     6  H    3.477611   3.035897   2.369986   1.579750   0.991698
     7  O    3.733991   2.881435   0.979717   3.310202   2.725560
     8  H    3.057071   2.453689   1.514637   3.476522   2.738282
     9  C    2.908313   2.482473   4.562395   4.788709   4.939239
    10  C    2.435296   1.431704   3.296319   4.591929   4.499930
    11  H    3.909712   3.251231   4.893495   5.144936   5.446288
    12  H    2.761693   2.074366   3.884405   5.547440   5.339148
    13  O    3.491708   3.452465   5.732104   6.015029   6.098152
    14  H    3.066592   3.425804   5.893003   5.943772   5.938645
    15  C    3.712661   2.363912   2.863110   4.820944   4.830930
    16  O    4.126383   2.712540   1.996038   5.000138   4.819282
    17  H    4.001972   2.698330   2.929227   4.235019   4.436609
    18  H    4.558121   3.316017   3.861603   5.841997   5.906735
    19  H    4.212043   2.927861   2.480178   5.676275   5.376023
    20  H    1.930285   2.478868   3.475651   2.468886   1.771201
    21  C    1.556437   2.447660   4.759427   3.735653   3.682812
    22  H    2.175295   3.123284   5.090382   3.253996   3.243390
    23  C    2.556362   2.597819   4.682182   3.735644   3.998787
    24  H    3.497484   3.688247   5.737330   4.384358   4.780643
    25  O    2.390783   3.460983   5.941971   5.143676   5.046718
    26  H    3.240217   4.258803   6.692603   5.450132   5.480267
    27  O    3.087358   2.743365   4.083750   2.645184   3.141872
    28  H    2.625485   2.048666   3.143870   2.182856   2.472762
    29  O    1.377924   2.271715   3.673852   3.410077   2.730784
    30  H    1.098514   2.079476   4.330410   4.841282   4.391192
                    6          7          8          9         10
     6  H    0.000000
     7  O    1.796273   0.000000
     8  H    2.034265   0.972669   0.000000
     9  C    4.938902   5.117750   4.887330   0.000000
    10  C    4.235066   3.935030   3.673714   1.560581   0.000000
    11  H    5.384232   5.552574   5.495788   1.095991   2.182655
    12  H    5.052825   4.516741   4.112603   2.170980   1.102210
    13  O    6.162954   6.271709   5.899876   1.417624   2.483408
    14  H    6.103375   6.304751   5.807662   1.943595   2.807730
    15  C    4.327127   3.744339   3.841298   2.549960   1.531282
    16  O    4.084666   2.961879   3.181888   3.830675   2.482161
    17  H    3.979842   3.737615   4.019901   2.698654   2.155817
    18  H    5.418415   4.782842   4.881075   2.835918   2.155471
    19  H    4.654129   3.348800   3.359002   4.125459   2.647365
    20  H    2.150811   3.036330   2.463620   4.355882   3.846308
    21  C    4.099540   4.832190   4.329526   2.530125   2.943621
    22  H    3.894235   4.979221   4.515160   3.472307   3.867982
    23  C    4.278448   4.984538   4.744362   1.544396   2.516009
    24  H    5.177892   6.029114   5.810626   2.160702   3.468982
    25  O    5.469774   6.052362   5.435672   3.026598   3.641361
    26  H    6.014680   6.786514   6.224896   3.483012   4.374758
    27  O    3.385960   4.330146   4.338370   2.455036   2.956338
    28  H    2.535635   3.358924   3.378899   2.652284   2.593680
    29  O    2.936008   3.346840   2.557803   4.204589   3.591608
    30  H    4.456375   4.427427   3.645186   3.210151   2.683948
                   11         12         13         14         15
    11  H    0.000000
    12  H    2.844123   0.000000
    13  O    2.015907   2.469350   0.000000
    14  H    2.800421   2.708732   0.976692   0.000000
    15  C    2.513407   2.179833   3.621209   4.178224   0.000000
    16  O    3.927113   2.865277   4.851706   5.274743   1.425661
    17  H    2.419370   3.071344   3.988928   4.566128   1.093851
    18  H    2.523570   2.454755   3.626346   4.356481   1.099668
    19  H    4.353724   2.640968   4.920428   5.282857   1.963812
    20  H    5.163021   4.420629   5.222928   4.847395   4.669335
[...]
 ICtDFT=  3500011 ScaDFX=  1.000000  1.000000  1.000000  1.000000
 FoFCou: FMM=F IPFlag=           0 FMFlag=      100000 FMFlg1=           0
         NFxFlg=           0 DoJE=T BraDBF=F KetDBF=T FulRan=T
         wScrn=  0.000000 ICntrl=     500 IOpCl=  0 I1Cent=   200000004 NGrid=           0
         NMat0=    1 NMatS0=      1 NMatT0=    0 NMatD0=    1 NMtDS0=    0 NMtDT0=    0
 Symmetry not used in FoFCou.
 Requested convergence on RMS density matrix=1.00D-08 within 128 cycles.
 Requested convergence on MAX density matrix=1.00D-06.
 Requested convergence on             energy=1.00D-06.
 No special actions if energy rises.
 Integral accuracy reduced to 1.0D-05 until final iterations.
 Initial convergence to 1.0D-05 achieved.  Increase integral accuracy.
 SCF Done:  E(RB3LYP) =  -840.000022279     A.U. after    8 cycles
            NFock=  8  Conv=0.34D-08     -V/T= 2.0086
 DoSCS=F DFT=T ScalE2(SS,OS)=  1.000000  1.000000
 Range of M.O.s used for correlation:     1   242
 NBasis=   242 NAE=    58 NBE=    58 NFC=     0 NFV=     0
 NROrb=    242 NOA=    58 NOB=    58 NVA=   184 NVB=   184
 Symmetrizing basis deriv contribution to polar:
 IMax=3 JMax=2 DiffMx= 0.00D+00
 Calling FoFJK, ICntrl=      2147 FMM=F ISym2X=0 I1Cent= 0 IOpClX= 0 NMat=1 NMatS=1 NMatT=0.
 -------------------------------------------------------------------
 Center     Atomic                   Forces (Hartrees/Bohr)
 Number     Number              X              Y              Z
 -------------------------------------------------------------------
      1        6          -0.000006340   -0.000011721    0.000002898
      2        8           0.000002792   -0.000025954   -0.000010165
      3        1           0.000000470    0.000000016   -0.000000028
      4        1           0.000021435   -0.000006305    0.000013396
      5        8          -0.000004377    0.000101952    0.000044137
      6        1           0.000001361    0.000004642    0.000001074
      7        8           0.000017434    0.000003410   -0.000002610
      8        1           0.000000304   -0.000000460    0.000000760
      9        6           0.000008117    0.000007913   -0.000021747
     10        6           0.000015739   -0.000011793   -0.000012036
     11        1           0.000000664    0.000001332   -0.000002444
     12        1           0.000002358   -0.000000587   -0.000001247
     13        8           0.000019431    0.000017727   -0.000044662
     14        1           0.000001158    0.000001039   -0.000002642
     15        6           0.000019268   -0.000022752   -0.000003989
     16        8           0.000027577   -0.000029902   -0.000004248
     17        1           0.000001308   -0.000002962   -0.000000639
     18        1           0.000002118   -0.000001695    0.000000132
     19        1           0.000001744   -0.000002370   -0.000000393
     20        1          -0.000003066   -0.000001524    0.000002289
     21        6          -0.000013513    0.000004441    0.000000507
     22        1          -0.000001799    0.000000641    0.000001004
     23        6          -0.000016256    0.000013479   -0.000008335
     24        1          -0.000003076    0.000002780   -0.000002684
     25        8          -0.000011429    0.000003932   -0.000009516
     26        1          -0.000001550    0.000002555   -0.000000019
     27        8          -0.000063188    0.000002149    0.000030300
     28        1          -0.000001740   -0.000013493    0.000004301
     29        8          -0.000017056   -0.000034425    0.000026984
     30        1           0.000000111   -0.000002065   -0.000000375
 -------------------------------------------------------------------
 Cartesian Forces:  Max     0.000101952 RMS     0.000017995
 IRC-IRC-IRC-IRC-IRC-IRC-IRC-IRC-IRC-IRC-IRC-IRC-IRC-IRC-IRC-IRC-IRC-IRC
 Error in corrector energy =           0.0000000000
 Magnitude of corrector gradient =     0.0001707194
 Magnitude of analytic gradient =      0.0001707194
 Magnitude of difference =             0.0000000001
 Angle between gradients (degrees)=    0.0000
 Pt  1 Step number  19 out of a maximum of  20
 Modified Bulirsch-Stoer Extrapolation Cycles:
    EPS =    0.000010000000000
 Maximum DWI energy   std dev =  0.000000329 at pt    48
 Maximum DWI gradient std dev =  1.892075400 at pt   143
 WARNING: Bulirsch-Stoer Method is not Converging
 CORRECTOR INTEGRATION CONVERGENCE:
   Recorrection delta-x convergence threshold:    0.010000
   Delta-x Convergence NOT Met
 IRC-IRC-IRC-IRC-IRC-IRC-IRC-IRC-IRC-IRC-IRC-IRC-IRC-IRC-IRC-IRC-IRC-IRC
                          Input orientation:                          
 ---------------------------------------------------------------------
 Center     Atomic      Atomic             Coordinates (Angstroms)
 Number     Number       Type             X           Y           Z
 ---------------------------------------------------------------------
      1          6           0       -0.253489   -0.930812   -1.046745
      2          8           0        0.503539    0.199168   -0.571044
      3          1           0        2.972027    0.665640   -0.191432
      4          1           0        1.713876   -2.024475    1.952548
      5          8           0        2.030175   -2.198938    1.054072
      6          1           0        2.641700   -1.458686    0.806023
      7          8           0        3.339929   -0.234848   -0.308109
      8          1           0        2.783845   -0.584645   -1.025394
      9          6           0       -1.508274    1.199618    0.484600
     10          6           0       -0.232285    1.413599   -0.388028
     11          1           0       -1.513263    1.929444    1.302235
     12          1           0       -0.552235    1.795420   -1.371243
     13          8           0       -2.710966    1.413027   -0.234878
     14          1           0       -2.895425    0.594605   -0.734964
     15          6           0        0.737032    2.391256    0.282373
     16          8           0        2.033773    2.423491   -0.309179
     17          1           0        0.901126    2.083402    1.319105
     18          1           0        0.281023    3.391813    0.296987
     19          1           0        1.940362    2.659215   -1.246271
     20          1           0        1.041207   -2.215696   -0.415214
     21          6           0       -1.369800   -1.276097   -0.018581
     22          1           0       -1.151569   -2.253855    0.428016
     23          6           0       -1.441269   -0.214960    1.100749
     24          1           0       -2.341748   -0.377570    1.703795
     25          8           0       -2.594268   -1.331255   -0.770638
     26          1           0       -3.281711   -1.717848   -0.204466
     27          8           0       -0.331949   -0.347940    1.984103
     28          1           0        0.454230   -0.326804    1.408390
     29          8           0        0.638811   -1.953914   -1.282843
     30          1           0       -0.726552   -0.671741   -2.003733
 ---------------------------------------------------------------------
                    Distance matrix (angstroms):
                    1          2          3          4          5
     1  C    0.000000
     2  O    1.440915   0.000000
     3  H    3.699213   2.540696   0.000000
     4  H    3.749984   3.574635   3.662828   0.000000
     5  O    3.352118   3.274527   3.262541   0.968370   0.000000
     6  H    3.477574   3.035873   2.369977   1.579713   0.991698
     7  O    3.733980   2.881426   0.979717   3.310194   2.725554
     8  H    3.057072   2.453690   1.514635   3.476504   2.738273
     9  C    2.908304   2.482474   4.562373   4.788725   4.939139
    10  C    2.435287   1.431704   3.296318   4.591970   4.499866
    11  H    3.909706   3.251233   4.893472   5.144979   5.446198
    12  H    2.761682   2.074367   3.884428   5.547471   5.339090
    13  O    3.491690   3.452463   5.732093   6.015020   6.098040
    14  H    3.066582   3.425813   5.893002   5.943732   5.938524
    15  C    3.712657   2.363915   2.863118   4.821036   4.830902
    16  O    4.126369   2.712527   1.996052   5.000214   4.819265
    17  H    4.001983   2.698348   2.929232   4.235146   4.436601
    18  H    4.558115   3.316018   3.861616   5.842099   5.906708
    19  H    4.212017   2.927836   2.480193   5.676326   5.375992
    20  H    1.930284   2.478898   3.475664   2.468875   1.771198
    21  C    1.556436   2.447655   4.759378   3.735568   3.682668
    22  H    2.175295   3.123271   5.090306   3.253857   3.243217
    23  C    2.556364   2.597820   4.682133   3.735618   3.998658
    24  H    3.497480   3.688248   5.737280   4.384320   4.780505
    25  O    2.390781   3.460988   5.941945   5.143578   5.046574
    26  H    3.240214   4.258808   6.692565   5.450010   5.480100
    27  O    3.087383   2.743382   4.083694   2.645215   3.141779
    28  H    2.625525   2.048716   3.143832   2.182866   2.472657
    29  O    1.377926   2.271721   3.673845   3.410058   2.730770
    30  H    1.098514   2.079472   4.330418   4.841253   4.391133
                    6          7          8          9         10
     6  H    0.000000
     7  O    1.796272   0.000000
     8  H    2.034267   0.972669   0.000000
     9  C    4.938843   5.117730   4.887327   0.000000
    10  C    4.235040   3.935033   3.673725   1.560582   0.000000
    11  H    5.384177   5.552553   5.495784   1.095992   2.182656
    12  H    5.052812   4.516767   4.112633   2.170978   1.102210
    13  O    6.162892   6.271698   5.899878   1.417625   2.483408
    14  H    6.103310   6.304748   5.807675   1.943596   2.807745
    15  C    4.327126   3.744351   3.841313   2.549960   1.531283
    16  O    4.084672   2.961893   3.181894   3.830672   2.482160
    17  H    3.979854   3.737629   4.019923   2.698645   2.155820
    18  H    5.418418   4.782857   4.881089   2.835931   2.155472
    19  H    4.654126   3.348811   3.358999   4.125460   2.647363
    20  H    2.150828   3.036339   2.463623   4.355902   3.846336
    21  C    4.099443   4.832140   4.329497   2.530124   2.943619
    22  H    3.894107   4.979139   4.515102   3.472307   3.867975
    23  C    4.278358   4.984490   4.744338   1.544396   2.516009
    24  H    5.177795   6.029062   5.810599   2.160703   3.468983
    25  O    5.469685   6.052334   5.435663   3.026603   3.641371
    26  H    6.014569   6.786468   6.224873   3.483030   4.374775
    27  O    3.385885   4.330095   4.338350   2.455033   2.956343
    28  H    2.535553   3.358883   3.378890   2.652314   2.593727
    29  O    2.936013   3.346839   2.557802   4.204591   3.591608
    30  H    4.456359   4.427447   3.645219   3.210121   2.683925
                   11         12         13         14         15
    11  H    0.000000
    12  H    2.844120   0.000000
    13  O    2.015910   2.469346   0.000000
    14  H    2.800419   2.708754   0.976691   0.000000
    15  C    2.513407   2.179834   3.621212   4.178239   0.000000
    16  O    3.927112   2.865291   4.851712   5.274762   1.425662
    17  H    2.419352   3.071346   3.988919   4.566128   1.093853
    18  H    2.523591   2.454747   3.626359   4.356503   1.099669
    19  H    4.353730   2.640984   4.920442   5.282885   1.963812
    20  H    5.163054   4.420644   5.222925   4.847381   4.669385
    21  C    3.469960   3.454319   3.012789   2.517988   4.240140
    22  H    4.288947   4.471371   4.039452   3.536564   5.016481
    23  C    2.155052   3.307983   2.458937   2.477864   3.493865
    24  H    2.483939   4.168945   2.664772   2.683138   4.377868
    25  O    4.012173   3.782423   2.798525   1.949591   5.105241
    26  H    4.324384   4.599398   3.182617   2.403765   5.768193
    27  O    2.654605   3.987590   3.699271   3.853976   3.397323
    28  H    2.995488   3.639116   3.968098   4.082052   2.955629
    29  O    5.137559   3.934959   4.863694   4.391576   4.619529
    30  H    4.279545   2.552903   3.378314   2.813790   4.092715
                   16         17         18         19         20
    16  O    0.000000
    17  H    2.012426   0.000000
    18  H    2.092180   1.772341   0.000000
    19  H    0.970789   2.827140   2.381543   0.000000
    20  H    4.745364   4.637858   5.703443   5.026319   0.000000
    21  C    5.035445   4.269981   4.961268   5.286877   2.617846
    22  H    5.706788   4.880512   5.826067   6.041649   2.349630
    23  C    4.585329   3.288915   4.076903   5.020439   3.530407
    24  H    5.571642   4.089084   4.802738   6.021745   4.394688
    25  O    5.977443   5.314574   5.631563   6.059120   3.758356
    26  H    6.739141   5.853794   6.249254   6.893046   4.356591
    27  O    4.305417   2.806087   4.148235   4.964040   3.336284
    28  H    3.606816   2.452913   3.885013   4.262877   2.690351
    29  O    4.696340   4.810287   5.585756   4.793363   0.991581
    30  H    4.480109   4.613178   4.777133   4.333757   2.834107
                   21         22         23         24         25
    21  C    0.000000
    22  H    1.096852   0.000000
    23  C    1.544027   2.166469   0.000000
    24  H    2.172236   2.562144   1.095887   0.000000
    25  O    1.438039   2.090297   2.465282   2.663850   0.000000
    26  H    1.971066   2.285791   2.710994   2.514226   0.970867
    27  O    2.439129   2.593394   1.424286   2.029469   3.697783
    28  H    2.502895   2.693186   1.923556   2.811998   3.879488
    29  O    2.468261   2.494487   3.610014   4.504286   3.332095
    30  H    2.172520   2.932086   3.218273   4.054770   2.333204
                   26         27         28         29         30
    26  H    0.000000
    27  O    3.920150   0.000000
    28  H    4.300414   0.974663   0.000000
    29  O    4.072974   3.767554   3.150285   0.000000
    30  H    3.295533   4.020373   3.627095   2.006954   0.000000
 Symmetry turned off by external request.
 Stoichiometry    C6H16O8
 Framework group  C1[X(C6H16O8)]
 Deg. of freedom    84
 Full point group                 C1      NOp   1
 Rotational constants (GHZ):      0.7552124      0.5780933      0.4281029
 Standard basis: 6-31G(d) (6D, 7F)
   242 basis functions,   456 primitive gaussians,   242 cartesian basis functions
    58 alpha electrons       58 beta electrons
       nuclear repulsion energy      1136.0571471463 Hartrees.
 NAtoms=   30 NActive=   30 NUniq=   30 SFac= 1.00D+00 NAtFMM=   60 NAOKFM=F Big=F
 Integral buffers will be    131072 words long.
 Raffenetti 2 integral format.
 Two-electron integral symmetry is turned off.
 One-electron integrals computed using PRISM.
 NBasis=   242 RedAO= T EigKep=  1.68D-03  NBF=   242
 NBsUse=   242 1.00D-06 EigRej= -1.00D+00 NBFU=   242
 Initial guess from the checkpoint file:  "/scratch/10502201.yak.local/Gau-15998.chk"
 B after Tr=     0.000000   -0.000000    0.000000
         Rot=    1.000000   -0.000000   -0.000000   -0.000000 Ang=   0.00 deg.
 ExpMin= 1.61D-01 ExpMax= 5.48D+03 ExpMxC= 8.25D+02 IAcc=1 IRadAn=         1 AccDes= 0.00D+00
 Harris functional with IExCor=  402 and IRadAn=       1 diagonalized for initial guess.
 HarFok:  IExCor=  402 AccDes= 0.00D+00 IRadAn=         1 IDoV= 1 UseB2=F ITyADJ=14
 ICtDFT=  3500011 ScaDFX=  1.000000  1.000000  1.000000  1.000000
 FoFCou: FMM=F IPFlag=           0 FMFlag=      100000 FMFlg1=           0
         NFxFlg=           0 DoJE=T BraDBF=F KetDBF=T FulRan=T
         wScrn=  0.000000 ICntrl=     500 IOpCl=  0 I1Cent=   200000004 NGrid=           0
         NMat0=    1 NMatS0=      1 NMatT0=    0 NMatD0=    1 NMtDS0=    0 NMtDT0=    0
 Symmetry not used in FoFCou.
 Requested convergence on RMS density matrix=1.00D-08 within 128 cycles.
 Requested convergence on MAX density matrix=1.00D-06.
 Requested convergence on             energy=1.00D-06.
 No special actions if energy rises.
 Integral accuracy reduced to 1.0D-05 until final iterations.
 Initial convergence to 1.0D-05 achieved.  Increase integral accuracy.
 SCF Done:  E(RB3LYP) =  -840.000022279     A.U. after    8 cycles
            NFock=  8  Conv=0.34D-08     -V/T= 2.0086
 DoSCS=F DFT=T ScalE2(SS,OS)=  1.000000  1.000000
 Range of M.O.s used for correlation:     1   242
 NBasis=   242 NAE=    58 NBE=    58 NFC=     0 NFV=     0
 NROrb=    242 NOA=    58 NOB=    58 NVA=   184 NVB=   184
 Symmetrizing basis deriv contribution to polar:
 IMax=3 JMax=2 DiffMx= 0.00D+00
 Calling FoFJK, ICntrl=      2147 FMM=F ISym2X=0 I1Cent= 0 IOpClX= 0 NMat=1 NMatS=1 NMatT=0.
 -------------------------------------------------------------------
 Center     Atomic                   Forces (Hartrees/Bohr)
 Number     Number              X              Y              Z
 -------------------------------------------------------------------
      1        6          -0.000006340   -0.000011721    0.000002898
      2        8           0.000002792   -0.000025954   -0.000010165
      3        1           0.000000470    0.000000016   -0.000000028
      4        1           0.000021435   -0.000006305    0.000013396
      5        8          -0.000004377    0.000101952    0.000044137
      6        1           0.000001361    0.000004642    0.000001074
      7        8           0.000017434    0.000003410   -0.000002610
      8        1           0.000000304   -0.000000460    0.000000760
      9        6           0.000008117    0.000007913   -0.000021747
     10        6           0.000015739   -0.000011793   -0.000012036
     11        1           0.000000664    0.000001332   -0.000002444
     12        1           0.000002358   -0.000000587   -0.000001247
     13        8           0.000019431    0.000017727   -0.000044662
     14        1           0.000001158    0.000001039   -0.000002642
     15        6           0.000019268   -0.000022752   -0.000003989
     16        8           0.000027577   -0.000029902   -0.000004248
     17        1           0.000001308   -0.000002962   -0.000000639
     18        1           0.000002118   -0.000001695    0.000000132
     19        1           0.000001744   -0.000002370   -0.000000393
     20        1          -0.000003066   -0.000001524    0.000002289
     21        6          -0.000013513    0.000004441    0.000000507
     22        1          -0.000001799    0.000000641    0.000001004
     23        6          -0.000016256    0.000013479   -0.000008335
     24        1          -0.000003076    0.000002780   -0.000002684
     25        8          -0.000011429    0.000003932   -0.000009516
     26        1          -0.000001550    0.000002555   -0.000000019
     27        8          -0.000063188    0.000002149    0.000030300
     28        1          -0.000001740   -0.000013493    0.000004301
     29        8          -0.000017056   -0.000034425    0.000026984
     30        1           0.000000111   -0.000002065   -0.000000375
 -------------------------------------------------------------------
 Cartesian Forces:  Max     0.000101952 RMS     0.000017995
 IRC-IRC-IRC-IRC-IRC-IRC-IRC-IRC-IRC-IRC-IRC-IRC-IRC-IRC-IRC-IRC-IRC-IRC
 Error in corrector energy =           0.0000000000
 Magnitude of corrector gradient =     0.0001707194
 Magnitude of analytic gradient =      0.0001707194
 Magnitude of difference =             0.0000000001
 Angle between gradients (degrees)=    0.0000
 Pt  1 Step number  20 out of a maximum of  20
 Modified Bulirsch-Stoer Extrapolation Cycles:
    EPS =    0.000010000000000
 Maximum DWI energy   std dev =  0.000000329 at pt    48
 Maximum DWI gradient std dev =  1.892074537 at pt   143
 WARNING: Bulirsch-Stoer Method is not Converging
 CORRECTOR INTEGRATION CONVERGENCE:
   Recorrection delta-x convergence threshold:    0.010000
   Delta-x Convergence NOT Met
 Maximum number of corrector steps exceded.
 Error termination via Lnk1e in /global/software/gaussian/g09.e01/l123.exe at Tue Jan 31 16:35:25 2017.
 Job cpu time:       0 days  4 hours 59 minutes 46.7 seconds.
 File lengths (MBytes):  RWF=    220 Int=      0 D2E=      0 Chk=      8 Scr=      1
