 Entering Gaussian System, Link 0=g09
 Initial command:
 /global/software/gaussian/g09.e01/l1.exe "/scratch/10464858.yak.local/Gau-1474.inp" -scrdir="/scratch/10464858.yak.local/"
 Entering Link 1 = /global/software/gaussian/g09.e01/l1.exe PID=      1475.
  
 Copyright (c) 1988,1990,1992,1993,1995,1998,2003,2009,2015,
            Gaussian, Inc.  All Rights Reserved.
  
 This is part of the Gaussian(R) 09 program.  It is based on
 the Gaussian(R) 03 system (copyright 2003, Gaussian, Inc.),
 the Gaussian(R) 98 system (copyright 1998, Gaussian, Inc.),
 the Gaussian(R) 94 system (copyright 1995, Gaussian, Inc.),
 the Gaussian 92(TM) system (copyright 1992, Gaussian, Inc.),
 the Gaussian 90(TM) system (copyright 1990, Gaussian, Inc.),
 the Gaussian 88(TM) system (copyright 1988, Gaussian, Inc.),
 the Gaussian 86(TM) system (copyright 1986, Carnegie Mellon
 University), and the Gaussian 82(TM) system (copyright 1983,
 Carnegie Mellon University). Gaussian is a federally registered
 trademark of Gaussian, Inc.
  
 This software contains proprietary and confidential information,
 including trade secrets, belonging to Gaussian, Inc.
  
 This software is provided under written license and may be
 used, copied, transmitted, or stored only in accord with that
 written license.
  
 The following legend is applicable only to US Government
 contracts under FAR:
  
                    RESTRICTED RIGHTS LEGEND
  
 Use, reproduction and disclosure by the US Government is
 subject to restrictions as set forth in subparagraphs (a)
 and (c) of the Commercial Computer Software - Restricted
 Rights clause in FAR 52.227-19.
  
 Gaussian, Inc.
 340 Quinnipiac St., Bldg. 40, Wallingford CT 06492
  
  
 ---------------------------------------------------------------
 Warning -- This program may not be used in any manner that
 competes with the business of Gaussian, Inc. or will provide
 assistance to any competitor of Gaussian, Inc.  The licensee
 of this program is prohibited from giving any competitor of
 Gaussian, Inc. access to this program.  By using this program,
 the user acknowledges that Gaussian, Inc. is engaged in the
 business of creating and licensing software in the field of
 computational chemistry and represents and warrants to the
 licensee that it is not a competitor of Gaussian, Inc. and that
 it will not use this program in any manner prohibited above.
 ---------------------------------------------------------------
  

 Cite this work as:
 Gaussian 09, Revision E.01,
 M. J. Frisch, G. W. Trucks, H. B. Schlegel, G. E. Scuseria, 
 M. A. Robb, J. R. Cheeseman, G. Scalmani, V. Barone, B. Mennucci, 
 G. A. Petersson, H. Nakatsuji, M. Caricato, X. Li, H. P. Hratchian, 
 A. F. Izmaylov, J. Bloino, G. Zheng, J. L. Sonnenberg, M. Hada, 
 M. Ehara, K. Toyota, R. Fukuda, J. Hasegawa, M. Ishida, T. Nakajima, 
 Y. Honda, O. Kitao, H. Nakai, T. Vreven, J. A. Montgomery, Jr., 
 J. E. Peralta, F. Ogliaro, M. Bearpark, J. J. Heyd, E. Brothers, 
 K. N. Kudin, V. N. Staroverov, T. Keith, R. Kobayashi, J. Normand, 
 K. Raghavachari, A. Rendell, J. C. Burant, S. S. Iyengar, J. Tomasi, 
 M. Cossi, N. Rega, J. M. Millam, M. Klene, J. E. Knox, J. B. Cross, 
 V. Bakken, C. Adamo, J. Jaramillo, R. Gomperts, R. E. Stratmann, 
 O. Yazyev, A. J. Austin, R. Cammi, C. Pomelli, J. W. Ochterski, 
 R. L. Martin, K. Morokuma, V. G. Zakrzewski, G. A. Voth, 
 P. Salvador, J. J. Dannenberg, S. Dapprich, A. D. Daniels, 
 O. Farkas, J. B. Foresman, J. V. Ortiz, J. Cioslowski, 
 and D. J. Fox, Gaussian, Inc., Wallingford CT, 2013.
 
 ******************************************
 Gaussian 09:  ES64L-G09RevE.01 30-Nov-2015
                15-Jan-2017 
 ******************************************
 -------------------------
 # b3lyp/6-31g(d) opt freq
 -------------------------
 1/14=-1,18=20,19=15,26=3,38=1/1,3;
 2/9=110,12=2,17=6,18=5,40=1/2;
 3/5=1,6=6,7=1,11=2,16=1,25=1,30=1,71=1,74=-5/1,2,3;
 4//1;
 5/5=2,38=5/2;
 6/7=2,8=2,9=2,10=2,28=1/1;
 7//1,2,3,16;
 1/14=-1,18=20,19=15,26=3/3(2);
 2/9=110/2;
 99//99;
 2/9=110/2;
 3/5=1,6=6,7=1,11=2,16=1,25=1,30=1,71=1,74=-5/1,2,3;
 4/5=5,16=3,69=1/1;
 5/5=2,38=5/2;
 7//1,2,3,16;
 1/14=-1,18=20,19=15,26=3/3(-5);
 2/9=110/2;
 6/7=2,8=2,9=2,10=2,19=2,28=1/1;
 99/9=1/99;
 -----------------------------------
 glo_1w_alpha_ircr_boat1_B3LYP_631Gd
 -----------------------------------
 Symbolic Z-matrix:
 Charge =  0 Multiplicity = 1
 1                    -0.2559    1.3179    1.18026 
 6                    -0.0612    1.25198   0.10204 
 6                     0.6834   -1.22421   0.31816 
 6                    -1.56342  -1.01006  -0.9224 
 6                    -0.82824  -1.52409   0.31795 
 8                    -1.22406   0.86978  -0.60895 
 6                     1.04476   0.20665  -0.14448 
 1                    -0.91878  -2.61908   0.2533 
 1                     1.22895   0.16054  -1.22907 
 6                     0.29269   2.63014  -0.45458 
 1                    -0.56091   3.30397  -0.30331 
 1                     0.46787   2.53514  -1.53541 
 1                     1.02958  -1.30445   1.36429 
 8                     1.45638   3.12541   0.22118 
 1                     1.75665   3.93107  -0.22557 
 8                    -1.4679   -1.04318   1.50502 
 1                    -1.16409  -1.59389   2.24236 
 8                     1.27735  -2.20973  -0.50015 
 1                     2.25495  -2.07226  -0.48943 
 8                     2.24775   0.58299   0.54529 
 1                     2.35151   1.5521    0.43903 
 1                    -0.92745  -1.0316   -1.82239 
 8                    -2.79549  -1.05756  -1.03933 
 8                    -3.37824   0.73156   0.56455 
 1                    -3.47624  -0.07669  -0.01255 
 1                    -2.09202   1.02927  -0.06956 
 1                    -3.07822   0.32902   1.3984 
 8                     3.92816  -1.43816  -0.21724 
 1                     3.55464  -0.57799   0.08366 
 1                     4.2804   -1.84577   0.58842 
 
 Add virtual bond connecting atoms O23        and H25        Dist= 2.98D+00.
 Add virtual bond connecting atoms H26        and O24        Dist= 2.77D+00.
 Add virtual bond connecting atoms O28        and H19        Dist= 3.42D+00.
 Add virtual bond connecting atoms H29        and O20        Dist= 3.42D+00.

 GradGradGradGradGradGradGradGradGradGradGradGradGradGradGradGradGradGrad
 Berny optimization.
 Initialization pass.
                           ----------------------------
                           !    Initial Parameters    !
                           ! (Angstroms and Degrees)  !
 --------------------------                            --------------------------
 ! Name  Definition              Value          Derivative Info.                !
 --------------------------------------------------------------------------------
 ! R1    R(1,2)                  1.0976         estimate D2E/DX2                !
 ! R2    R(2,6)                  1.4156         estimate D2E/DX2                !
 ! R3    R(2,7)                  1.5416         estimate D2E/DX2                !
 ! R4    R(2,10)                 1.5279         estimate D2E/DX2                !
 ! R5    R(3,5)                  1.5411         estimate D2E/DX2                !
 ! R6    R(3,7)                  1.5466         estimate D2E/DX2                !
 ! R7    R(3,13)                 1.1048         estimate D2E/DX2                !
 ! R8    R(3,18)                 1.412          estimate D2E/DX2                !
 ! R9    R(4,5)                  1.5307         estimate D2E/DX2                !
 ! R10   R(4,22)                 1.1022         estimate D2E/DX2                !
 ! R11   R(4,23)                 1.2385         estimate D2E/DX2                !
 ! R12   R(5,8)                  1.1006         estimate D2E/DX2                !
 ! R13   R(5,16)                 1.4316         estimate D2E/DX2                !
 ! R14   R(6,26)                 1.0343         estimate D2E/DX2                !
 ! R15   R(7,9)                  1.1011         estimate D2E/DX2                !
 ! R16   R(7,20)                 1.4369         estimate D2E/DX2                !
 ! R17   R(10,11)                1.098          estimate D2E/DX2                !
 ! R18   R(10,12)                1.099          estimate D2E/DX2                !
 ! R19   R(10,14)                1.4339         estimate D2E/DX2                !
 ! R20   R(14,15)                0.9689         estimate D2E/DX2                !
 ! R21   R(16,17)                0.9692         estimate D2E/DX2                !
 ! R22   R(18,19)                0.9873         estimate D2E/DX2                !
 ! R23   R(19,28)                1.8099         estimate D2E/DX2                !
 ! R24   R(20,21)                0.9804         estimate D2E/DX2                !
 ! R25   R(20,29)                1.808          estimate D2E/DX2                !
 ! R26   R(23,25)                1.5747         estimate D2E/DX2                !
 ! R27   R(24,25)                0.9979         estimate D2E/DX2                !
 ! R28   R(24,26)                1.4646         estimate D2E/DX2                !
 ! R29   R(24,27)                0.9733         estimate D2E/DX2                !
 ! R30   R(28,29)                0.9849         estimate D2E/DX2                !
 ! R31   R(28,30)                0.9692         estimate D2E/DX2                !
 ! A1    A(1,2,6)              111.3389         estimate D2E/DX2                !
 ! A2    A(1,2,7)              108.9687         estimate D2E/DX2                !
 ! A3    A(1,2,10)             110.1684         estimate D2E/DX2                !
 ! A4    A(6,2,7)              109.0224         estimate D2E/DX2                !
 ! A5    A(6,2,10)             104.5267         estimate D2E/DX2                !
 ! A6    A(7,2,10)             112.7804         estimate D2E/DX2                !
 ! A7    A(5,3,7)              114.1524         estimate D2E/DX2                !
 ! A8    A(5,3,13)             107.0577         estimate D2E/DX2                !
 ! A9    A(5,3,18)             106.0641         estimate D2E/DX2                !
 ! A10   A(7,3,13)             106.0947         estimate D2E/DX2                !
 ! A11   A(7,3,18)             111.9683         estimate D2E/DX2                !
 ! A12   A(13,3,18)            111.4854         estimate D2E/DX2                !
 ! A13   A(5,4,22)             112.2067         estimate D2E/DX2                !
 ! A14   A(5,4,23)             122.7787         estimate D2E/DX2                !
 ! A15   A(22,4,23)            119.7449         estimate D2E/DX2                !
 ! A16   A(3,5,4)              113.9452         estimate D2E/DX2                !
 ! A17   A(3,5,8)              105.9199         estimate D2E/DX2                !
 ! A18   A(3,5,16)             111.8875         estimate D2E/DX2                !
 ! A19   A(4,5,8)              104.2987         estimate D2E/DX2                !
 ! A20   A(4,5,16)             110.1501         estimate D2E/DX2                !
 ! A21   A(8,5,16)             110.2515         estimate D2E/DX2                !
 ! A22   A(2,6,26)             112.6941         estimate D2E/DX2                !
 ! A23   A(2,7,3)              114.3223         estimate D2E/DX2                !
 ! A24   A(2,7,9)              107.8132         estimate D2E/DX2                !
 ! A25   A(2,7,20)             110.259          estimate D2E/DX2                !
 ! A26   A(3,7,9)              107.1573         estimate D2E/DX2                !
 ! A27   A(3,7,20)             107.1173         estimate D2E/DX2                !
 ! A28   A(9,7,20)             110.1072         estimate D2E/DX2                !
 ! A29   A(2,10,11)            108.8624         estimate D2E/DX2                !
 ! A30   A(2,10,12)            108.4953         estimate D2E/DX2                !
 ! A31   A(2,10,14)            109.1373         estimate D2E/DX2                !
 ! A32   A(11,10,12)           108.2074         estimate D2E/DX2                !
 ! A33   A(11,10,14)           110.7335         estimate D2E/DX2                !
 ! A34   A(12,10,14)           111.3434         estimate D2E/DX2                !
 ! A35   A(10,14,15)           108.7474         estimate D2E/DX2                !
 ! A36   A(5,16,17)            107.4515         estimate D2E/DX2                !
 ! A37   A(3,18,19)            108.2431         estimate D2E/DX2                !
 ! A38   A(18,19,28)           164.9771         estimate D2E/DX2                !
 ! A39   A(7,20,21)            107.1853         estimate D2E/DX2                !
 ! A40   A(7,20,29)            108.3258         estimate D2E/DX2                !
 ! A41   A(21,20,29)           122.0426         estimate D2E/DX2                !
 ! A42   A(4,23,25)            110.1571         estimate D2E/DX2                !
 ! A43   A(25,24,26)            90.0288         estimate D2E/DX2                !
 ! A44   A(25,24,27)           100.9955         estimate D2E/DX2                !
 ! A45   A(26,24,27)           100.6192         estimate D2E/DX2                !
 ! A46   A(23,25,24)           147.0429         estimate D2E/DX2                !
 ! A47   A(6,26,24)            158.6578         estimate D2E/DX2                !
 ! A48   A(19,28,29)            90.0759         estimate D2E/DX2                !
 ! A49   A(19,28,30)           108.2799         estimate D2E/DX2                !
 ! A50   A(29,28,30)           104.5478         estimate D2E/DX2                !
 ! A51   A(20,29,28)           155.9202         estimate D2E/DX2                !
 ! D1    D(1,2,6,26)            19.3496         estimate D2E/DX2                !
 ! D2    D(7,2,6,26)           139.6027         estimate D2E/DX2                !
 ! D3    D(10,2,6,26)          -99.5717         estimate D2E/DX2                !
 ! D4    D(1,2,7,3)             61.3177         estimate D2E/DX2                !
 ! D5    D(1,2,7,9)           -179.6527         estimate D2E/DX2                !
 ! D6    D(1,2,7,20)           -59.421          estimate D2E/DX2                !
 ! D7    D(6,2,7,3)            -60.3846         estimate D2E/DX2                !
 ! D8    D(6,2,7,9)             58.645          estimate D2E/DX2                !
 ! D9    D(6,2,7,20)           178.8767         estimate D2E/DX2                !
 ! D10   D(10,2,7,3)          -176.0143         estimate D2E/DX2                !
 ! D11   D(10,2,7,9)           -56.9847         estimate D2E/DX2                !
 ! D12   D(10,2,7,20)           63.247          estimate D2E/DX2                !
 ! D13   D(1,2,10,11)          -61.6676         estimate D2E/DX2                !
 ! D14   D(1,2,10,12)         -179.2132         estimate D2E/DX2                !
 ! D15   D(1,2,10,14)           59.2998         estimate D2E/DX2                !
 ! D16   D(6,2,10,11)           58.0436         estimate D2E/DX2                !
 ! D17   D(6,2,10,12)          -59.502          estimate D2E/DX2                !
 ! D18   D(6,2,10,14)          179.011          estimate D2E/DX2                !
 ! D19   D(7,2,10,11)          176.3381         estimate D2E/DX2                !
 ! D20   D(7,2,10,12)           58.7926         estimate D2E/DX2                !
 ! D21   D(7,2,10,14)          -62.6944         estimate D2E/DX2                !
 ! D22   D(7,3,5,4)             43.3001         estimate D2E/DX2                !
 ! D23   D(7,3,5,8)            157.3593         estimate D2E/DX2                !
 ! D24   D(7,3,5,16)           -82.4752         estimate D2E/DX2                !
 ! D25   D(13,3,5,4)           160.3903         estimate D2E/DX2                !
 ! D26   D(13,3,5,8)           -85.5505         estimate D2E/DX2                !
 ! D27   D(13,3,5,16)           34.615          estimate D2E/DX2                !
 ! D28   D(18,3,5,4)           -80.4635         estimate D2E/DX2                !
 ! D29   D(18,3,5,8)            33.5957         estimate D2E/DX2                !
 ! D30   D(18,3,5,16)          153.7612         estimate D2E/DX2                !
 ! D31   D(5,3,7,2)             27.092          estimate D2E/DX2                !
 ! D32   D(5,3,7,9)            -92.3071         estimate D2E/DX2                !
 ! D33   D(5,3,7,20)           149.5582         estimate D2E/DX2                !
 ! D34   D(13,3,7,2)           -90.5519         estimate D2E/DX2                !
 ! D35   D(13,3,7,9)           150.049          estimate D2E/DX2                !
 ! D36   D(13,3,7,20)           31.9143         estimate D2E/DX2                !
 ! D37   D(18,3,7,2)           147.6153         estimate D2E/DX2                !
 ! D38   D(18,3,7,9)            28.2162         estimate D2E/DX2                !
 ! D39   D(18,3,7,20)          -89.9184         estimate D2E/DX2                !
 ! D40   D(5,3,18,19)         -177.4422         estimate D2E/DX2                !
 ! D41   D(7,3,18,19)           57.4382         estimate D2E/DX2                !
 ! D42   D(13,3,18,19)         -61.2493         estimate D2E/DX2                !
 ! D43   D(22,4,5,3)            32.2722         estimate D2E/DX2                !
 ! D44   D(22,4,5,8)           -82.7458         estimate D2E/DX2                !
 ! D45   D(22,4,5,16)          158.9587         estimate D2E/DX2                !
 ! D46   D(23,4,5,3)          -173.5369         estimate D2E/DX2                !
 ! D47   D(23,4,5,8)            71.4451         estimate D2E/DX2                !
 ! D48   D(23,4,5,16)          -46.8504         estimate D2E/DX2                !
 ! D49   D(5,4,23,25)           67.8083         estimate D2E/DX2                !
 ! D50   D(22,4,23,25)        -139.8533         estimate D2E/DX2                !
 ! D51   D(3,5,16,17)          -69.582          estimate D2E/DX2                !
 ! D52   D(4,5,16,17)          162.5878         estimate D2E/DX2                !
 ! D53   D(8,5,16,17)           48.0183         estimate D2E/DX2                !
 ! D54   D(2,6,26,24)         -126.4526         estimate D2E/DX2                !
 ! D55   D(2,7,20,21)          -40.7181         estimate D2E/DX2                !
 ! D56   D(2,7,20,29)         -174.1465         estimate D2E/DX2                !
 ! D57   D(3,7,20,21)         -165.6811         estimate D2E/DX2                !
 ! D58   D(3,7,20,29)           60.8904         estimate D2E/DX2                !
 ! D59   D(9,7,20,21)           78.1226         estimate D2E/DX2                !
 ! D60   D(9,7,20,29)          -55.3058         estimate D2E/DX2                !
 ! D61   D(2,10,14,15)         171.3367         estimate D2E/DX2                !
 ! D62   D(11,10,14,15)        -68.8443         estimate D2E/DX2                !
 ! D63   D(12,10,14,15)         51.594          estimate D2E/DX2                !
 ! D64   D(3,18,19,28)          -5.1989         estimate D2E/DX2                !
 ! D65   D(18,19,28,29)        -13.642          estimate D2E/DX2                !
 ! D66   D(18,19,28,30)         91.7235         estimate D2E/DX2                !
 ! D67   D(7,20,29,28)         -27.0474         estimate D2E/DX2                !
 ! D68   D(21,20,29,28)       -152.1119         estimate D2E/DX2                !
 ! D69   D(4,23,25,24)          22.3019         estimate D2E/DX2                !
 ! D70   D(26,24,25,23)          9.9992         estimate D2E/DX2                !
 ! D71   D(27,24,25,23)        -90.8267         estimate D2E/DX2                !
 ! D72   D(25,24,26,6)         -18.7956         estimate D2E/DX2                !
 ! D73   D(27,24,26,6)          82.3994         estimate D2E/DX2                !
 ! D74   D(19,28,29,20)          5.578          estimate D2E/DX2                !
 ! D75   D(30,28,29,20)       -103.3508         estimate D2E/DX2                !
 --------------------------------------------------------------------------------
 Trust Radius=3.00D-01 FncErr=1.00D-07 GrdErr=1.00D-06
 Number of steps in this run=    167 maximum allowed number of steps=    180.
 GradGradGradGradGradGradGradGradGradGradGradGradGradGradGradGradGradGrad

                          Input orientation:                          
 ---------------------------------------------------------------------
 Center     Atomic      Atomic             Coordinates (Angstroms)
 Number     Number       Type             X           Y           Z
 ---------------------------------------------------------------------
      1          1           0       -0.255897    1.317897    1.180263
      2          6           0       -0.061200    1.251977    0.102038
      3          6           0        0.683403   -1.224209    0.318160
      4          6           0       -1.563416   -1.010060   -0.922398
      5          6           0       -0.828239   -1.524088    0.317949
      6          8           0       -1.224058    0.869783   -0.608952
      7          6           0        1.044762    0.206651   -0.144483
      8          1           0       -0.918784   -2.619078    0.253300
      9          1           0        1.228951    0.160541   -1.229073
     10          6           0        0.292690    2.630138   -0.454584
     11          1           0       -0.560914    3.303966   -0.303305
     12          1           0        0.467872    2.535142   -1.535412
     13          1           0        1.029578   -1.304452    1.364290
     14          8           0        1.456383    3.125405    0.221180
     15          1           0        1.756648    3.931072   -0.225566
     16          8           0       -1.467898   -1.043181    1.505018
     17          1           0       -1.164087   -1.593892    2.242361
     18          8           0        1.277348   -2.209728   -0.500150
     19          1           0        2.254950   -2.072257   -0.489434
     20          8           0        2.247753    0.582989    0.545291
     21          1           0        2.351509    1.552095    0.439028
     22          1           0       -0.927452   -1.031603   -1.822391
     23          8           0       -2.795485   -1.057563   -1.039328
     24          8           0       -3.378242    0.731555    0.564546
     25          1           0       -3.476239   -0.076692   -0.012547
     26          1           0       -2.092024    1.029272   -0.069561
     27          1           0       -3.078219    0.329019    1.398399
     28          8           0        3.928157   -1.438161   -0.217244
     29          1           0        3.554641   -0.577992    0.083657
     30          1           0        4.280399   -1.845774    0.588417
 ---------------------------------------------------------------------
                    Distance matrix (angstroms):
                    1          2          3          4          5
     1  H    0.000000
     2  C    1.097644   0.000000
     3  C    2.843907   2.594733   0.000000
     4  C    3.398555   2.902229   2.575469   0.000000
     5  C    3.024573   2.888166   1.541100   1.530742   0.000000
     6  O    2.083130   1.415563   2.980394   1.935774   2.597390
     7  C    2.163685   1.541633   1.546602   2.981297   2.591801
     8  H    4.098591   3.967795   2.125293   2.094458   1.100628
     9  H    3.057637   2.151181   2.146878   3.043299   3.076245
    10  C    2.166945   1.527872   3.950415   4.112787   4.371600
    11  H    2.497695   2.150506   4.736973   4.472036   4.875195
    12  H    3.062747   2.146549   4.197011   4.131631   4.646741
    13  H    2.926265   3.052606   1.104837   3.469759   2.143491
    14  O    2.668113   2.413915   4.418828   5.246811   5.181375
    15  H    3.585439   3.254143   5.293809   5.993595   6.061008
    16  O    2.673780   3.035606   2.463635   2.429520   1.431631
    17  H    3.229764   3.727776   2.693034   3.242842   1.954745
    18  O    4.197471   3.760019   1.411967   3.112465   2.360696
    19  H    4.537112   4.094499   1.959886   3.986934   3.233947
    20  O    2.685432   2.444439   2.400988   4.383711   3.735396
    21  H    2.720817   2.454546   3.241150   4.872859   4.425874
    22  H    3.871313   3.109430   2.685872   1.102226   2.198509
    23  O    4.125397   3.756728   3.738075   1.238517   2.435139
    24  O    3.236038   3.389324   4.514718   2.921955   3.413393
    25  H    3.706518   3.666195   4.327677   2.314713   3.035801
    26  H    2.239805   2.050193   3.596039   2.272803   2.875233
    27  H    2.998494   3.410983   4.210610   3.077964   3.108663
    28  O    5.201460   4.822215   3.295582   5.553187   4.787183
    29  H    4.395127   4.052583   2.952388   5.233864   4.489947
    30  H    5.562111   5.355568   3.660295   6.093534   5.125897
                    6          7          8          9         10
     6  O    0.000000
     7  C    2.408946   0.000000
     8  H    3.606774   3.463883   0.000000
     9  H    2.627704   1.101085   3.812673   0.000000
    10  C    2.328777   2.556377   5.433511   2.752331   0.000000
    11  H    2.541344   3.492389   5.959893   3.733870   1.097984
    12  H    2.548407   2.772969   5.629235   2.512333   1.099046
    13  H    3.701332   2.135429   2.599741   2.985211   4.396852
    14  O    3.600238   2.970230   6.216232   3.308380   1.433920
    15  H    4.289882   3.792712   7.091665   3.937308   1.971814
    16  O    2.861426   3.255210   2.086091   4.024574   4.520286
    17  H    3.768724   3.717256   2.251121   4.566784   5.219017
    18  O    3.968911   2.453463   2.357594   2.480292   4.939224
    19  H    4.557782   2.603261   3.305035   2.566150   5.095508
    20  O    3.669877   1.436874   4.512809   2.089207   3.002139
    21  H    3.787940   1.964254   5.303583   2.445224   2.489870
    22  H    2.275012   2.870240   2.613168   2.534424   4.094874
    23  O    2.523741   4.140831   2.762467   4.209022   4.845399
    24  O    2.456972   4.510123   4.168039   4.976882   4.256640
    25  H    2.514723   4.531792   3.615934   4.865699   4.661239
    26  H    1.034284   3.243724   3.845931   3.623263   2.897909
    27  H    2.785641   4.403911   3.829581   5.048139   4.482379
    28  O    5.659095   3.320341   5.010870   3.296264   5.461136
    29  H    5.041004   2.639546   4.919994   2.770835   4.606748
    30  H    6.253558   3.901146   5.267049   4.079204   6.084691
                   11         12         13         14         15
    11  H    0.000000
    12  H    1.779769   0.000000
    13  H    5.152480   4.844199   0.000000
    14  O    2.091998   2.100281   4.594834   0.000000
    15  H    2.402165   2.307653   5.519691   0.968938   0.000000
    16  O    4.794824   5.078958   2.515045   5.251359   6.175420
    17  H    5.552769   5.829561   2.380536   5.764009   6.719121
    18  O    5.815391   4.923496   2.087355   5.386652   6.165594
    19  H    6.071862   5.051321   2.351032   5.306446   6.029750
    20  O    4.001555   3.362767   2.391055   2.682386   3.470600
    21  H    3.478839   2.900497   3.280773   1.823188   2.540684
    22  H    4.608593   3.840697   3.749580   5.209565   5.863650
    23  O    4.955600   4.878845   4.524317   6.096268   6.802250
    24  O    3.912518   4.738707   4.920751   5.405739   6.101498
    25  H    4.473534   4.969588   4.868825   5.885475   6.594745
    26  H    2.751939   3.312013   4.152902   4.131525   4.822557
    27  H    4.252403   5.103821   4.420790   5.456027   6.244036
    28  O    6.530462   5.431232   3.304677   5.208456   5.791734
    29  H    5.670726   4.673450   2.922962   4.258726   4.864160
    30  H    7.124135   6.183724   3.385682   5.729097   6.356401
                   16         17         18         19         20
    16  O    0.000000
    17  H    0.969153   0.000000
    18  O    3.594149   3.723067   0.000000
    19  H    4.347003   4.402426   0.987278   0.000000
    20  O    4.167921   4.388566   3.135905   2.849744   0.000000
    21  H    4.739163   5.050610   4.023331   3.742632   0.980420
    22  H    3.371033   4.110277   2.827975   3.603806   4.277237
    23  O    2.869911   3.703862   4.266868   5.180626   5.535041
    24  O    2.771929   3.622879   5.608854   6.380054   5.627989
    25  H    2.696394   3.568270   5.232990   6.087383   5.788821
    26  H    2.676545   3.617601   4.693527   5.356488   4.405778
    27  H    2.118356   2.841436   5.387085   6.145952   5.399840
    28  O    5.677993   5.657284   2.775273   1.809913   2.736835
    29  H    5.240474   5.287575   2.861723   2.061664   1.808021
    30  H    5.875988   5.695736   3.214927   2.305537   3.167396
                   21         22         23         24         25
    21  H    0.000000
    22  H    4.747746   0.000000
    23  O    5.957130   2.025687   0.000000
    24  O    5.789567   3.848710   2.472440   0.000000
    25  H    6.067909   3.268594   1.574742   0.997949   0.000000
    26  H    4.502998   2.945479   2.406280   1.464610   1.772698
    27  H    5.647854   4.104946   2.818698   0.973324   1.521115
    28  O    3.443565   5.130178   6.784397   7.661745   7.531307
    29  H    2.472061   4.891619   6.466466   7.071848   7.049385
    30  H    3.910044   5.796256   7.303353   8.080716   7.978486
                   26         27         28         29         30
    26  H    0.000000
    27  H    1.902062   0.000000
    28  O    6.507889   7.404224   0.000000
    29  H    5.872955   6.822466   0.984859   0.000000
    30  H    7.021866   7.715896   0.969181   1.545567   0.000000
 Stoichiometry    C6H16O8
 Framework group  C1[X(C6H16O8)]
 Deg. of freedom    84
 Full point group                 C1      NOp   1
 Largest Abelian subgroup         C1      NOp   1
 Largest concise Abelian subgroup C1      NOp   1
                         Standard orientation:                         
 ---------------------------------------------------------------------
 Center     Atomic      Atomic             Coordinates (Angstroms)
 Number     Number       Type             X           Y           Z
 ---------------------------------------------------------------------
      1          1           0       -0.274379    1.309494    1.167278
      2          6           0       -0.078406    1.239426    0.089546
      3          6           0        0.661979   -1.237153    0.315439
      4          6           0       -1.582906   -1.023860   -0.928763
      5          6           0       -0.850137   -1.534632    0.314351
      6          8           0       -1.240959    0.856547   -0.621575
      7          6           0        1.026206    0.191475   -0.151829
      8          1           0       -0.942341   -2.629701    0.253483
      9          1           0        1.211711    0.141210   -1.236010
     10          6           0        0.278390    2.615032   -0.471523
     11          1           0       -0.574334    3.290748   -0.323742
     12          1           0        0.454805    2.515909   -1.551779
     13          1           0        1.006685   -1.314219    1.362293
     14          8           0        1.442002    3.110856    0.203971
     15          1           0        1.744121    3.914449   -0.245253
     16          8           0       -1.490550   -1.048486    1.498876
     17          1           0       -1.188561   -1.597049    2.238565
     18          8           0        1.255403   -2.226522   -0.498592
     19          1           0        2.233208   -2.090565   -0.487108
     20          8           0        2.228910    0.568358    0.538148
     21          1           0        2.334344    1.536913    0.428570
     22          1           0       -0.945824   -1.049617   -1.827855
     23          8           0       -2.814898   -1.069824   -1.047109
     24          8           0       -3.396861    0.725918    0.549635
     25          1           0       -3.495405   -0.084223   -0.024703
     26          1           0       -2.109360    1.019333   -0.083872
     27          1           0       -3.098548    0.325879    1.385301
     28          8           0        3.907071   -1.458159   -0.215024
     29          1           0        3.534539   -0.596332    0.082332
     30          1           0        4.257632   -1.863458    0.592535
 ---------------------------------------------------------------------
 Rotational constants (GHZ):      0.7693714      0.5068316      0.3517807
 Standard basis: 6-31G(d) (6D, 7F)
 There are   242 symmetry adapted cartesian basis functions of A   symmetry.
 There are   242 symmetry adapted basis functions of A   symmetry.
   242 basis functions,   456 primitive gaussians,   242 cartesian basis functions
    58 alpha electrons       58 beta electrons
       nuclear repulsion energy      1111.0689603968 Hartrees.
 NAtoms=   30 NActive=   30 NUniq=   30 SFac= 1.00D+00 NAtFMM=   60 NAOKFM=F Big=F
 Integral buffers will be    131072 words long.
 Raffenetti 2 integral format.
 Two-electron integral symmetry is turned on.
 One-electron integrals computed using PRISM.
 NBasis=   242 RedAO= T EigKep=  1.50D-03  NBF=   242
 NBsUse=   242 1.00D-06 EigRej= -1.00D+00 NBFU=   242
 ExpMin= 1.61D-01 ExpMax= 5.48D+03 ExpMxC= 8.25D+02 IAcc=1 IRadAn=         1 AccDes= 0.00D+00
 Harris functional with IExCor=  402 and IRadAn=       1 diagonalized for initial guess.
 HarFok:  IExCor=  402 AccDes= 0.00D+00 IRadAn=         1 IDoV= 1 UseB2=F ITyADJ=14
 ICtDFT=  3500011 ScaDFX=  1.000000  1.000000  1.000000  1.000000
 FoFCou: FMM=F IPFlag=           0 FMFlag=      100000 FMFlg1=           0
         NFxFlg=           0 DoJE=T BraDBF=F KetDBF=T FulRan=T
         wScrn=  0.000000 ICntrl=     500 IOpCl=  0 I1Cent=   200000004 NGrid=           0
         NMat0=    1 NMatS0=      1 NMatT0=    0 NMatD0=    1 NMtDS0=    0 NMtDT0=    0
 Petite list used in FoFCou.
 Requested convergence on RMS density matrix=1.00D-08 within 128 cycles.
 Requested convergence on MAX density matrix=1.00D-06.
 Requested convergence on             energy=1.00D-06.
 No special actions if energy rises.
 Integral accuracy reduced to 1.0D-05 until final iterations.
 Initial convergence to 1.0D-05 achieved.  Increase integral accuracy.
 SCF Done:  E(RB3LYP) =  -839.969914351     A.U. after   14 cycles
            NFock= 14  Conv=0.60D-08     -V/T= 2.0084

 **********************************************************************

            Population analysis using the SCF density.

 **********************************************************************

 Orbital symmetries:
       Occupied  (A) (A) (A) (A) (A) (A) (A) (A) (A) (A) (A) (A)
                 (A) (A) (A) (A) (A) (A) (A) (A) (A) (A) (A) (A)
                 (A) (A) (A) (A) (A) (A) (A) (A) (A) (A) (A) (A)
                 (A) (A) (A) (A) (A) (A) (A) (A) (A) (A) (A) (A)
                 (A) (A) (A) (A) (A) (A) (A) (A) (A) (A)
       Virtual   (A) (A) (A) (A) (A) (A) (A) (A) (A) (A) (A) (A)
                 (A) (A) (A) (A) (A) (A) (A) (A) (A) (A) (A) (A)
                 (A) (A) (A) (A) (A) (A) (A) (A) (A) (A) (A) (A)
                 (A) (A) (A) (A) (A) (A) (A) (A) (A) (A) (A) (A)
                 (A) (A) (A) (A) (A) (A) (A) (A) (A) (A) (A) (A)
                 (A) (A) (A) (A) (A) (A) (A) (A) (A) (A) (A) (A)
                 (A) (A) (A) (A) (A) (A) (A) (A) (A) (A) (A) (A)
                 (A) (A) (A) (A) (A) (A) (A) (A) (A) (A) (A) (A)
                 (A) (A) (A) (A) (A) (A) (A) (A) (A) (A) (A) (A)
                 (A) (A) (A) (A) (A) (A) (A) (A) (A) (A) (A) (A)
                 (A) (A) (A) (A) (A) (A) (A) (A) (A) (A) (A) (A)
                 (A) (A) (A) (A) (A) (A) (A) (A) (A) (A) (A) (A)
                 (A) (A) (A) (A) (A) (A) (A) (A) (A) (A) (A) (A)
                 (A) (A) (A) (A) (A) (A) (A) (A) (A) (A) (A) (A)
                 (A) (A) (A) (A) (A) (A) (A) (A) (A) (A) (A) (A)
                 (A) (A) (A) (A)
 The electronic state is 1-A.
 Alpha  occ. eigenvalues --  -19.18681 -19.17400 -19.16311 -19.16221 -19.14818
 Alpha  occ. eigenvalues --  -19.13995 -19.12837 -19.11046 -10.27462 -10.25373
 Alpha  occ. eigenvalues --  -10.25316 -10.24774 -10.24561 -10.24126  -1.06459
 Alpha  occ. eigenvalues --   -1.05468  -1.03726  -1.03436  -1.00943  -1.00823
 Alpha  occ. eigenvalues --   -0.99987  -0.99524  -0.78346  -0.76068  -0.70065
 Alpha  occ. eigenvalues --   -0.63962  -0.61356  -0.57560  -0.56519  -0.55056
 Alpha  occ. eigenvalues --   -0.53127  -0.52904  -0.51661  -0.50535  -0.49613
 Alpha  occ. eigenvalues --   -0.47389  -0.46711  -0.45801  -0.43617  -0.43225
 Alpha  occ. eigenvalues --   -0.41364  -0.40884  -0.40712  -0.39288  -0.38126
 Alpha  occ. eigenvalues --   -0.37676  -0.36544  -0.35148  -0.34226  -0.33447
 Alpha  occ. eigenvalues --   -0.30641  -0.30401  -0.29545  -0.29388  -0.28375
 Alpha  occ. eigenvalues --   -0.27163  -0.25905  -0.23320
 Alpha virt. eigenvalues --    0.01178   0.04021   0.05704   0.06953   0.09764
 Alpha virt. eigenvalues --    0.10369   0.10569   0.12520   0.14429   0.14505
 Alpha virt. eigenvalues --    0.15526   0.16066   0.16595   0.18153   0.19295
 Alpha virt. eigenvalues --    0.20261   0.21652   0.22450   0.23631   0.24223
 Alpha virt. eigenvalues --    0.24535   0.25908   0.26891   0.28950   0.29823
 Alpha virt. eigenvalues --    0.30721   0.33415   0.36989   0.51254   0.53019
 Alpha virt. eigenvalues --    0.54551   0.56154   0.57375   0.58858   0.59492
 Alpha virt. eigenvalues --    0.61171   0.62100   0.63210   0.65415   0.66715
 Alpha virt. eigenvalues --    0.67665   0.69609   0.72303   0.73387   0.75448
 Alpha virt. eigenvalues --    0.76656   0.77369   0.78233   0.79187   0.80538
 Alpha virt. eigenvalues --    0.81931   0.82381   0.83416   0.84435   0.85272
 Alpha virt. eigenvalues --    0.85863   0.86830   0.87114   0.88881   0.89610
 Alpha virt. eigenvalues --    0.90441   0.91670   0.91883   0.94112   0.95520
 Alpha virt. eigenvalues --    0.96148   0.97125   0.97978   1.00647   1.02370
 Alpha virt. eigenvalues --    1.03980   1.06411   1.06717   1.08356   1.09200
 Alpha virt. eigenvalues --    1.11297   1.12107   1.14170   1.15119   1.16906
 Alpha virt. eigenvalues --    1.19785   1.20895   1.23251   1.25606   1.26943
 Alpha virt. eigenvalues --    1.27607   1.30063   1.31892   1.35011   1.37814
 Alpha virt. eigenvalues --    1.40163   1.40493   1.43828   1.48562   1.50076
 Alpha virt. eigenvalues --    1.51858   1.54762   1.55582   1.58350   1.60267
 Alpha virt. eigenvalues --    1.61840   1.62029   1.64678   1.67580   1.68807
 Alpha virt. eigenvalues --    1.71093   1.72152   1.72762   1.73504   1.74449
 Alpha virt. eigenvalues --    1.75618   1.76080   1.77508   1.79449   1.79948
 Alpha virt. eigenvalues --    1.82372   1.82782   1.84094   1.85860   1.86892
 Alpha virt. eigenvalues --    1.88429   1.89216   1.89846   1.93855   1.94458
 Alpha virt. eigenvalues --    1.95101   1.98112   2.02079   2.04044   2.04851
 Alpha virt. eigenvalues --    2.06359   2.08274   2.08865   2.12379   2.14758
 Alpha virt. eigenvalues --    2.18662   2.19558   2.22600   2.23766   2.25042
 Alpha virt. eigenvalues --    2.30482   2.32792   2.33861   2.37615   2.39576
 Alpha virt. eigenvalues --    2.41151   2.44100   2.45576   2.48575   2.49613
 Alpha virt. eigenvalues --    2.51292   2.53015   2.55145   2.57281   2.60062
 Alpha virt. eigenvalues --    2.61741   2.62952   2.64936   2.65346   2.70512
 Alpha virt. eigenvalues --    2.72237   2.77487   2.81899   2.86276   2.90132
 Alpha virt. eigenvalues --    2.93872   2.97671   3.00718   3.05059   3.08900
 Alpha virt. eigenvalues --    3.73645   3.76279   3.82428   3.83288   3.89305
 Alpha virt. eigenvalues --    4.00725   4.07353   4.14972   4.27299   4.34035
 Alpha virt. eigenvalues --    4.47454   4.54289   4.58834   4.78225
          Condensed to atoms (all electrons):
               1          2          3          4          5          6
     1  H    0.613719   0.358613  -0.006159   0.000203  -0.002962  -0.030843
     2  C    0.358613   4.945930  -0.023546  -0.006432  -0.009657   0.165114
     3  C   -0.006159  -0.023546   4.982068  -0.016693   0.246458  -0.002938
     4  C    0.000203  -0.006432  -0.016693   4.715173   0.232826   0.040409
     5  C   -0.002962  -0.009657   0.246458   0.232826   5.264899  -0.020961
     6  O   -0.030843   0.165114  -0.002938   0.040409  -0.020961   8.545788
     7  C   -0.053502   0.298632   0.329103  -0.012769  -0.021133  -0.033248
     8  H    0.000026   0.000422  -0.051579  -0.031373   0.347698   0.001905
     9  H    0.006953  -0.045806  -0.052618   0.001471  -0.002224   0.002510
    10  C   -0.055223   0.342451   0.003544   0.000434   0.000133  -0.047155
    11  H   -0.006283  -0.035095  -0.000113  -0.000050   0.000007   0.002821
    12  H    0.006734  -0.032529  -0.000080  -0.000010  -0.000000   0.005064
    13  H    0.002547   0.000839   0.333276   0.004339  -0.048525   0.000089
    14  O    0.004822  -0.038410  -0.000050  -0.000002   0.000004   0.001454
    15  H   -0.000207   0.005067   0.000009   0.000000  -0.000000  -0.000114
    16  O    0.007970   0.003696  -0.038310  -0.036673   0.185413  -0.001520
    17  H   -0.000003  -0.000045  -0.003601   0.005916  -0.020220   0.000053
    18  O    0.000012   0.004179   0.222981   0.000784  -0.044826  -0.000026
    19  H    0.000001   0.000047  -0.020247  -0.000066   0.004179  -0.000004
    20  O    0.004028  -0.023758  -0.041967   0.000067   0.002671   0.001236
    21  H    0.000103  -0.012519   0.004181  -0.000007  -0.000177   0.000039
    22  H   -0.000020   0.001893   0.008784   0.373394  -0.114562  -0.017260
    23  O   -0.000035   0.001435   0.002994   0.426706  -0.054251  -0.039158
    24  O    0.002033   0.001605  -0.000059   0.017193  -0.002245  -0.072437
    25  H   -0.000208   0.000080   0.000168  -0.016101  -0.003050   0.006473
    26  H   -0.002023  -0.003827  -0.000281  -0.006916   0.000284   0.140086
    27  H    0.000075   0.000210   0.000203  -0.001101  -0.001814   0.004617
    28  O    0.000000   0.000004   0.004141  -0.000000   0.000079   0.000000
    29  H   -0.000022   0.000642  -0.000419  -0.000002   0.000032  -0.000007
    30  H    0.000000  -0.000004   0.000504  -0.000000   0.000012  -0.000000
               7          8          9         10         11         12
     1  H   -0.053502   0.000026   0.006953  -0.055223  -0.006283   0.006734
     2  C    0.298632   0.000422  -0.045806   0.342451  -0.035095  -0.032529
     3  C    0.329103  -0.051579  -0.052618   0.003544  -0.000113  -0.000080
     4  C   -0.012769  -0.031373   0.001471   0.000434  -0.000050  -0.000010
     5  C   -0.021133   0.347698  -0.002224   0.000133   0.000007  -0.000000
     6  O   -0.033248   0.001905   0.002510  -0.047155   0.002821   0.005064
     7  C    4.997935   0.005290   0.349873  -0.033046   0.005135  -0.012133
     8  H    0.005290   0.583404  -0.000345   0.000018  -0.000000  -0.000001
     9  H    0.349873  -0.000345   0.632594  -0.012551  -0.000056   0.006684
    10  C   -0.033046   0.000018  -0.012551   4.970715   0.366388   0.353883
    11  H    0.005135  -0.000000  -0.000056   0.366388   0.593540  -0.047728
    12  H   -0.012133  -0.000001   0.006684   0.353883  -0.047728   0.612255
    13  H   -0.060357  -0.003130   0.007768  -0.000303   0.000007  -0.000002
    14  O    0.004630  -0.000000   0.000123   0.187598  -0.033220  -0.033881
    15  H   -0.000060   0.000000  -0.000034  -0.015316  -0.002481  -0.005249
    16  O   -0.001915  -0.026261  -0.000022   0.000248  -0.000000  -0.000004
    17  H   -0.000360  -0.006633   0.000011  -0.000009   0.000000   0.000000
    18  O   -0.044048   0.008925   0.003508  -0.000056   0.000000  -0.000005
    19  H   -0.000994  -0.000065   0.000456  -0.000002   0.000000   0.000000
    20  O    0.196656  -0.000062  -0.040056   0.001599  -0.000224   0.000179
    21  H   -0.018082   0.000005  -0.000780  -0.003837   0.000897   0.000027
    22  H   -0.002572   0.003170   0.002570  -0.000139   0.000005   0.000005
    23  O    0.000093  -0.001608   0.000002  -0.000042   0.000004  -0.000002
    24  O   -0.000094  -0.000054   0.000001  -0.000098  -0.000042   0.000006
    25  H    0.000028   0.000049  -0.000000  -0.000009   0.000005  -0.000001
    26  H    0.003147  -0.000181  -0.000066  -0.002864   0.001889  -0.000092
    27  H    0.000013   0.000184   0.000001  -0.000001   0.000006  -0.000001
    28  O    0.001670   0.000001   0.000423  -0.000002  -0.000000   0.000000
    29  H   -0.005104  -0.000004  -0.001188  -0.000013   0.000001  -0.000006
    30  H   -0.000385  -0.000000  -0.000011   0.000000   0.000000   0.000000
              13         14         15         16         17         18
     1  H    0.002547   0.004822  -0.000207   0.007970  -0.000003   0.000012
     2  C    0.000839  -0.038410   0.005067   0.003696  -0.000045   0.004179
     3  C    0.333276  -0.000050   0.000009  -0.038310  -0.003601   0.222981
     4  C    0.004339  -0.000002   0.000000  -0.036673   0.005916   0.000784
     5  C   -0.048525   0.000004  -0.000000   0.185413  -0.020220  -0.044826
     6  O    0.000089   0.001454  -0.000114  -0.001520   0.000053  -0.000026
     7  C   -0.060357   0.004630  -0.000060  -0.001915  -0.000360  -0.044048
     8  H   -0.003130  -0.000000   0.000000  -0.026261  -0.006633   0.008925
     9  H    0.007768   0.000123  -0.000034  -0.000022   0.000011   0.003508
    10  C   -0.000303   0.187598  -0.015316   0.000248  -0.000009  -0.000056
    11  H    0.000007  -0.033220  -0.002481  -0.000000   0.000000   0.000000
    12  H   -0.000002  -0.033881  -0.005249  -0.000004   0.000000  -0.000005
    13  H    0.680612   0.000002  -0.000000   0.002769   0.006675  -0.035626
    14  O    0.000002   8.276888   0.234092  -0.000000   0.000000   0.000000
    15  H   -0.000000   0.234092   0.372383   0.000000  -0.000000  -0.000000
    16  O    0.002769  -0.000000   0.000000   8.293573   0.234207   0.001462
    17  H    0.006675   0.000000  -0.000000   0.234207   0.378871  -0.000080
    18  O   -0.035626   0.000000  -0.000000   0.001462  -0.000080   8.371571
    19  H   -0.003090   0.000000  -0.000000  -0.000085  -0.000011   0.203066
    20  O    0.002499  -0.023732   0.000895  -0.000048  -0.000010   0.000470
    21  H    0.000042   0.057910  -0.001934   0.000004   0.000000  -0.000117
    22  H    0.000205   0.000000  -0.000000   0.002748  -0.000251   0.005384
    23  O   -0.000078   0.000000  -0.000000   0.002513  -0.000374  -0.000001
    24  O    0.000002   0.000000  -0.000000  -0.008593   0.000593  -0.000000
    25  H   -0.000001   0.000000  -0.000000   0.002224  -0.000167  -0.000001
    26  H    0.000025   0.000045  -0.000007   0.000222   0.000008   0.000007
    27  H   -0.000008  -0.000000   0.000000   0.026865  -0.000989  -0.000001
    28  O    0.000820  -0.000000   0.000000   0.000000  -0.000000  -0.026295
    29  H    0.000058   0.000022  -0.000006  -0.000001  -0.000000   0.004059
    30  H    0.000141   0.000000  -0.000000  -0.000000  -0.000000   0.001384
              19         20         21         22         23         24
     1  H    0.000001   0.004028   0.000103  -0.000020  -0.000035   0.002033
     2  C    0.000047  -0.023758  -0.012519   0.001893   0.001435   0.001605
     3  C   -0.020247  -0.041967   0.004181   0.008784   0.002994  -0.000059
     4  C   -0.000066   0.000067  -0.000007   0.373394   0.426706   0.017193
     5  C    0.004179   0.002671  -0.000177  -0.114562  -0.054251  -0.002245
     6  O   -0.000004   0.001236   0.000039  -0.017260  -0.039158  -0.072437
     7  C   -0.000994   0.196656  -0.018082  -0.002572   0.000093  -0.000094
     8  H   -0.000065  -0.000062   0.000005   0.003170  -0.001608  -0.000054
     9  H    0.000456  -0.040056  -0.000780   0.002570   0.000002   0.000001
    10  C   -0.000002   0.001599  -0.003837  -0.000139  -0.000042  -0.000098
    11  H    0.000000  -0.000224   0.000897   0.000005   0.000004  -0.000042
    12  H    0.000000   0.000179   0.000027   0.000005  -0.000002   0.000006
    13  H   -0.003090   0.002499   0.000042   0.000205  -0.000078   0.000002
    14  O    0.000000  -0.023732   0.057910   0.000000   0.000000   0.000000
    15  H   -0.000000   0.000895  -0.001934  -0.000000  -0.000000  -0.000000
    16  O   -0.000085  -0.000048   0.000004   0.002748   0.002513  -0.008593
    17  H   -0.000011  -0.000010   0.000000  -0.000251  -0.000374   0.000593
    18  O    0.203066   0.000470  -0.000117   0.005384  -0.000001  -0.000000
    19  H    0.321606   0.001127  -0.000040   0.000037   0.000002  -0.000000
    20  O    0.001127   8.357383   0.216165   0.000002  -0.000000   0.000000
    21  H   -0.000040   0.216165   0.323621  -0.000002  -0.000000  -0.000000
    22  H    0.000037   0.000002  -0.000002   0.635726  -0.043207  -0.000272
    23  O    0.000002  -0.000000  -0.000000  -0.043207   8.211611  -0.058717
    24  O   -0.000000   0.000000  -0.000000  -0.000272  -0.058717   8.386343
    25  H    0.000000  -0.000000  -0.000000   0.002313   0.083068   0.195487
    26  H   -0.000000  -0.000032   0.000002   0.001139   0.007791   0.122771
    27  H    0.000000  -0.000000  -0.000000   0.000085   0.003595   0.232730
    28  O    0.077842  -0.023727   0.000406   0.000001  -0.000000   0.000000
    29  H   -0.008749   0.059847  -0.000872  -0.000001   0.000000  -0.000000
    30  H   -0.004001   0.001138  -0.000016  -0.000000  -0.000000  -0.000000
              25         26         27         28         29         30
     1  H   -0.000208  -0.002023   0.000075   0.000000  -0.000022   0.000000
     2  C    0.000080  -0.003827   0.000210   0.000004   0.000642  -0.000004
     3  C    0.000168  -0.000281   0.000203   0.004141  -0.000419   0.000504
     4  C   -0.016101  -0.006916  -0.001101  -0.000000  -0.000002  -0.000000
     5  C   -0.003050   0.000284  -0.001814   0.000079   0.000032   0.000012
     6  O    0.006473   0.140086   0.004617   0.000000  -0.000007  -0.000000
     7  C    0.000028   0.003147   0.000013   0.001670  -0.005104  -0.000385
     8  H    0.000049  -0.000181   0.000184   0.000001  -0.000004  -0.000000
     9  H   -0.000000  -0.000066   0.000001   0.000423  -0.001188  -0.000011
    10  C   -0.000009  -0.002864  -0.000001  -0.000002  -0.000013   0.000000
    11  H    0.000005   0.001889   0.000006  -0.000000   0.000001   0.000000
    12  H   -0.000001  -0.000092  -0.000001   0.000000  -0.000006   0.000000
    13  H   -0.000001   0.000025  -0.000008   0.000820   0.000058   0.000141
    14  O    0.000000   0.000045  -0.000000  -0.000000   0.000022   0.000000
    15  H   -0.000000  -0.000007   0.000000   0.000000  -0.000006  -0.000000
    16  O    0.002224   0.000222   0.026865   0.000000  -0.000001  -0.000000
    17  H   -0.000167   0.000008  -0.000989  -0.000000  -0.000000  -0.000000
    18  O   -0.000001   0.000007  -0.000001  -0.026295   0.004059   0.001384
    19  H    0.000000  -0.000000   0.000000   0.077842  -0.008749  -0.004001
    20  O   -0.000000  -0.000032  -0.000000  -0.023727   0.059847   0.001138
    21  H   -0.000000   0.000002  -0.000000   0.000406  -0.000872  -0.000016
    22  H    0.002313   0.001139   0.000085   0.000001  -0.000001  -0.000000
    23  O    0.083068   0.007791   0.003595  -0.000000   0.000000  -0.000000
    24  O    0.195487   0.122771   0.232730   0.000000  -0.000000  -0.000000
    25  H    0.315768  -0.016566  -0.012748  -0.000000   0.000000   0.000000
    26  H   -0.016566   0.306734  -0.010763  -0.000000   0.000000  -0.000000
    27  H   -0.012748  -0.010763   0.347134  -0.000000   0.000000   0.000000
    28  O   -0.000000  -0.000000  -0.000000   8.323041   0.209192   0.240166
    29  H    0.000000   0.000000   0.000000   0.209192   0.328120  -0.015113
    30  H    0.000000  -0.000000   0.000000   0.240166  -0.015113   0.382178
 Mulliken charges:
               1
     1  H    0.149652
     2  C    0.100768
     3  C    0.120247
     4  C    0.309281
     5  C    0.061911
     6  O   -0.651987
     7  C    0.107595
     8  H    0.170202
     9  H    0.140809
    10  C   -0.056347
    11  H    0.154588
    12  H    0.146884
    13  H    0.108402
    14  O   -0.638297
    15  H    0.412961
    16  O   -0.650482
    17  H    0.406419
    18  O   -0.676712
    19  H    0.428990
    20  O   -0.692345
    21  H    0.434981
    22  H    0.140827
    23  O   -0.542341
    24  O   -0.816151
    25  H    0.443191
    26  H    0.459467
    27  H    0.411707
    28  O   -0.807761
    29  H    0.429532
    30  H    0.394009
 Sum of Mulliken charges =  -0.00000
 Mulliken charges with hydrogens summed into heavy atoms:
               1
     2  C    0.250421
     3  C    0.228649
     4  C    0.450107
     5  C    0.232113
     6  O   -0.192521
     7  C    0.248404
    10  C    0.245126
    14  O   -0.225336
    16  O   -0.244063
    18  O   -0.247722
    20  O   -0.257364
    23  O   -0.542341
    24  O    0.038747
    28  O    0.015780
 Electronic spatial extent (au):  <R**2>=           3216.8105
 Charge=             -0.0000 electrons
 Dipole moment (field-independent basis, Debye):
    X=              3.5501    Y=              2.8116    Z=              3.2632  Tot=              5.5818
 Quadrupole moment (field-independent basis, Debye-Ang):
   XX=            -96.1013   YY=            -72.7373   ZZ=            -80.1136
   XY=              6.5830   XZ=             -1.6463   YZ=            -12.8301
 Traceless Quadrupole moment (field-independent basis, Debye-Ang):
   XX=            -13.1172   YY=             10.2468   ZZ=              2.8705
   XY=              6.5830   XZ=             -1.6463   YZ=            -12.8301
 Octapole moment (field-independent basis, Debye-Ang**2):
  XXX=             63.7897  YYY=             59.1476  ZZZ=             20.7903  XYY=             27.4012
  XXY=              1.9522  XXZ=             41.0870  XZZ=             -0.9190  YZZ=             -7.9206
  YYZ=              4.0514  XYZ=            -12.1903
 Hexadecapole moment (field-independent basis, Debye-Ang**3):
 XXXX=          -2172.2522 YYYY=          -1118.9130 ZZZZ=           -292.6391 XXXY=             12.6751
 XXXZ=             86.8076 YYYX=             93.9578 YYYZ=            -88.4087 ZZZX=            -35.2144
 ZZZY=            -26.4978 XXYY=           -518.1349 XXZZ=           -391.4840 YYZZ=           -266.7147
 XXYZ=            -84.9078 YYXZ=             -7.8941 ZZXY=             -1.9129
 N-N= 1.111068960397D+03 E-N=-4.194737775877D+03  KE= 8.330079531848D+02
 Calling FoFJK, ICntrl=      2127 FMM=F ISym2X=0 I1Cent= 0 IOpClX= 0 NMat=1 NMatS=1 NMatT=0.
 ***** Axes restored to original set *****
 -------------------------------------------------------------------
 Center     Atomic                   Forces (Hartrees/Bohr)
 Number     Number              X              Y              Z
 -------------------------------------------------------------------
      1        1           0.000116486    0.000227449    0.000135812
      2        6           0.002512618    0.003948090    0.002008187
      3        6          -0.000961557    0.000537099   -0.000718165
      4        6          -0.002186924   -0.019057230   -0.005337672
      5        6          -0.000430773   -0.003114417    0.000438905
      6        8           0.008119215    0.011861474   -0.003410577
      7        6          -0.000772594    0.001069582    0.000323952
      8        1           0.000414205   -0.000302782    0.000661079
      9        1          -0.000153407    0.000137922    0.000003760
     10        6           0.002136794    0.002251677    0.001340095
     11        1           0.000135942    0.000149397    0.000084404
     12        1           0.000061930    0.000050321    0.000089251
     13        1          -0.000109450    0.000030780   -0.000038276
     14        8           0.002155338    0.001879026    0.000109316
     15        1           0.000163779    0.000141079    0.000111363
     16        8          -0.000208241    0.000283514   -0.001111600
     17        1          -0.000057481    0.000039779   -0.000025296
     18        8           0.000053730    0.000488869   -0.000157797
     19        1           0.000000146    0.000044530    0.000035175
     20        8          -0.000399667   -0.000064391   -0.000312791
     21        1           0.000007171   -0.000008104   -0.000051862
     22        1           0.000133586   -0.000604731   -0.000202740
     23        8           0.001575232   -0.010397500   -0.007070146
     24        8          -0.012067756    0.010226766    0.014537140
     25        1          -0.001847501   -0.000238716   -0.000470466
     26        1           0.001554999    0.000569260   -0.001057571
     27        1           0.000011259   -0.000050356    0.000058481
     28        8           0.000008575   -0.000076543    0.000025421
     29        1          -0.000004435   -0.000008928    0.000021826
     30        1           0.000038782   -0.000012915   -0.000019207
 -------------------------------------------------------------------
 Cartesian Forces:  Max     0.019057230 RMS     0.003810631

 GradGradGradGradGradGradGradGradGradGradGradGradGradGradGradGradGradGrad
 Berny optimization.
 FormGI is forming the generalized inverse of G from B-inverse, IUseBI=4.
 Internal  Forces:  Max     0.021047576 RMS     0.004767432
 Search for a local minimum.
 Step number   1 out of a maximum of  167
 All quantities printed in internal units (Hartrees-Bohrs-Radians)
 Mixed Optimization -- RFO/linear search
 Second derivative matrix not updated -- first step.
 ITU=  0
     Eigenvalues ---    0.00372   0.00397   0.00415   0.00430   0.00553
     Eigenvalues ---    0.00706   0.00768   0.00995   0.01243   0.01273
     Eigenvalues ---    0.01498   0.01866   0.02202   0.02573   0.02824
     Eigenvalues ---    0.03744   0.04015   0.04360   0.04523   0.04708
     Eigenvalues ---    0.04805   0.05228   0.05288   0.05449   0.06070
     Eigenvalues ---    0.06124   0.06407   0.06826   0.07119   0.07919
     Eigenvalues ---    0.07980   0.08398   0.08952   0.09548   0.09690
     Eigenvalues ---    0.09948   0.10866   0.11045   0.11946   0.12480
     Eigenvalues ---    0.13678   0.14437   0.15202   0.15687   0.16000
     Eigenvalues ---    0.16000   0.16064   0.17263   0.18278   0.18512
     Eigenvalues ---    0.18935   0.20379   0.20556   0.21270   0.21997
     Eigenvalues ---    0.22024   0.22991   0.26267   0.27473   0.28320
     Eigenvalues ---    0.28908   0.29621   0.33153   0.33437   0.33562
     Eigenvalues ---    0.33613   0.33788   0.33906   0.33944   0.38716
     Eigenvalues ---    0.40431   0.40756   0.41198   0.42262   0.42597
     Eigenvalues ---    0.47390   0.48615   0.49436   0.51303   0.52703
     Eigenvalues ---    0.53545   0.53550   0.53595   0.85157
 RFO step:  Lambda=-2.96635561D-02 EMin= 3.72036602D-03
 Linear search not attempted -- first point.
 Maximum step size (   0.300) exceeded in Quadratic search.
    -- Step size scaled by   0.975
 Iteration  1 RMS(Cart)=  0.15308595 RMS(Int)=  0.00787606
 Iteration  2 RMS(Cart)=  0.01418497 RMS(Int)=  0.00157354
 Iteration  3 RMS(Cart)=  0.00020218 RMS(Int)=  0.00156715
 Iteration  4 RMS(Cart)=  0.00000093 RMS(Int)=  0.00156715
 Variable       Old X    -DE/DX   Delta X   Delta X   Delta X     New X
                                 (Linear)    (Quad)   (Total)
    R1        2.07425   0.00013   0.00000   0.00033   0.00033   2.07458
    R2        2.67503   0.00066   0.00000   0.00437   0.00554   2.68056
    R3        2.91326   0.00532   0.00000   0.01449   0.01414   2.92740
    R4        2.88726   0.00448   0.00000   0.01341   0.01341   2.90067
    R5        2.91226   0.00544   0.00000   0.01637   0.01672   2.92898
    R6        2.92266   0.01235   0.00000   0.04151   0.04281   2.96547
    R7        2.08784  -0.00007   0.00000  -0.00019  -0.00019   2.08765
    R8        2.66823  -0.00038   0.00000   0.00085   0.00096   2.66919
    R9        2.89268   0.00023   0.00000  -0.00476  -0.00683   2.88585
   R10        2.08290   0.00025   0.00000   0.00068   0.00068   2.08358
   R11        2.34046  -0.00013   0.00000  -0.00049  -0.00037   2.34008
   R12        2.07988   0.00023   0.00000   0.00061   0.00061   2.08049
   R13        2.70539  -0.00071   0.00000  -0.00159  -0.00159   2.70380
   R14        1.95451   0.00946   0.00000   0.01775   0.01641   1.97093
   R15        2.08075  -0.00003   0.00000  -0.00009  -0.00009   2.08066
   R16        2.71530  -0.00066   0.00000   0.00123   0.00139   2.71669
   R17        2.07489  -0.00000   0.00000  -0.00000  -0.00000   2.07489
   R18        2.07690  -0.00008   0.00000  -0.00021  -0.00021   2.07668
   R19        2.70972   0.00268   0.00000   0.00601   0.00601   2.71573
   R20        1.83103   0.00012   0.00000   0.00021   0.00021   1.83123
   R21        1.83143  -0.00006   0.00000  -0.00010  -0.00010   1.83133
   R22        1.86569  -0.00009   0.00000  -0.00159  -0.00174   1.86395
   R23        3.42024  -0.00009   0.00000  -0.01210  -0.01229   3.40795
   R24        1.85273   0.00000   0.00000   0.00000   0.00000   1.85273
   R25        3.41666   0.00001   0.00000  -0.00253  -0.00259   3.41407
   R26        2.97583   0.01858   0.00000   0.15843   0.15965   3.13548
   R27        1.88585   0.02105   0.00000   0.04365   0.04454   1.93039
   R28        2.76771   0.01446   0.00000   0.08688   0.08564   2.85335
   R29        1.83932   0.00008   0.00000   0.00013   0.00013   1.83945
   R30        1.86111  -0.00007   0.00000  -0.00139  -0.00154   1.85958
   R31        1.83149   0.00000   0.00000   0.00000   0.00000   1.83149
    A1        1.94323   0.00069   0.00000   0.01437   0.01574   1.95897
    A2        1.90186  -0.00127   0.00000  -0.00787  -0.00835   1.89351
    A3        1.92280  -0.00139   0.00000  -0.00728  -0.00772   1.91508
    A4        1.90280  -0.00422   0.00000  -0.01392  -0.01534   1.88746
    A5        1.82433   0.00372   0.00000   0.01357   0.01280   1.83714
    A6        1.96839   0.00263   0.00000   0.00228   0.00400   1.97239
    A7        1.99234   0.01226   0.00000   0.08531   0.08589   2.07822
    A8        1.86851  -0.00060   0.00000  -0.02345  -0.02386   1.84465
    A9        1.85117  -0.00807   0.00000  -0.02708  -0.02820   1.82296
   A10        1.85170  -0.00772   0.00000  -0.05083  -0.04922   1.80248
   A11        1.95422   0.00220   0.00000   0.01506   0.01347   1.96769
   A12        1.94579   0.00217   0.00000   0.00047  -0.00005   1.94574
   A13        1.95838  -0.00401   0.00000   0.00244   0.00124   1.95962
   A14        2.14289   0.00567   0.00000   0.01465   0.01509   2.15798
   A15        2.08994   0.00050   0.00000   0.01852   0.01631   2.10626
   A16        1.98872   0.00324   0.00000   0.03255   0.03281   2.02153
   A17        1.84865   0.00337   0.00000   0.00989   0.00995   1.85861
   A18        1.95281  -0.00563   0.00000  -0.01806  -0.01807   1.93474
   A19        1.82036  -0.00520   0.00000  -0.02915  -0.02824   1.79212
   A20        1.92248   0.00361   0.00000   0.00554   0.00438   1.92687
   A21        1.92425   0.00061   0.00000  -0.00207  -0.00212   1.92213
   A22        1.96688   0.01126   0.00000   0.05993   0.06223   2.02911
   A23        1.99530   0.00617   0.00000   0.05190   0.05062   2.04592
   A24        1.88170   0.00138   0.00000   0.00570   0.00317   1.88486
   A25        1.92438  -0.00583   0.00000  -0.04346  -0.04142   1.88296
   A26        1.87025  -0.00060   0.00000   0.01488   0.01515   1.88540
   A27        1.86955  -0.00156   0.00000  -0.02304  -0.02311   1.84644
   A28        1.92173   0.00051   0.00000  -0.00548  -0.00559   1.91614
   A29        1.90001  -0.00045   0.00000  -0.00077  -0.00077   1.89923
   A30        1.89360  -0.00059   0.00000  -0.00224  -0.00223   1.89137
   A31        1.90481   0.00252   0.00000   0.01030   0.01030   1.91511
   A32        1.88858   0.00023   0.00000  -0.00073  -0.00074   1.88784
   A33        1.93266  -0.00079   0.00000  -0.00234  -0.00235   1.93031
   A34        1.94331  -0.00094   0.00000  -0.00430  -0.00430   1.93901
   A35        1.89800   0.00037   0.00000   0.00190   0.00190   1.89990
   A36        1.87538   0.00007   0.00000   0.00036   0.00036   1.87575
   A37        1.88920  -0.00029   0.00000   0.01546   0.01578   1.90497
   A38        2.87939   0.00041   0.00000   0.00486   0.00487   2.88426
   A39        1.87074  -0.00057   0.00000  -0.00788  -0.00782   1.86291
   A40        1.89064  -0.00032   0.00000   0.01878   0.01903   1.90967
   A41        2.13004  -0.00037   0.00000  -0.00867  -0.00892   2.12112
   A42        1.92260  -0.00789   0.00000   0.00306   0.00420   1.92680
   A43        1.57130   0.01266   0.00000   0.12472   0.12280   1.69410
   A44        1.76270  -0.00399   0.00000  -0.01408  -0.01328   1.74942
   A45        1.75614  -0.00081   0.00000   0.00077  -0.00257   1.75357
   A46        2.56638   0.01371   0.00000   0.09285   0.09379   2.66017
   A47        2.76910  -0.00415   0.00000   0.01197   0.00647   2.77557
   A48        1.57212   0.00077   0.00000  -0.00643  -0.00681   1.56531
   A49        1.88984  -0.00088   0.00000  -0.00208  -0.00200   1.88784
   A50        1.82470  -0.00036   0.00000  -0.00079  -0.00052   1.82418
   A51        2.72132   0.00136   0.00000   0.00347   0.00340   2.72472
    D1        0.33771  -0.00361   0.00000  -0.07146  -0.07306   0.26465
    D2        2.43653  -0.00752   0.00000  -0.08133  -0.08375   2.35277
    D3       -1.73785  -0.00451   0.00000  -0.07817  -0.07985  -1.81771
    D4        1.07020  -0.00353   0.00000  -0.07836  -0.07980   0.99040
    D5       -3.13553   0.00048   0.00000  -0.02356  -0.02435   3.12330
    D6       -1.03709  -0.00147   0.00000  -0.05224  -0.05267  -1.08976
    D7       -1.05391  -0.00099   0.00000  -0.08252  -0.08457  -1.13848
    D8        1.02355   0.00303   0.00000  -0.02772  -0.02913   0.99442
    D9        3.12199   0.00107   0.00000  -0.05639  -0.05744   3.06454
   D10       -3.07203  -0.00444   0.00000  -0.09179  -0.09293   3.11823
   D11       -0.99457  -0.00043   0.00000  -0.03698  -0.03749  -1.03206
   D12        1.10387  -0.00238   0.00000  -0.06566  -0.06580   1.03806
   D13       -1.07630  -0.00111   0.00000  -0.01022  -0.01045  -1.08676
   D14       -3.12786  -0.00080   0.00000  -0.00767  -0.00790  -3.13576
   D15        1.03498  -0.00081   0.00000  -0.00729  -0.00752   1.02746
   D16        1.01305   0.00113   0.00000   0.01080   0.01154   1.02460
   D17       -1.03851   0.00143   0.00000   0.01335   0.01410  -1.02441
   D18        3.12433   0.00142   0.00000   0.01372   0.01448   3.13881
   D19        3.07768  -0.00029   0.00000   0.00361   0.00308   3.08076
   D20        1.02612   0.00002   0.00000   0.00616   0.00564   1.03176
   D21       -1.09422   0.00001   0.00000   0.00654   0.00602  -1.08821
   D22        0.75573   0.00900   0.00000   0.13788   0.13588   0.89161
   D23        2.74644   0.00645   0.00000   0.12537   0.12487   2.87131
   D24       -1.43946   0.00615   0.00000   0.11891   0.11832  -1.32114
   D25        2.79934   0.00610   0.00000   0.10848   0.10653   2.90587
   D26       -1.49314   0.00354   0.00000   0.09596   0.09552  -1.39761
   D27        0.60415   0.00324   0.00000   0.08950   0.08898   0.69312
   D28       -1.40435   0.00419   0.00000   0.08342   0.08169  -1.32266
   D29        0.58636   0.00164   0.00000   0.07091   0.07068   0.65704
   D30        2.68364   0.00133   0.00000   0.06444   0.06414   2.74777
   D31        0.47284   0.00646   0.00000   0.03702   0.03385   0.50670
   D32       -1.61106   0.00139   0.00000  -0.01205  -0.01487  -1.62593
   D33        2.61028   0.00190   0.00000  -0.00146  -0.00408   2.60621
   D34       -1.58043   0.00539   0.00000   0.05148   0.05058  -1.52985
   D35        2.61885   0.00033   0.00000   0.00241   0.00186   2.62071
   D36        0.55701   0.00084   0.00000   0.01300   0.01265   0.56966
   D37        2.57637   0.00647   0.00000   0.07525   0.07461   2.65098
   D38        0.49247   0.00140   0.00000   0.02617   0.02589   0.51836
   D39       -1.56937   0.00192   0.00000   0.03677   0.03668  -1.53269
   D40       -3.09695   0.00738   0.00000   0.06758   0.06778  -3.02917
   D41        1.00249  -0.00374   0.00000  -0.02994  -0.02960   0.97289
   D42       -1.06900   0.00311   0.00000   0.02417   0.02381  -1.04519
   D43        0.56326   0.00459   0.00000   0.07125   0.07044   0.63370
   D44       -1.44419   0.00213   0.00000   0.06126   0.06024  -1.38395
   D45        2.77435   0.00254   0.00000   0.07713   0.07604   2.85039
   D46       -3.02879   0.00941   0.00000   0.15762   0.15826  -2.87053
   D47        1.24695   0.00695   0.00000   0.14762   0.14805   1.39501
   D48       -0.81769   0.00736   0.00000   0.16350   0.16385  -0.65384
   D49        1.18348   0.00403   0.00000  -0.01943  -0.02420   1.15928
   D50       -2.44090   0.00825   0.00000   0.06915   0.06696  -2.37394
   D51       -1.21444   0.00057   0.00000   0.01105   0.01080  -1.20364
   D52        2.83769  -0.00223   0.00000  -0.02255  -0.02218   2.81552
   D53        0.83808   0.00163   0.00000   0.01072   0.01060   0.84868
   D54       -2.20701   0.01114   0.00000   0.16473   0.16204  -2.04497
   D55       -0.71066   0.00150   0.00000   0.02179   0.02228  -0.68839
   D56       -3.03943   0.00263   0.00000   0.02496   0.02561  -3.01382
   D57       -2.89168  -0.00142   0.00000   0.00031   0.00043  -2.89125
   D58        1.06274  -0.00029   0.00000   0.00349   0.00377   1.06651
   D59        1.36350  -0.00010   0.00000  -0.00159  -0.00187   1.36163
   D60       -0.96527   0.00103   0.00000   0.00159   0.00147  -0.96380
   D61        2.99039  -0.00005   0.00000  -0.00033  -0.00033   2.99006
   D62       -1.20156   0.00050   0.00000   0.00383   0.00382  -1.19774
   D63        0.90049  -0.00037   0.00000  -0.00155  -0.00154   0.89895
   D64       -0.09074   0.00219   0.00000   0.02148   0.02082  -0.06991
   D65       -0.23810   0.00052   0.00000   0.00825   0.00780  -0.23030
   D66        1.60088   0.00032   0.00000   0.00501   0.00476   1.60563
   D67       -0.47207  -0.00177   0.00000  -0.01610  -0.01588  -0.48794
   D68       -2.65485  -0.00033   0.00000  -0.01608  -0.01587  -2.67073
   D69        0.38924  -0.00227   0.00000  -0.04460  -0.05472   0.33452
   D70        0.17452   0.00085   0.00000   0.03040   0.02308   0.19759
   D71       -1.58522  -0.00068   0.00000   0.00545   0.00200  -1.58323
   D72       -0.32805   0.00554   0.00000   0.07160   0.06878  -0.25927
   D73        1.43814   0.00386   0.00000   0.08115   0.07983   1.51797
   D74        0.09735  -0.00162   0.00000  -0.01419  -0.01412   0.08324
   D75       -1.80381  -0.00088   0.00000  -0.01019  -0.01014  -1.81395
         Item               Value     Threshold  Converged?
 Maximum Force            0.021048     0.000450     NO 
 RMS     Force            0.004767     0.000300     NO 
 Maximum Displacement     0.938740     0.001800     NO 
 RMS     Displacement     0.156025     0.001200     NO 
 Predicted change in Energy=-2.054105D-02
 GradGradGradGradGradGradGradGradGradGradGradGradGradGradGradGradGradGrad

                          Input orientation:                          
 ---------------------------------------------------------------------
 Center     Atomic      Atomic             Coordinates (Angstroms)
 Number     Number       Type             X           Y           Z
 ---------------------------------------------------------------------
      1          1           0       -0.252675    1.371591    1.174840
      2          6           0       -0.047756    1.354658    0.096449
      3          6           0        0.648879   -1.208320    0.275938
      4          6           0       -1.661912   -1.378016   -0.919109
      5          6           0       -0.838138   -1.640824    0.339639
      6          8           0       -1.209056    1.068797   -0.666301
      7          6           0        0.999888    0.249351   -0.187261
      8          1           0       -0.841408   -2.739795    0.405539
      9          1           0        1.185109    0.226721   -1.272370
     10          6           0        0.407294    2.745661   -0.366343
     11          1           0       -0.406668    3.461276   -0.190480
     12          1           0        0.600118    2.705011   -1.447464
     13          1           0        1.013573   -1.237990    1.318319
     14          8           0        1.587506    3.134966    0.355323
     15          1           0        1.942180    3.946167   -0.038643
     16          8           0       -1.483936   -1.076920    1.485116
     17          1           0       -1.110446   -1.505356    2.270038
     18          8           0        1.270035   -2.197905   -0.517772
     19          1           0        2.244760   -2.046860   -0.519003
     20          8           0        2.209791    0.599447    0.505769
     21          1           0        2.316711    1.569750    0.414628
     22          1           0       -1.076074   -1.528363   -1.841000
     23          8           0       -2.899716   -1.401298   -0.946226
     24          8           0       -3.445534    0.745483    0.430184
     25          1           0       -3.521482   -0.158130   -0.040153
     26          1           0       -2.121249    1.155552   -0.168141
     27          1           0       -3.158382    0.456685    1.314287
     28          8           0        3.909223   -1.397072   -0.274821
     29          1           0        3.525503   -0.544649    0.032556
     30          1           0        4.276752   -1.800847    0.525932
 ---------------------------------------------------------------------
                    Distance matrix (angstroms):
                    1          2          3          4          5
     1  H    0.000000
     2  C    1.097819   0.000000
     3  C    2.876936   2.662024   0.000000
     4  C    3.732413   3.332321   2.607046   0.000000
     5  C    3.180404   3.107532   1.549947   1.527127   0.000000
     6  O    2.096700   1.418493   3.086260   2.501177   2.914025
     7  C    2.164176   1.549113   1.569257   3.204544   2.688629
     8  H    4.223970   4.182101   2.140833   2.069386   1.100950
     9  H    3.060520   2.160060   2.178105   3.287172   3.190583
    10  C    2.167688   1.534970   4.013085   4.646705   4.614190
    11  H    2.500919   2.156150   4.810078   5.052255   5.147680
    12  H    3.062963   2.151014   4.276290   4.697558   4.914122
    13  H    2.904115   3.056339   1.104735   3.490546   2.132821
    14  O    2.677193   2.431171   4.444261   5.705252   5.356506
    15  H    3.594214   3.270170   5.323563   6.489347   6.252018
    16  O    2.758166   3.146996   2.455255   2.429533   1.430790
    17  H    3.195630   3.746129   2.675797   3.238980   1.954212
    18  O    4.233778   3.838560   1.412476   3.070766   2.343051
    19  H    4.559835   4.147859   1.970258   3.983657   3.225894
    20  O    2.666009   2.415451   2.399435   4.575011   3.786329
    21  H    2.686808   2.395455   3.243234   5.128120   4.501830
    22  H    4.264153   3.622562   2.749421   1.102584   2.196462
    23  O    4.381171   4.100749   3.758118   1.238320   2.441500
    24  O    3.337794   3.468050   4.539312   3.084014   3.535699
    25  H    3.808064   3.791301   4.312160   2.391378   3.089167
    26  H    2.311242   2.099768   3.668611   2.682146   3.118321
    27  H    3.049530   3.459116   4.283182   3.254782   3.276128
    28  O    5.204652   4.833998   3.311918   5.608298   4.793163
    29  H    4.387643   4.047175   2.962205   5.339423   4.509685
    30  H    5.567868   5.370571   3.684433   6.126553   5.120782
                    6          7          8          9         10
     6  O    0.000000
     7  C    2.404247   0.000000
     8  H    3.973585   3.560446   0.000000
     9  H    2.609298   1.101036   3.965144   0.000000
    10  C    2.348283   2.571925   5.678493   2.787640   0.000000
    11  H    2.567915   3.506404   6.244799   3.763852   1.097983
    12  H    2.561352   2.788941   5.929379   2.552410   1.098934
    13  H    3.768297   2.116398   2.555297   2.981018   4.367508
    14  O    3.624021   2.994405   6.357276   3.356962   1.437101
    15  H    4.313178   3.817912   7.255877   3.991180   1.975975
    16  O    3.050943   3.274939   2.084102   4.053025   4.649384
    17  H    3.906159   3.683860   2.252239   4.562709   5.227349
    18  O    4.103571   2.484206   2.367349   2.540756   5.020567
    19  H    4.653801   2.632935   3.295355   2.619083   5.134963
    20  O    3.644524   1.437610   4.524423   2.085828   2.935270
    21  H    3.721612   1.959527   5.342843   2.435202   2.374564
    22  H    2.853566   3.194485   2.563117   2.918322   4.758389
    23  O    3.006336   4.302044   2.802762   4.409377   5.335713
    24  O    2.511702   4.515436   4.350774   4.960912   4.413553
    25  H    2.691602   4.542077   3.747857   4.880416   4.896292
    26  H    1.042970   3.250087   4.140148   3.607499   2.993536
    27  H    2.845573   4.425929   4.051132   5.060592   4.558286
    28  O    5.694782   3.344040   4.983401   3.324546   5.425322
    29  H    5.050511   2.656593   4.901805   2.788421   4.550658
    30  H    6.304789   3.930623   5.204967   4.111348   6.036522
                   11         12         13         14         15
    11  H    0.000000
    12  H    1.779203   0.000000
    13  H    5.135821   4.834021   0.000000
    14  O    2.093109   2.099961   4.514366   0.000000
    15  H    2.403177   2.307894   5.438671   0.969046   0.000000
    16  O    4.956142   5.219800   2.508250   5.333870   6.268295
    17  H    5.587207   5.871375   2.342800   5.698917   6.660903
    18  O    5.911411   5.035048   2.087687   5.413187   6.199271
    19  H    6.121892   5.113431   2.354961   5.296013   6.019857
    20  O    3.939630   3.292350   2.338236   2.615096   3.401255
    21  H    3.370581   2.775410   3.224628   1.727762   2.448079
    22  H    5.298001   4.570114   3.798978   5.802165   6.506060
    23  O    5.516435   5.418657   4.524231   6.512056   7.270697
    24  O    4.122555   4.871613   4.960502   5.571958   6.284237
    25  H    4.777527   5.212071   4.855746   6.091193   6.833510
    26  H    2.873439   3.382799   4.214939   4.236385   4.931102
    27  H    4.343250   5.177698   4.503016   5.533195   6.326345
    28  O    6.499043   5.399292   3.308804   5.130967   5.698705
    29  H    5.617752   4.616127   2.905804   4.171280   4.762291
    30  H    7.080791   6.141229   3.404853   5.623469   6.228735
                   16         17         18         19         20
    16  O    0.000000
    17  H    0.969101   0.000000
    18  O    3.585042   3.730710   0.000000
    19  H    4.342862   4.396519   0.986359   0.000000
    20  O    4.172883   4.308923   3.123452   2.838014   0.000000
    21  H    4.753496   4.964295   4.019965   3.735868   0.980421
    22  H    3.381301   4.111246   2.775508   3.611710   4.564187
    23  O    2.832151   3.681939   4.266729   5.202393   5.676119
    24  O    2.877828   3.728803   5.639037   6.409179   5.657715
    25  H    2.705958   3.600708   5.229478   6.086554   5.806845
    26  H    2.850150   3.747915   4.782125   5.425918   4.418294
    27  H    2.277037   2.992843   5.478519   6.230781   5.430596
    28  O    5.682080   5.628952   2.768694   1.803410   2.735594
    29  H    5.242873   5.236535   2.850131   2.049673   1.806650
    30  H    5.884695   5.670196   3.207385   2.298130   3.167672
                   21         22         23         24         25
    21  H    0.000000
    22  H    5.118314   0.000000
    23  O    6.155498   2.035297   0.000000
    24  O    5.820921   3.992867   2.607890   0.000000
    25  H    6.105480   3.331757   1.659225   1.021519   0.000000
    26  H    4.495183   3.330802   2.783686   1.509927   1.924264
    27  H    5.659059   4.269924   2.937504   0.973395   1.531125
    28  O    3.437072   5.227172   6.841962   7.692854   7.536937
    29  H    2.465327   5.064821   6.555554   7.100556   7.057951
    30  H    3.900650   5.859126   7.336796   8.131830   7.989457
                   26         27         28         29         30
    26  H    0.000000
    27  H    1.939498   0.000000
    28  O    6.549340   7.477481   0.000000
    29  H    5.900574   6.878940   0.984046   0.000000
    30  H    7.082122   7.810197   0.969184   1.544612   0.000000
 Stoichiometry    C6H16O8
 Framework group  C1[X(C6H16O8)]
 Deg. of freedom    84
 Full point group                 C1      NOp   1
[...]
 00007097,-0.00000081,-0.00003436,0.00600346,-0.00223667,0.00337666,0.0
 0153599,-0.00151768,-0.00095230,0.00108777,0.00041625,-0.00027145,-0.0
 0039674,-0.00021266,0.00001442,-0.00027115,0.00089080,-0.00002013,0.00
 026901,-0.00035608,-0.00003341,0.00097822,0.00076045,-0.00052124,0.006
 83239,-0.00625146,-0.00396785,-0.04438529,0.46393391,0.00068542,0.0002
 1600,0.00130586,-0.00224537,-0.00150817,-0.00567112,-0.00008112,0.0007
 9153,0.00015395,-0.00421186,0.00104844,-0.00227029,0.00110596,-0.00098
 224,-0.00342057,0.01752097,0.00196065,-0.00019015,0.00001839,0.0007770
 6,0.00059589,-0.00020920,0.00031862,0.00087577,-0.00024748,0.00015602,
 0.00018219,0.00009504,-0.00072296,0.00042375,-0.00001316,0.00002653,-0
 .00007854,-0.00012881,-0.00013972,0.00012225,0.00023383,-0.00004436,0.
 00024174,0.00068098,0.00081518,0.00036180,0.00010233,-0.00000974,0.000
 00586,-0.00501947,0.00385056,0.00375548,0.00004874,0.00018582,0.000292
 78,-0.00033777,-0.00036931,0.00035634,-0.00009059,0.00014514,0.0000204
 9,0.00122296,-0.00048733,0.00036682,-0.00022170,-0.00008979,-0.0001192
 1,0.00040597,0.00047224,0.00025959,0.00424335,-0.00540040,0.00003216,0
 .25200242,0.03310025,0.43414752,0.00028456,-0.00001017,0.00025704,-0.0
 0077967,-0.00033705,-0.00114055,-0.00053601,0.00011654,0.00008020,-0.0
 0510678,0.00111246,-0.00050459,-0.00021222,-0.00034629,-0.00011681,0.0
 0151049,0.00171304,0.00145870,-0.00024143,-0.00006267,0.00008062,0.000
 15490,0.00005414,0.00039697,-0.00004907,0.00005309,0.00002526,0.000036
 89,-0.00033658,0.00015919,-0.00002199,0.00005234,0.00000083,-0.0000056
 8,-0.00001958,0.00000512,0.00014790,0.00001016,0.00005983,0.00023663,0
 .00041444,0.00010204,0.00003435,-0.00001639,-0.00000105,-0.00042407,0.
 00068237,0.00111791,0.00043071,-0.00015381,-0.00019053,0.00049252,-0.0
 0014542,-0.00005200,-0.00031872,-0.00000867,0.00002261,0.00059328,0.00
 014983,0.00012432,-0.00004931,-0.00016575,-0.00004139,0.00057412,0.000
 78682,-0.00017970,0.00247178,-0.00363553,-0.00035074,-0.07772298,-0.07
 918041,-0.11734293,0.09185523,0.00002874,0.00000853,0.00002747,-0.0003
 0339,-0.00018299,-0.00043511,0.00046570,0.00020735,-0.00020157,0.00576
 210,0.00082729,0.00232844,-0.00033223,0.00092045,0.00035755,0.00199577
 ,-0.00080398,0.00014089,0.00007553,0.00040648,0.00014265,-0.00006777,-
 0.00021980,-0.00038699,0.00000845,-0.00001698,-0.00001482,-0.00008971,
 -0.00004049,-0.00005687,0.00001802,-0.00008154,-0.00002403,-0.00000501
 ,0.00000732,0.00000320,-0.00019157,-0.00007776,-0.00005008,0.00019310,
 -0.00004378,0.00005688,-0.00001816,0.00000905,0.00001139,0.00066434,-0
 .00152639,-0.00116102,-0.00006113,0.00003875,0.00011104,-0.00033273,-0
 .00017295,-0.00004393,0.00021725,0.00006529,-0.00004238,0.00003874,-0.
 00041030,-0.00004725,-0.00010754,0.00016283,0.00002271,-0.00123457,-0.
 00048844,0.00020711,-0.00519713,-0.00020888,-0.00193522,-0.11344340,-0
 .22067576,-0.21237739,0.10205903,0.20792790,-0.00028639,-0.00001967,-0
 .00017574,-0.00012500,-0.00004370,0.00011978,0.00014552,-0.00003090,-0
 .00017367,0.00288393,0.00016555,0.00111155,-0.00114430,0.00063889,0.00
 093927,0.00157140,-0.00072297,-0.00230508,-0.00000455,0.00003262,-0.00
 000776,0.00000366,-0.00016916,-0.00021764,0.00006236,-0.00002165,-0.00
 002639,-0.00007484,0.00000744,-0.00003127,0.00000104,-0.00004036,0.000
 03441,0.00005343,0.00001960,-0.00003432,-0.00013120,-0.00003179,-0.000
 07970,0.00001402,-0.00005016,-0.00004019,-0.00001432,0.00000216,0.0000
 1590,0.00124817,-0.00037695,-0.00012752,0.00015202,-0.00021247,-0.0000
 2844,0.00007541,-0.00003885,-0.00013931,0.00002952,-0.00001062,-0.0000
 0910,-0.00001884,-0.00005397,-0.00004682,-0.00002186,0.00002526,0.0000
 2686,-0.00003461,-0.00004537,-0.00010789,-0.00170965,-0.00067819,-0.00
 350176,-0.12692303,-0.16286626,-0.24436283,0.14021148,0.18809651,0.268
 49275,0.00401530,0.00088162,0.00302755,-0.03117518,0.00168482,0.006141
 37,0.00009473,0.00176014,-0.00025368,0.00598959,0.00406869,0.00069345,
 0.00077619,0.00063892,-0.00215633,-0.29127408,0.02601684,0.13804905,-0
 .00268701,-0.00063623,-0.00173645,-0.00029857,-0.00015726,0.00047396,-
 0.00005609,-0.00003396,0.00022834,-0.00128215,-0.00162387,-0.00028820,
 -0.00000726,-0.00029181,0.00013948,0.00008074,0.00002895,0.00001778,-0
 .00001488,-0.00025531,0.00023203,0.00185647,0.00156554,0.00078119,0.00
 020557,-0.00004780,-0.00003549,-0.00304775,0.00050299,0.00119231,-0.00
 003607,0.00037769,-0.00023452,-0.00010620,-0.00123405,0.00009904,-0.00
 027575,0.00028042,-0.00003061,0.00178187,-0.00052619,0.00053871,-0.000
 53517,0.00017677,0.00003685,-0.00046727,-0.00044955,0.00054103,-0.0056
 5557,0.00122339,0.00042399,0.00444484,0.00425702,-0.01151830,-0.005357
 88,-0.00503902,-0.00075171,0.31761348,-0.00001924,0.00139940,-0.000696
 62,-0.00918950,-0.00374837,0.00387610,0.00082384,0.00061266,-0.0002769
 2,0.00469033,-0.00220858,-0.00156513,0.00132840,-0.00123631,-0.0007377
 8,0.04140327,-0.01820142,-0.03440425,0.00201160,0.00026626,0.00060124,
 -0.00024297,0.00004128,-0.00013431,-0.00014433,0.00017960,0.00038670,-
 0.00399877,0.00115181,-0.00125970,0.00012267,-0.00122795,-0.00016250,0
 .00023695,0.00013420,-0.00020871,-0.00009894,-0.00010378,0.00008840,0.
 00019112,-0.00162167,0.00002516,-0.00031829,-0.00018103,-0.00021223,-0
 .00043066,0.00004287,-0.00004455,-0.00014840,0.00060220,0.00015689,-0.
 00066094,-0.00040473,0.00023696,0.00022754,0.00019274,-0.00003983,0.00
 143390,-0.00085410,0.00048224,-0.00012458,-0.00003960,-0.00002557,-0.0
 0028939,-0.00036066,0.00050478,-0.00224348,0.00186270,0.00051490,0.005
 01131,-0.00801972,-0.00332515,-0.00543418,-0.00148432,0.00150235,-0.02
 959589,0.03476232,-0.00173338,-0.00009684,-0.00074543,-0.02940038,0.00
 483337,0.01371986,-0.00036073,-0.00094857,0.00015199,-0.00032129,-0.00
 182080,0.00048664,-0.00146674,0.00103572,0.00230977,0.18390825,-0.0332
 3931,-0.15009603,-0.00242707,-0.00327949,-0.00373802,0.00024748,-0.000
 14481,-0.00041588,0.00023380,-0.00018716,0.00023221,-0.00056803,0.0016
 1717,-0.00171939,0.00015335,-0.00009274,0.00026120,0.00012812,0.000118
 06,0.00001728,-0.00008874,0.00007968,-0.00017818,-0.00098720,-0.001365
 28,-0.00021114,-0.00016792,-0.00009126,-0.00012147,0.00162098,-0.00125
 112,-0.00113403,0.00008965,-0.00040742,-0.00003989,0.00043158,0.000628
 31,-0.00020264,-0.00004151,-0.00022745,-0.00001027,-0.00359705,0.00179
 608,-0.00032754,0.00058360,0.00030442,0.00017216,0.00014962,0.00012095
 ,-0.00031443,0.00120919,0.00003241,-0.00090245,-0.00917710,-0.00198849
 ,-0.00816951,-0.00330331,-0.00055214,0.00532253,-0.13958728,0.03019306
 ,0.15127156,-0.00043550,-0.00052082,-0.00060086,-0.00050900,-0.0002500
 1,0.00152955,-0.00073088,-0.00035682,-0.00024801,0.00299037,0.00033938
 ,0.00263563,-0.00275966,0.00150638,0.00567300,-0.00303633,0.00144489,-
 0.00051671,-0.00048204,-0.00044493,-0.00008971,0.00076090,-0.00089847,
 -0.00122601,0.00013854,-0.00001591,-0.00012276,0.00007125,-0.00037636,
 -0.00030221,-0.00002873,0.00014958,0.00002565,0.00008209,0.00016341,-0
 .00007010,-0.00016244,-0.00003757,-0.00017342,-0.00002412,0.00027237,0
 .00003490,0.00000368,-0.00004159,-0.00003257,-0.00273374,0.00117391,-0
 .00277266,0.00197879,-0.00176139,-0.00163678,0.00131747,-0.00012605,-0
 .00058413,-0.00047008,-0.00011696,-0.00003829,0.00038267,0.00046187,-0
 .00002195,0.00001024,-0.00025865,-0.00000110,-0.00039176,-0.00011291,-
 0.00041242,-0.00321263,0.00123254,0.00014747,-0.12213015,0.11514743,-0
 .13658320,-0.00805291,0.01501248,-0.01519767,0.00567086,-0.00432864,0.
 00418830,0.13160362,-0.00031964,0.00021008,-0.00017741,-0.00127966,-0.
 00016112,-0.00007180,0.00056672,0.00110757,0.00050955,0.00034804,0.000
 76017,-0.00176045,0.00127672,-0.00197339,-0.00451602,0.00286772,-0.000
 49642,-0.00149165,-0.00000413,0.00079637,-0.00025384,-0.00033213,0.000
 27633,0.00047222,0.00004924,-0.00014534,0.00004716,-0.00017361,-0.0001
 4564,-0.00007157,0.00002933,-0.00018753,0.00006334,0.00007470,0.000029
 51,-0.00004046,0.00008447,-0.00000546,0.00012094,0.00038319,-0.0000335
 2,0.00003398,-0.00002395,0.00000983,0.00003427,0.00110893,-0.00277716,
 0.00182149,-0.00172884,0.00128778,0.00148423,-0.00133212,-0.00031434,0
 .00046265,0.00036996,0.00023356,0.00004316,0.00011044,-0.00071437,-0.0
 0000316,-0.00021718,0.00029119,0.00005170,-0.00008745,0.00002215,0.000
 52560,0.00006592,-0.00079228,0.00141611,0.14691930,-0.22963426,0.18151
 633,-0.01742152,0.01586236,-0.02507880,-0.00375115,-0.00159891,0.00509
 204,-0.12734010,0.21811088,-0.00003465,-0.00009062,-0.00025937,0.00186
 160,0.00056805,0.00170520,0.00013722,-0.00056505,-0.00032648,0.0042254
 9,-0.00124890,0.00042736,0.00043253,-0.00003608,0.00307513,-0.00333359
 ,-0.00123945,0.00110931,0.00020711,-0.00019559,0.00002658,0.00021757,-
 0.00031141,-0.00074218,0.00005622,-0.00001005,-0.00008745,0.00008558,0
 .00029086,-0.00009746,0.00001067,0.00002737,0.00000331,0.00000962,0.00
 002649,-0.00003882,-0.00018631,0.00000431,-0.00012607,-0.00033555,-0.0
 0034154,-0.00018001,-0.00003826,0.00000687,0.00000166,0.00069305,-0.00
 036315,-0.00810622,-0.00169768,0.00131993,0.00003645,0.00028313,0.0001
 6986,-0.00022767,0.00006479,-0.00007628,-0.00003355,-0.00048292,0.0001
 2318,-0.00018488,0.00009054,0.00002563,0.00005605,-0.00049870,-0.00030
 261,0.00000862,-0.00285999,0.00255674,0.00148567,-0.12841901,0.1296261
 7,-0.17923520,-0.02088396,0.02581648,-0.02464865,0.00395450,0.00449198
 ,-0.00555161,0.14639362,-0.16024019,0.21191378,-0.00003908,0.00002565,
 0.00001724,0.00077395,-0.00049037,-0.00028372,0.00292579,-0.00670120,-
 0.00464330,0.00151653,-0.00025064,0.00102216,0.00080828,0.00072810,-0.
 00047387,-0.00083864,0.00059688,-0.00012684,0.00129904,0.00053181,0.00
 141588,0.00028190,0.00022411,-0.00008328,-0.00012646,-0.00021743,-0.00
 018251,-0.00035288,-0.00032921,0.00020849,-0.00000883,0.00025343,-0.00
 003859,0.00005562,-0.00001608,-0.00006175,0.00005503,0.00059102,0.0008
 0222,0.00016100,0.00134775,0.00014596,-0.00037009,0.00009114,-0.000061
 04,-0.00206755,0.00048064,0.00108772,0.00031152,0.00011275,-0.00044677
 ,-0.02357865,-0.00308922,0.00037039,0.00354731,0.00415362,0.00438657,-
 0.00261413,0.01262312,0.00333721,-0.00289585,-0.00181079,0.00045379,0.
 00015770,-0.00002699,0.00025740,-0.00154297,0.00021176,-0.00040437,-0.
 00068649,0.00029181,0.00017384,0.00033648,-0.00016641,-0.00001218,0.00
 046350,-0.00011354,-0.00019424,0.00047949,-0.00030100,-0.00009388,0.18
 746139,-0.00000927,-0.00008386,-0.00006263,0.00001627,0.00139052,0.000
 56681,0.00114363,-0.00481150,-0.00225001,0.00031250,-0.00048329,0.0000
 7967,0.00000248,0.00059458,0.00015511,0.00186892,0.00016565,0.00006574
 ,-0.00502776,-0.00419048,-0.00328697,0.00041142,0.00030325,-0.00007280
 ,0.00043152,0.00026651,0.00054600,-0.00099507,0.00015327,-0.00045456,0
 .00018828,-0.00003010,0.00004106,0.00000533,0.00005689,0.00002083,-0.0
 0003210,0.00017810,0.00048274,0.00093753,-0.00119148,0.00006710,0.0001
 1906,0.00004078,0.00012571,-0.00068371,0.00048495,0.00040296,-0.000020
 69,-0.00013064,-0.00006933,-0.01010905,0.00605737,-0.00005169,0.006397
 87,-0.00972560,0.00438147,0.01500204,-0.00970265,-0.00284023,0.0020425
 3,0.00253377,-0.00034439,0.00004158,-0.00004216,0.00009853,-0.00020929
 ,0.00024685,-0.00001648,0.00031564,0.00026545,-0.00020897,-0.00003399,
 -0.00010679,-0.00000802,-0.00046626,-0.00025831,0.00044655,0.00004165,
 -0.00021848,0.00008702,-0.22721571,0.45640511,-0.00009155,0.00004105,0
 .00001283,0.00006170,0.00052394,0.00044595,-0.00074387,-0.00052612,-0.
 00106810,0.00003887,-0.00004839,-0.00048914,-0.00018218,0.00009482,0.0
 0046398,0.00060316,-0.00013100,0.00008893,-0.00056071,-0.00160300,-0.0
 0195820,0.00005151,0.00007768,0.00001216,0.00056293,-0.00011719,0.0005
 4220,-0.00022449,0.00004362,-0.00032258,0.00004160,-0.00003125,0.00005
 473,0.00000695,-0.00001226,0.00008942,-0.00038213,0.00011923,0.0007667
 0,0.00024330,-0.00053053,0.00015827,0.00012131,-0.00006519,-0.00004228
 ,0.00000995,0.00007643,0.00006758,-0.00011095,-0.00003488,0.00001565,-
 0.00212822,-0.00055407,0.00495678,0.00146912,0.00166028,-0.00847394,0.
 00262851,-0.00416595,0.00422373,0.00143024,0.00074400,-0.00008933,-0.0
 0002014,0.00001049,0.00004190,0.00014305,0.00000933,0.00020588,0.00014
 467,-0.00000111,-0.00002338,-0.00004688,0.00000289,-0.00001718,-0.0001
 0856,-0.00002522,0.00011693,-0.00007061,0.00001105,0.00000543,0.128441
 25,-0.02436869,0.44971275,0.00004438,-0.00011907,-0.00005145,-0.000594
 53,0.00119383,0.00043042,-0.00061525,-0.00186414,0.00020209,-0.0004921
 1,-0.00024670,-0.00058921,-0.00049483,0.00031254,0.00061679,0.00194937
 ,-0.00020542,0.00014876,-0.00856182,-0.00214063,-0.00268921,0.00026706
 ,0.00021958,-0.00001297,0.00070109,0.00048959,0.00055732,-0.00047635,0
 .00042981,-0.00054835,0.00011504,-0.00019510,0.00005979,-0.00003165,0.
 00005470,0.00007659,-0.00013394,-0.00009719,0.00021572,0.00047458,-0.0
 0207815,-0.00005709,0.00048664,-0.00014405,0.00012153,0.00039415,0.000
 15171,-0.00021185,-0.00019190,-0.00014407,0.00017302,-0.00274597,0.002
 54849,0.00025414,0.00428855,-0.00740025,-0.00118411,-0.00425304,-0.004
 51450,-0.00056759,0.00485005,0.00366726,-0.00057984,-0.00003719,-0.000
 00591,-0.00001909,0.00063899,0.00005897,0.00024858,0.00062013,0.000041
 81,-0.00025919,-0.00020807,0.00001260,-0.00000179,-0.00062364,-0.00012
 861,0.00044278,-0.00022471,-0.00000850,0.00012435,-0.07603961,0.128351
 21,0.01882620,0.08771529,0.00006333,0.00004551,0.00008323,-0.00018284,
 -0.00182025,-0.00103097,-0.00304306,0.00407606,0.00133373,-0.00010123,
 0.00053557,-0.00001144,0.00009227,-0.00039874,0.00011920,-0.00235063,0
 .00002811,-0.00008248,0.00588260,0.00652115,0.00562006,-0.00036104,-0.
 00030366,0.00006525,-0.00084947,-0.00025022,-0.00108771,0.00096200,-0.
 00028355,0.00051773,-0.00018945,0.00008017,-0.00004831,0.00001416,-0.0
 0005530,-0.00002399,0.00009143,-0.00011242,-0.00009970,-0.00092551,0.0
 0116310,0.00003999,-0.00013671,-0.00008896,-0.00014998,0.00040845,-0.0
 0044797,-0.00027345,0.00002425,0.00011863,0.00001612,0.00658382,-0.000
 99585,-0.00065210,-0.00988457,-0.00585100,-0.00248885,-0.00850886,-0.0
 0624328,-0.00096072,0.00013145,-0.00389804,-0.00100249,-0.00005049,0.0
 0002800,-0.00007274,0.00008018,-0.00024572,-0.00000006,-0.00042927,-0.
 00023983,0.00025348,0.00007866,0.00009039,0.00000943,0.00055528,0.0002
 7591,-0.00055126,0.00001396,0.00018734,-0.00010712,0.14328814,-0.33586
 614,-0.08004391,-0.13568627,0.35753451,0.00010509,-0.00002927,0.000005
 17,-0.00025383,-0.00094278,-0.00076475,-0.00028463,0.00082453,0.001195
 95,-0.00002295,0.00007144,0.00038032,0.00008423,-0.00001847,-0.0003318
 3,-0.00090287,0.00020905,-0.00005002,-0.00019039,0.00348208,0.00287864
 ,-0.00006752,-0.00007723,0.00001420,-0.00090916,0.00004598,-0.00071393
 ,0.00025928,-0.00010285,0.00038779,-0.00003709,0.00003387,-0.00007519,
 -0.00001362,0.00002677,-0.00011858,0.00024256,0.00009435,-0.00056485,-
 0.00025235,0.00062721,-0.00019439,-0.00015694,0.00010901,0.00006860,-0
 .00003255,-0.00008420,-0.00004986,0.00008477,0.00004774,-0.00001962,0.
 00120621,0.00004922,-0.00115266,-0.00142537,-0.00182789,0.00137938,0.0
 0195673,-0.00273459,-0.00745696,-0.00178659,-0.00072530,-0.00003621,0.
 00000310,-0.00000887,-0.00005591,-0.00011065,-0.00002254,-0.00015981,-
 0.00016072,-0.00001700,0.00004869,0.00004566,0.00000456,0.00001384,0.0
 0011923,0.00006080,-0.00018945,0.00005886,0.00000377,-0.00001467,0.043
 44735,-0.13292447,-0.08869178,-0.02296109,0.09098573,0.08634183,-0.000
 01118,0.00001112,0.00000358,-0.00013095,0.00012854,0.00008599,-0.00065
 819,0.00057110,-0.00030551,-0.00021655,0.00006925,-0.00035287,-0.00017
 019,-0.00005410,0.00040728,0.00017968,-0.00013780,0.00003919,-0.000057
 26,-0.00008798,-0.00036381,-0.00004488,-0.00000193,0.00001160,0.000066
 82,-0.00005811,0.00013810,0.00007397,0.00006154,-0.00003064,0.00000315
 ,-0.00004983,0.00000501,-0.00001317,0.00000165,0.00001200,-0.00019496,
 0.00006050,0.00032942,-0.00001893,-0.00022826,-0.00003681,0.00006160,-
 0.00000064,0.00001514,0.00027166,-0.00005566,-0.00014060,-0.00010893,-
 0.00001103,0.00007187,-0.00015455,-0.00165136,0.00162988,-0.00123023,0
 .00284286,-0.00504585,-0.00006898,-0.00020603,0.00076149,0.00015195,0.
 00032051,0.00027225,-0.00003283,0.00000864,-0.00001369,0.00031942,-0.0
 0005522,0.00014749,0.00014605,-0.00006666,-0.00003005,-0.00007304,0.00
 003790,0.,-0.00009260,0.00002940,0.00003525,-0.00010530,0.00006630,0.0
 0001690,-0.08947329,0.08717346,-0.15015402,-0.00682072,0.00442942,-0.0
 1804475,0.09840246,-0.00000523,0.00001873,0.00000662,0.00007792,-0.000
 12402,-0.00000357,-0.00000689,0.00000080,0.00001718,0.00007321,0.00003
 844,0.00005288,0.00005110,0.00009187,-0.00004272,-0.00023777,-0.000034
 10,-0.00002279,0.00026145,0.00036078,0.00012118,-0.00003394,-0.0000249
 8,0.00000778,-0.00011130,-0.00001591,-0.00001296,0.00011944,0.00001934
 ,0.00008516,-0.00002886,0.00001229,-0.00001125,-0.00000398,-0.00000822
 ,-0.00001334,0.00000133,0.00007410,-0.00002315,-0.00018308,0.00006591,
 -0.00004356,0.00002843,-0.00003067,0.00000072,-0.00011469,-0.00005420,
 0.00003592,0.00003176,0.00005868,-0.00002333,-0.00169474,-0.00133696,0
 .00089281,0.00201649,0.00284244,-0.00255591,0.00009294,-0.00071658,-0.
 00180557,0.00021659,-0.00015052,-0.00004880,0.00000989,0.00000989,0.00
 000745,-0.00009471,-0.00002212,-0.00002571,-0.00008275,-0.00002204,0.0
 0003167,0.00002508,0.00000716,0.00000005,0.00008928,0.00002552,-0.0000
 5367,0.00002731,0.00001310,-0.00001289,0.07517687,-0.10230156,0.108843
 94,0.01744648,-0.01358352,0.04283933,-0.09314762,0.11478636,0.00000525
 ,0.00000084,-0.00000731,-0.00000754,0.00000701,0.00003743,-0.00000455,
 0.00018232,0.00051450,0.00000008,-0.00000425,0.00007444,-0.00001842,0.
 00003122,-0.00005288,-0.00000604,-0.00000103,-0.00001643,-0.00014561,-
 0.00009716,-0.00015905,0.00000307,-0.00000748,0.00000555,-0.00001970,0
 .00003505,0.00000528,0.00000619,0.00000327,0.00000961,-0.00000293,0.00
 000108,0.00000074,-0.00000067,-0.00000114,-0.00000643,0.00001986,-0.00
 003449,-0.00017296,0.00000168,-0.00001297,-0.00002483,-0.00000472,-0.0
 0000288,0.00001063,0.00001170,-0.00002695,-0.00004088,0.00003146,0.000
 00834,0.00001067,0.00122253,0.00007396,-0.00004697,-0.00138033,-0.0002
 5195,-0.00084390,0.00097685,-0.00064764,-0.00083962,0.00001272,-0.0000
 4447,0.00000437,0.00000323,0.00000217,-0.00001505,-0.00002920,0.000000
 06,-0.00003600,-0.00001683,0.00000364,-0.00000810,0.00000667,-0.000000
 97,0.00000437,0.00001124,-0.00000309,0.00000523,0.00001420,-0.00000427
 ,0.00000576,-0.17846110,0.15939192,-0.36080590,0.00723476,-0.01035668,
 0.00792607,0.17053613,-0.14824347,0.35446165\\-0.00000169,0.00001125,-
 0.00000430,-0.00000156,-0.00001507,-0.00000735,0.00004524,-0.00003598,
 -0.00001658,0.00001477,-0.00001761,0.00002930,-0.00001684,0.00002121,-
 0.00000771,-0.00000087,0.00001468,-0.00000134,-0.00003267,0.00000089,0
 .00000386,0.00000222,-0.00000474,0.00000924,0.00000121,-0.00000677,-0.
 00000117,0.00000475,0.00000462,-0.00001373,-0.00000321,-0.00000456,-0.
 00001415,-0.00000078,-0.00000204,-0.00001216,-0.00000407,0.00000569,0.
 00001216,-0.00000209,0.00000281,-0.00001219,-0.00000318,0.00000331,-0.
 00001873,0.00000505,-0.00000181,0.00000440,0.00000302,0.00001227,0.000
 00608,-0.00001746,0.00004141,0.00002618,0.00002280,-0.00001213,0.00001
 333,0.00001432,-0.00000553,0.00000174,-0.00000264,0.00000146,0.0000011
 8,0.00000213,-0.00000890,0.00000366,-0.00001152,0.00000635,0.00000396,
 0.00001379,0.00000290,0.00000020,-0.00001649,-0.00001205,-0.00000760,0
 .00000841,-0.00002416,-0.00001181,-0.00000965,0.00000304,0.00000243,0.
 00000750,-0.00000580,0.00002153,-0.00001638,0.00002146,-0.00002202,-0.
 00000413,0.00000376,0.00001159\\\@


 What some people mistake for the high cost
 of living is really the cost of living high.
                              -- Doug Larson
 Job cpu time:       0 days  0 hours 33 minutes  4.0 seconds.
 File lengths (MBytes):  RWF=    221 Int=      0 D2E=      0 Chk=      6 Scr=      1
 Normal termination of Gaussian 09 at Sun Jan 15 22:39:59 2017.
