 Entering Gaussian System, Link 0=g09
 Initial command:
 /global/software/gaussian/g09.e01/l1.exe "/scratch/10501394.yak.local/Gau-19248.inp" -scrdir="/scratch/10501394.yak.local/"
 Entering Link 1 = /global/software/gaussian/g09.e01/l1.exe PID=     19249.
  
 Copyright (c) 1988,1990,1992,1993,1995,1998,2003,2009,2015,
            Gaussian, Inc.  All Rights Reserved.
  
 This is part of the Gaussian(R) 09 program.  It is based on
 the Gaussian(R) 03 system (copyright 2003, Gaussian, Inc.),
 the Gaussian(R) 98 system (copyright 1998, Gaussian, Inc.),
 the Gaussian(R) 94 system (copyright 1995, Gaussian, Inc.),
 the Gaussian 92(TM) system (copyright 1992, Gaussian, Inc.),
 the Gaussian 90(TM) system (copyright 1990, Gaussian, Inc.),
 the Gaussian 88(TM) system (copyright 1988, Gaussian, Inc.),
 the Gaussian 86(TM) system (copyright 1986, Carnegie Mellon
 University), and the Gaussian 82(TM) system (copyright 1983,
 Carnegie Mellon University). Gaussian is a federally registered
 trademark of Gaussian, Inc.
  
 This software contains proprietary and confidential information,
 including trade secrets, belonging to Gaussian, Inc.
  
 This software is provided under written license and may be
 used, copied, transmitted, or stored only in accord with that
 written license.
  
 The following legend is applicable only to US Government
 contracts under FAR:
  
                    RESTRICTED RIGHTS LEGEND
  
 Use, reproduction and disclosure by the US Government is
 subject to restrictions as set forth in subparagraphs (a)
 and (c) of the Commercial Computer Software - Restricted
 Rights clause in FAR 52.227-19.
  
 Gaussian, Inc.
 340 Quinnipiac St., Bldg. 40, Wallingford CT 06492
  
  
 ---------------------------------------------------------------
 Warning -- This program may not be used in any manner that
 competes with the business of Gaussian, Inc. or will provide
 assistance to any competitor of Gaussian, Inc.  The licensee
 of this program is prohibited from giving any competitor of
 Gaussian, Inc. access to this program.  By using this program,
 the user acknowledges that Gaussian, Inc. is engaged in the
 business of creating and licensing software in the field of
 computational chemistry and represents and warrants to the
 licensee that it is not a competitor of Gaussian, Inc. and that
 it will not use this program in any manner prohibited above.
 ---------------------------------------------------------------
  

 Cite this work as:
 Gaussian 09, Revision E.01,
 M. J. Frisch, G. W. Trucks, H. B. Schlegel, G. E. Scuseria, 
 M. A. Robb, J. R. Cheeseman, G. Scalmani, V. Barone, B. Mennucci, 
 G. A. Petersson, H. Nakatsuji, M. Caricato, X. Li, H. P. Hratchian, 
 A. F. Izmaylov, J. Bloino, G. Zheng, J. L. Sonnenberg, M. Hada, 
 M. Ehara, K. Toyota, R. Fukuda, J. Hasegawa, M. Ishida, T. Nakajima, 
 Y. Honda, O. Kitao, H. Nakai, T. Vreven, J. A. Montgomery, Jr., 
 J. E. Peralta, F. Ogliaro, M. Bearpark, J. J. Heyd, E. Brothers, 
 K. N. Kudin, V. N. Staroverov, T. Keith, R. Kobayashi, J. Normand, 
 K. Raghavachari, A. Rendell, J. C. Burant, S. S. Iyengar, J. Tomasi, 
 M. Cossi, N. Rega, J. M. Millam, M. Klene, J. E. Knox, J. B. Cross, 
 V. Bakken, C. Adamo, J. Jaramillo, R. Gomperts, R. E. Stratmann, 
 O. Yazyev, A. J. Austin, R. Cammi, C. Pomelli, J. W. Ochterski, 
 R. L. Martin, K. Morokuma, V. G. Zakrzewski, G. A. Voth, 
 P. Salvador, J. J. Dannenberg, S. Dapprich, A. D. Daniels, 
 O. Farkas, J. B. Foresman, J. V. Ortiz, J. Cioslowski, 
 and D. J. Fox, Gaussian, Inc., Wallingford CT, 2013.
 
 ******************************************
 Gaussian 09:  ES64L-G09RevE.01 30-Nov-2015
                31-Jan-2017 
 ******************************************
 %NPROCS=4
 Will use up to    4 processors via shared memory.
 ----------------------------------------------------------------------
 # opt=(calcfc,ts,noeigentest,maxcycle=1000,cartesian) b3lyp 6-31g(d) f
 req
 ----------------------------------------------------------------------
 1/5=1,6=1000,10=4,11=1,14=-1,18=10,26=3,38=1/1,3;
 2/12=2,17=6,18=5,29=2,40=1/2;
 3/5=1,6=6,7=1,11=2,16=1,25=1,30=1,71=2,74=-5,140=1/1,2,3;
 4//1;
 5/5=2,38=5/2;
 8/6=4,10=90,11=11/1;
 11/6=1,8=1,9=11,15=111,16=1/1,2,10;
 10/6=1,13=1/2;
 6/7=2,8=2,9=2,10=2,28=1/1;
 7/7=1,10=1,18=20,25=1/1,2,3,16;
 1/5=1,6=1000,10=4,11=1,14=-1,18=10,26=3/3(2);
 2/29=1/2;
 99/12=1/99;
 2/29=1/2;
 3/5=1,6=6,7=1,11=2,16=1,25=1,30=1,71=1,74=-5/1,2,3;
 4/5=5,16=3,69=1/1;
 5/5=2,38=5/2;
 7/7=1/1,2,3,16;
 1/5=1,6=1000,11=1,14=-1,18=10,26=3/3(-5);
 2/29=1/2;
 6/7=2,8=2,9=2,10=2,19=2,28=1/1;
 99/9=1,12=1/99;
 ------------------------------------------
 ./1/glo_1w_beta_boat1_b3lyp_631Gd_iopt.out
 ------------------------------------------
 Symbolic Z-matrix:
 Charge =  0 Multiplicity = 1
 H                    -1.93219   1.83274   0.43415 
 C                    -1.1165    1.18448   0.08357 
 C                     1.23098   0.41118   0.73483 
 C                    -0.66653  -1.26408   0.26582 
 C                     0.79185  -0.87347   0.00627 
 O                    -1.59121  -0.14071   0.28595 
 C                     0.11847   1.46056   0.94701 
 H                    -0.75177  -1.7198    1.26069 
 H                     0.87969  -0.69768  -1.07515 
 H                     0.5022    2.45626   0.67499 
 C                    -0.92521   1.53414  -1.39966 
 H                    -1.77215   1.11183  -1.95998 
 H                    -0.0012    1.0999   -1.80144 
 O                    -1.04696  -2.14108  -0.73922 
 H                    -1.95224  -2.44767  -0.51347 
 H                     1.59139   0.11961   1.72782 
 O                    -0.89562   2.95787  -1.47232 
 H                    -0.63521   3.20736  -2.37122 
 O                     1.58891  -1.9706    0.39589 
 H                     2.40553  -1.94093  -0.14987 
 O                     2.3181    0.9565   -0.04642 
 H                     2.69347   1.70289   0.44764 
 O                    -0.20015   1.3961    2.33503 
 H                    -1.01381   1.90291   2.4845 
 O                    -3.73585  -1.95835   0.01079 
 H                    -3.30118  -1.10121   0.19439 
 H                    -4.15839  -1.82623  -0.85194 
 O                     3.90368  -1.19222  -0.93949 
 H                     3.52987  -0.31852  -0.69414 
 H                     4.59052  -1.35837  -0.27572 
 

 GradGradGradGradGradGradGradGradGradGradGradGradGradGradGradGradGradGrad
 Berny optimization.
 Initialization pass.
 No Z-matrix variables, so optimization will use Cartesian coordinates.
 Trust Radius=3.00D-01 FncErr=1.00D-07 GrdErr=1.00D-06
 Number of steps in this run=    180 maximum allowed number of steps=    180.
 Search for a saddle point of order  1.
 GradGradGradGradGradGradGradGradGradGradGradGradGradGradGradGradGradGrad

 ---------------------------------------------------------------------------------------------------
                            Z-MATRIX (ANGSTROMS AND DEGREES)
   CD    Cent   Atom    N1       Length/X        N2       Alpha/Y        N3        Beta/Z          J
 ---------------------------------------------------------------------------------------------------
      1      1  H        0  -1.932190          1.832740          0.434150
      2      2  C        0  -1.116500          1.184480          0.083570
      3      3  C        0   1.230980          0.411180          0.734830
      4      4  C        0  -0.666530         -1.264080          0.265820
      5      5  C        0   0.791850         -0.873470          0.006270
      6      6  O        0  -1.591210         -0.140710          0.285950
      7      7  C        0   0.118470          1.460560          0.947010
      8      8  H        0  -0.751770         -1.719800          1.260690
      9      9  H        0   0.879690         -0.697680         -1.075150
     10     10  H        0   0.502200          2.456260          0.674990
     11     11  C        0  -0.925210          1.534140         -1.399660
     12     12  H        0  -1.772150          1.111830         -1.959980
     13     13  H        0  -0.001200          1.099900         -1.801440
     14     14  O        0  -1.046960         -2.141080         -0.739220
     15     15  H        0  -1.952240         -2.447670         -0.513470
     16     16  H        0   1.591390          0.119610          1.727820
     17     17  O        0  -0.895620          2.957870         -1.472320
     18     18  H        0  -0.635210          3.207360         -2.371220
     19     19  O        0   1.588910         -1.970600          0.395890
     20     20  H        0   2.405530         -1.940930         -0.149870
     21     21  O        0   2.318100          0.956500         -0.046420
     22     22  H        0   2.693470          1.702890          0.447640
     23     23  O        0  -0.200150          1.396100          2.335030
     24     24  H        0  -1.013810          1.902910          2.484500
     25     25  O        0  -3.735850         -1.958350          0.010790
     26     26  H        0  -3.301180         -1.101210          0.194390
     27     27  H        0  -4.158390         -1.826230         -0.851940
     28     28  O        0   3.903680         -1.192220         -0.939490
     29     29  H        0   3.529870         -0.318520         -0.694140
     30     30  H        0   4.590520         -1.358370         -0.275720
 ---------------------------------------------------------------------------------------------------
                         Z-Matrix orientation:                         
 ---------------------------------------------------------------------
 Center     Atomic      Atomic             Coordinates (Angstroms)
 Number     Number       Type             X           Y           Z
 ---------------------------------------------------------------------
      1          1           0       -1.932190    1.832740    0.434150
      2          6           0       -1.116500    1.184480    0.083570
      3          6           0        1.230980    0.411180    0.734830
      4          6           0       -0.666530   -1.264080    0.265820
      5          6           0        0.791850   -0.873470    0.006270
      6          8           0       -1.591210   -0.140710    0.285950
      7          6           0        0.118470    1.460560    0.947010
      8          1           0       -0.751770   -1.719800    1.260690
      9          1           0        0.879690   -0.697680   -1.075150
     10          1           0        0.502200    2.456260    0.674990
     11          6           0       -0.925210    1.534140   -1.399660
     12          1           0       -1.772150    1.111830   -1.959980
     13          1           0       -0.001200    1.099900   -1.801440
     14          8           0       -1.046960   -2.141080   -0.739220
     15          1           0       -1.952240   -2.447670   -0.513470
     16          1           0        1.591390    0.119610    1.727820
     17          8           0       -0.895620    2.957870   -1.472320
     18          1           0       -0.635210    3.207360   -2.371220
     19          8           0        1.588910   -1.970600    0.395890
     20          1           0        2.405530   -1.940930   -0.149870
     21          8           0        2.318100    0.956500   -0.046420
     22          1           0        2.693470    1.702890    0.447640
     23          8           0       -0.200150    1.396100    2.335030
     24          1           0       -1.013810    1.902910    2.484500
     25          8           0       -3.735850   -1.958350    0.010790
     26          1           0       -3.301180   -1.101210    0.194390
     27          1           0       -4.158390   -1.826230   -0.851940
     28          8           0        3.903680   -1.192220   -0.939490
     29          1           0        3.529870   -0.318520   -0.694140
     30          1           0        4.590520   -1.358370   -0.275720
 ---------------------------------------------------------------------
                    Distance matrix (angstroms):
                    1          2          3          4          5
     1  H    0.000000
     2  C    1.099317   0.000000
     3  C    3.480932   2.555933   0.000000
     4  C    3.349705   2.496224   2.574298   0.000000
     5  C    3.863554   2.807656   1.540766   1.531932   0.000000
     6  O    2.008167   1.422124   2.910469   1.455128   2.508811
     7  C    2.146334   1.531959   1.543987   2.916146   2.605020
     8  H    3.833680   3.154914   2.957854   1.097594   2.161621
     9  H    4.072798   2.978243   2.151512   2.123630   1.099130
    10  H    2.524487   2.141820   2.171878   3.921005   3.408546
    11  C    2.113298   1.535847   3.235157   3.266615   3.274373
    12  H    2.505431   2.147382   4.095327   3.438245   3.792315
    13  H    3.043623   2.191874   2.902631   3.210082   2.791224
    14  O    4.236942   3.426539   3.725032   1.387069   2.354530
    15  H    4.384096   3.774577   4.456923   1.913434   3.205973
    16  H    4.126017   3.342181   1.095873   3.024937   2.142243
    17  O    2.444386   2.369492   3.984918   4.571485   4.439927
    18  H    3.382579   3.217091   4.576990   5.191217   4.933775
    19  O    5.183146   4.167891   2.432256   2.367086   1.410958
    20  H    5.779055   4.714592   2.773929   3.173086   1.941086
    21  O    4.366201   3.444612   1.445529   3.733160   2.383486
    22  H    4.627502   3.862275   1.972275   4.486153   3.232429
    23  O    2.608440   2.439990   2.361957   3.402308   3.399726
    24  H    2.247728   2.508217   3.213360   3.882392   4.136462
    25  O    4.219572   4.091903   5.550523   3.157179   4.655862
    26  H    3.246487   3.163777   4.808313   2.640646   4.103675
    27  H    4.471919   4.380942   6.047243   3.709243   5.113624
    28  O    6.715255   5.647793   3.538017   4.727024   3.267958
    29  H    5.977881   4.944957   2.803447   4.407423   2.880156
    30  H    7.296084   6.258215   3.929253   5.285710   3.839862
                    6          7          8          9         10
     6  O    0.000000
     7  C    2.433942   0.000000
     8  H    2.036738   3.312160   0.000000
     9  H    2.875440   3.053946   3.026969   0.000000
    10  H    3.358269   1.101209   4.399428   3.626683   0.000000
    11  C    2.467784   2.569347   4.206622   2.888597   2.681786
    12  H    2.577944   3.485204   4.408176   3.330091   3.731384
    13  H    2.902489   2.774594   4.229740   2.129497   2.868071
    14  O    2.312717   4.144081   2.065007   2.430686   5.053259
    15  H    2.468092   4.657800   2.262425   3.376059   5.611171
    16  H    3.503669   2.139464   3.015301   3.005182   2.784730
    17  O    3.629953   3.020509   5.419468   4.083199   2.610834
    18  H    4.379961   3.824918   6.122194   4.384525   3.337252
    19  O    3.670660   3.773432   2.507900   2.070574   4.566829
    20  H    4.405072   4.243103   3.465129   2.174857   4.861927
    21  O    4.073947   2.465634   4.277291   2.421491   2.463170
    22  H    4.667278   2.634145   4.923976   3.372154   2.328287
    23  O    2.914715   1.425578   3.341755   4.144792   2.091164
    24  H    3.056697   1.960002   3.832806   4.797866   2.424626
    25  O    2.824714   5.236529   3.244054   4.906298   6.155567
    26  H    1.963400   4.338561   2.831809   4.387966   5.229940
    27  H    3.275085   5.686013   4.009937   5.167756   6.510940
    28  O    5.727233   4.992388   5.176132   3.067163   5.242902
    29  H    5.217054   4.182840   4.910946   2.704142   4.329054
    30  H    6.325500   5.425925   5.570570   3.853032   5.671826
                   11         12         13         14         15
    11  C    0.000000
    12  H    1.099823   0.000000
    13  H    1.097172   1.778072   0.000000
    14  O    3.736074   3.549307   3.567335   0.000000
    15  H    4.206535   3.846409   4.248609   0.982086   0.000000
    16  H    4.256207   5.088985   3.994119   4.261208   4.916464
    17  O    1.425890   2.100948   2.088147   5.153604   5.590680
    18  H    1.956449   2.419297   2.273325   5.607029   6.096324
    19  O    4.672045   5.133052   4.096911   2.874952   3.687041
    20  H    4.973119   5.481683   4.215054   3.508145   4.402176
    21  O    3.561458   4.518405   2.912012   4.625862   5.481087
    22  H    4.066428   5.107617   3.561349   5.493228   6.303452
    23  O    3.806925   4.582478   4.151831   4.762325   5.094933
    24  H    3.902632   4.577586   4.476548   5.171782   5.366192
    25  O    4.699633   4.143194   5.156033   2.797505   1.922381
    26  H    3.889897   3.446272   4.440506   2.652257   2.033140
    27  H    4.695267   3.943867   5.171655   3.129350   2.316862
    28  O    5.564438   6.210080   4.609215   5.044728   6.004119
    29  H    4.876253   5.635572   3.963141   4.926574   5.883830
    30  H    6.328754   7.030092   5.427228   5.710398   6.637078
                   16         17         18         19         20
    16  H    0.000000
    17  O    4.947912   0.000000
    18  H    5.594111   0.968545   0.000000
    19  O    2.478512   5.826913   6.278127   0.000000
    20  H    2.904198   6.053487   6.378510   0.982651   0.000000
    21  O    2.091989   4.045574   4.380994   3.048815   2.900594
    22  H    2.315214   4.259435   4.614056   3.836308   3.703694
    23  O    2.282049   4.173574   5.061495   4.277344   4.909182
    24  H    3.246504   4.096747   5.042117   5.112780   5.779870
    25  O    5.970393   5.868197   6.478619   5.338682   6.143506
    26  H    5.270583   5.004075   5.679219   4.970857   5.778424
    27  H    6.595561   5.823929   6.329142   5.882974   6.602356
    28  O    3.765916   6.367137   6.481333   2.783393   1.851626
    29  H    3.132978   5.561048   5.708968   2.772158   2.047580
    30  H    3.897868   7.082338   7.248811   3.136168   2.264817
                   21         22         23         24         25
    21  O    0.000000
    22  H    0.970616   0.000000
    23  O    3.493728   3.468342   0.000000
    24  H    4.289857   4.234706   0.970175   0.000000
    25  O    6.719370   7.411590   5.399593   5.332736   0.000000
    26  H    5.989029   6.622910   4.520540   4.416039   0.978435
    27  H    7.094883   7.816110   6.017296   5.909882   0.969690
    28  O    2.815783   3.430802   5.853486   6.744275   7.736434
    29  H    1.874461   2.467656   5.101847   5.973569   7.481755
    30  H    3.251937   3.673331   6.111762   7.047218   8.352874
                   26         27         28         29         30
    26  H    0.000000
    27  H    1.534689   0.000000
    28  O    7.294105   8.087435   0.000000
    29  H    6.932917   7.836289   0.981469   0.000000
    30  H    7.909871   8.780339   0.969508   1.543160   0.000000
 Stoichiometry    C6H16O8
 Framework group  C1[X(C6H16O8)]
 Deg. of freedom    84
 Full point group                 C1      NOp   1
 Largest Abelian subgroup         C1      NOp   1
 Largest concise Abelian subgroup C1      NOp   1
                         Standard orientation:                         
 ---------------------------------------------------------------------
 Center     Atomic      Atomic             Coordinates (Angstroms)
 Number     Number       Type             X           Y           Z
 ---------------------------------------------------------------------
      1          1           0       -1.932191    1.832739    0.434150
      2          6           0       -1.116501    1.184480    0.083570
      3          6           0        1.230979    0.411180    0.734830
      4          6           0       -0.666531   -1.264080    0.265820
      5          6           0        0.791849   -0.873470    0.006270
      6          8           0       -1.591211   -0.140711    0.285950
      7          6           0        0.118469    1.460560    0.947010
      8          1           0       -0.751770   -1.719800    1.260690
      9          1           0        0.879689   -0.697680   -1.075150
     10          1           0        0.502199    2.456260    0.674990
     11          6           0       -0.925211    1.534140   -1.399660
     12          1           0       -1.772151    1.111829   -1.959980
     13          1           0       -0.001201    1.099900   -1.801440
     14          8           0       -1.046960   -2.141080   -0.739220
     15          1           0       -1.952240   -2.447671   -0.513470
     16          1           0        1.591389    0.119610    1.727820
     17          8           0       -0.895621    2.957870   -1.472320
     18          1           0       -0.635211    3.207360   -2.371220
     19          8           0        1.588910   -1.970600    0.395890
     20          1           0        2.405530   -1.940930   -0.149870
     21          8           0        2.318099    0.956500   -0.046420
     22          1           0        2.693469    1.702890    0.447640
     23          8           0       -0.200151    1.396100    2.335030
     24          1           0       -1.013811    1.902910    2.484500
     25          8           0       -3.735850   -1.958351    0.010790
     26          1           0       -3.301181   -1.101211    0.194390
     27          1           0       -4.158390   -1.826231   -0.851940
     28          8           0        3.903679   -1.192220   -0.939490
     29          1           0        3.529869   -0.318520   -0.694140
     30          1           0        4.590519   -1.358369   -0.275720
 ---------------------------------------------------------------------
 Rotational constants (GHZ):      0.6539352      0.4904288      0.3693406
 Standard basis: 6-31G(d) (6D, 7F)
 There are   242 symmetry adapted cartesian basis functions of A   symmetry.
 There are   242 symmetry adapted basis functions of A   symmetry.
   242 basis functions,   456 primitive gaussians,   242 cartesian basis functions
    58 alpha electrons       58 beta electrons
       nuclear repulsion energy      1095.8329428904 Hartrees.
 NAtoms=   30 NActive=   30 NUniq=   30 SFac= 1.00D+00 NAtFMM=   60 NAOKFM=F Big=F
 Integral buffers will be    131072 words long.
 Raffenetti 2 integral format.
 Two-electron integral symmetry is turned on.
 One-electron integrals computed using PRISM.
 NBasis=   242 RedAO= T EigKep=  1.44D-03  NBF=   242
 NBsUse=   242 1.00D-06 EigRej= -1.00D+00 NBFU=   242
 ExpMin= 1.61D-01 ExpMax= 5.48D+03 ExpMxC= 8.25D+02 IAcc=1 IRadAn=         1 AccDes= 0.00D+00
 Harris functional with IExCor=  402 and IRadAn=       1 diagonalized for initial guess.
 HarFok:  IExCor=  402 AccDes= 0.00D+00 IRadAn=         1 IDoV= 1 UseB2=F ITyADJ=14
 ICtDFT=  3500011 ScaDFX=  1.000000  1.000000  1.000000  1.000000
 FoFCou: FMM=F IPFlag=           0 FMFlag=      100000 FMFlg1=           0
         NFxFlg=           0 DoJE=T BraDBF=F KetDBF=T FulRan=T
         wScrn=  0.000000 ICntrl=     500 IOpCl=  0 I1Cent=   200000004 NGrid=           0
         NMat0=    1 NMatS0=      1 NMatT0=    0 NMatD0=    1 NMtDS0=    0 NMtDT0=    0
 Petite list used in FoFCou.
 Requested convergence on RMS density matrix=1.00D-08 within 128 cycles.
 Requested convergence on MAX density matrix=1.00D-06.
 Requested convergence on             energy=1.00D-06.
 No special actions if energy rises.
 Integral accuracy reduced to 1.0D-05 until final iterations.
 Initial convergence to 1.0D-05 achieved.  Increase integral accuracy.
 SCF Done:  E(RB3LYP) =  -839.979457693     A.U. after   13 cycles
            NFock= 13  Conv=0.93D-08     -V/T= 2.0085
 DoSCS=F DFT=T ScalE2(SS,OS)=  1.000000  1.000000
 Range of M.O.s used for correlation:     1   242
 NBasis=   242 NAE=    58 NBE=    58 NFC=     0 NFV=     0
 NROrb=    242 NOA=    58 NOB=    58 NVA=   184 NVB=   184
 Symmetrizing basis deriv contribution to polar:
 IMax=3 JMax=2 DiffMx= 0.00D+00
 G2DrvN: will do    31 centers at a time, making    1 passes.
 Calling FoFCou, ICntrl=  3107 FMM=F I1Cent=   0 AccDes= 0.00D+00.
 End of G2Drv F.D. properties file   721 does not exist.
 End of G2Drv F.D. properties file   722 does not exist.
 End of G2Drv F.D. properties file   788 does not exist.
          IDoAtm=111111111111111111111111111111
          Differentiating once with respect to nuclear coordinates.
          There are    93 degrees of freedom in the 1st order CPHF.  IDoFFX=6 NUNeed=     0.
     87 vectors produced by pass  0 Test12= 1.15D-14 1.08D-09 XBig12= 1.19D-01 8.15D-02.
 AX will form    87 AO Fock derivatives at one time.
     87 vectors produced by pass  1 Test12= 1.15D-14 1.08D-09 XBig12= 7.00D-03 9.59D-03.
     87 vectors produced by pass  2 Test12= 1.15D-14 1.08D-09 XBig12= 8.06D-05 1.10D-03.
     87 vectors produced by pass  3 Test12= 1.15D-14 1.08D-09 XBig12= 1.61D-07 4.53D-05.
     87 vectors produced by pass  4 Test12= 1.15D-14 1.08D-09 XBig12= 1.89D-10 1.55D-06.
     67 vectors produced by pass  5 Test12= 1.15D-14 1.08D-09 XBig12= 1.62D-13 3.82D-08.
      2 vectors produced by pass  6 Test12= 1.15D-14 1.08D-09 XBig12= 1.59D-16 1.12D-09.
 InvSVY:  IOpt=1 It=  1 EMax= 6.11D-16
 Solved reduced A of dimension   504 with    93 vectors.
 End of Minotr F.D. properties file   721 does not exist.
 End of Minotr F.D. properties file   722 does not exist.
 End of Minotr F.D. properties file   788 does not exist.

 **********************************************************************

            Population analysis using the SCF density.

 **********************************************************************

 Orbital symmetries:
       Occupied  (A) (A) (A) (A) (A) (A) (A) (A) (A) (A) (A) (A)
                 (A) (A) (A) (A) (A) (A) (A) (A) (A) (A) (A) (A)
                 (A) (A) (A) (A) (A) (A) (A) (A) (A) (A) (A) (A)
                 (A) (A) (A) (A) (A) (A) (A) (A) (A) (A) (A) (A)
                 (A) (A) (A) (A) (A) (A) (A) (A) (A) (A)
       Virtual   (A) (A) (A) (A) (A) (A) (A) (A) (A) (A) (A) (A)
                 (A) (A) (A) (A) (A) (A) (A) (A) (A) (A) (A) (A)
                 (A) (A) (A) (A) (A) (A) (A) (A) (A) (A) (A) (A)
                 (A) (A) (A) (A) (A) (A) (A) (A) (A) (A) (A) (A)
                 (A) (A) (A) (A) (A) (A) (A) (A) (A) (A) (A) (A)
                 (A) (A) (A) (A) (A) (A) (A) (A) (A) (A) (A) (A)
                 (A) (A) (A) (A) (A) (A) (A) (A) (A) (A) (A) (A)
                 (A) (A) (A) (A) (A) (A) (A) (A) (A) (A) (A) (A)
                 (A) (A) (A) (A) (A) (A) (A) (A) (A) (A) (A) (A)
                 (A) (A) (A) (A) (A) (A) (A) (A) (A) (A) (A) (A)
                 (A) (A) (A) (A) (A) (A) (A) (A) (A) (A) (A) (A)
                 (A) (A) (A) (A) (A) (A) (A) (A) (A) (A) (A) (A)
                 (A) (A) (A) (A) (A) (A) (A) (A) (A) (A) (A) (A)
                 (A) (A) (A) (A) (A) (A) (A) (A) (A) (A) (A) (A)
                 (A) (A) (A) (A) (A) (A) (A) (A) (A) (A) (A) (A)
                 (A) (A) (A) (A)
 The electronic state is 1-A.
 Alpha  occ. eigenvalues --  -19.18080 -19.16096 -19.15994 -19.15606 -19.14779
 Alpha  occ. eigenvalues --  -19.14757 -19.13011 -19.12053 -10.27805 -10.25127
 Alpha  occ. eigenvalues --  -10.24703 -10.24556 -10.24180 -10.23403  -1.06435
 Alpha  occ. eigenvalues --   -1.04780  -1.03158  -1.02807  -1.00843  -1.00530
 Alpha  occ. eigenvalues --   -0.99828  -0.98867  -0.78588  -0.76219  -0.69553
 Alpha  occ. eigenvalues --   -0.64796  -0.63335  -0.56250  -0.55812  -0.53424
 Alpha  occ. eigenvalues --   -0.53034  -0.52648  -0.52012  -0.50430  -0.49567
 Alpha  occ. eigenvalues --   -0.47401  -0.46225  -0.45591  -0.44300  -0.42184
 Alpha  occ. eigenvalues --   -0.41780  -0.40063  -0.38752  -0.38493  -0.37252
 Alpha  occ. eigenvalues --   -0.36995  -0.35789  -0.34452  -0.33728  -0.32696
 Alpha  occ. eigenvalues --   -0.30147  -0.29647  -0.29498  -0.28560  -0.28094
 Alpha  occ. eigenvalues --   -0.27078  -0.26596  -0.24884
 Alpha virt. eigenvalues --    0.04566   0.05360   0.06442   0.07151   0.08070
 Alpha virt. eigenvalues --    0.10102   0.10506   0.12350   0.14148   0.14388
 Alpha virt. eigenvalues --    0.15387   0.15946   0.17549   0.17855   0.18859
 Alpha virt. eigenvalues --    0.20603   0.21151   0.21485   0.21784   0.23693
 Alpha virt. eigenvalues --    0.23883   0.24663   0.26028   0.29672   0.29774
 Alpha virt. eigenvalues --    0.32589   0.33319   0.35414   0.51391   0.52840
 Alpha virt. eigenvalues --    0.54637   0.55611   0.56212   0.57520   0.59770
 Alpha virt. eigenvalues --    0.62658   0.63452   0.64164   0.64984   0.67097
 Alpha virt. eigenvalues --    0.68687   0.71740   0.73906   0.74797   0.76965
 Alpha virt. eigenvalues --    0.77352   0.78493   0.79180   0.80787   0.82433
 Alpha virt. eigenvalues --    0.82781   0.83526   0.84067   0.84590   0.84924
 Alpha virt. eigenvalues --    0.85963   0.86272   0.87620   0.88594   0.89135
 Alpha virt. eigenvalues --    0.89715   0.90604   0.91552   0.94318   0.95102
 Alpha virt. eigenvalues --    0.98160   0.98997   0.99213   1.00602   1.01631
 Alpha virt. eigenvalues --    1.02999   1.04294   1.04885   1.06216   1.08085
 Alpha virt. eigenvalues --    1.08329   1.08576   1.11673   1.13273   1.14252
 Alpha virt. eigenvalues --    1.16055   1.16565   1.19764   1.25330   1.27194
 Alpha virt. eigenvalues --    1.29857   1.31082   1.33371   1.36009   1.36346
 Alpha virt. eigenvalues --    1.38626   1.39907   1.41717   1.45842   1.46983
 Alpha virt. eigenvalues --    1.48101   1.51406   1.55893   1.58352   1.61425
 Alpha virt. eigenvalues --    1.61748   1.62468   1.69146   1.69849   1.71028
 Alpha virt. eigenvalues --    1.71688   1.71862   1.72752   1.73166   1.74492
 Alpha virt. eigenvalues --    1.75268   1.76958   1.77760   1.78377   1.79177
 Alpha virt. eigenvalues --    1.81176   1.81663   1.85082   1.85913   1.86888
 Alpha virt. eigenvalues --    1.89492   1.91440   1.91698   1.94113   1.94909
 Alpha virt. eigenvalues --    1.95888   1.99388   2.01950   2.03775   2.05082
 Alpha virt. eigenvalues --    2.07854   2.08575   2.10367   2.11982   2.15618
 Alpha virt. eigenvalues --    2.16486   2.19906   2.26615   2.27367   2.28374
 Alpha virt. eigenvalues --    2.29812   2.32649   2.34283   2.37598   2.40148
 Alpha virt. eigenvalues --    2.41643   2.43483   2.46236   2.47037   2.49380
 Alpha virt. eigenvalues --    2.50843   2.52539   2.54052   2.55589   2.57866
 Alpha virt. eigenvalues --    2.58671   2.60614   2.65434   2.66980   2.71495
 Alpha virt. eigenvalues --    2.73175   2.76592   2.80449   2.89076   2.89856
 Alpha virt. eigenvalues --    2.91917   2.98288   3.00775   3.06586   3.09596
 Alpha virt. eigenvalues --    3.67489   3.73146   3.73899   3.80755   3.83754
 Alpha virt. eigenvalues --    3.91130   3.99428   4.11174   4.28823   4.39101
 Alpha virt. eigenvalues --    4.44846   4.57228   4.60479   4.79847
          Condensed to atoms (all electrons):
               1          2          3          4          5          6
     1  H    0.623518   0.368279   0.005113   0.003063  -0.000050  -0.039976
     2  C    0.368279   4.925654  -0.021503  -0.027382  -0.004670   0.232789
     3  C    0.005113  -0.021503   5.111469  -0.049505   0.305900  -0.005679
     4  C    0.003063  -0.027382  -0.049505   4.674354   0.330894   0.168648
     5  C   -0.000050  -0.004670   0.305900   0.330894   4.938487  -0.020820
     6  O   -0.039976   0.232789  -0.005679   0.168648  -0.020820   8.365458
     7  C   -0.043638   0.309877   0.242244  -0.006180  -0.028236  -0.041404
     8  H   -0.000233   0.002001  -0.003804   0.372222  -0.053183  -0.054284
     9  H   -0.000026   0.001253  -0.055351  -0.035567   0.335734   0.000089
    10  H   -0.002455  -0.051629  -0.052374   0.000542   0.002263   0.003251
    11  C   -0.059904   0.298803  -0.006888  -0.000999  -0.001519  -0.044810
    12  H   -0.006990  -0.035085  -0.000187   0.000126  -0.000095   0.005726
    13  H    0.006646  -0.032296   0.002511   0.000954  -0.002088   0.001763
    14  O   -0.000183   0.002168   0.003285   0.273739  -0.041453  -0.062374
    15  H    0.000007  -0.000096  -0.000246  -0.022047   0.006228   0.002818
    16  H   -0.000257   0.004102   0.347581  -0.002573  -0.030724   0.000090
    17  O    0.007481  -0.044834   0.000151   0.000006   0.000019   0.001170
    18  H   -0.000357   0.004719  -0.000036   0.000001   0.000001  -0.000104
    19  O    0.000002   0.000058  -0.047133  -0.041553   0.238458   0.001007
    20  H   -0.000000   0.000008   0.000333   0.004966  -0.019149  -0.000049
    21  O   -0.000103   0.000303   0.182467   0.002318  -0.037014   0.000023
    22  H    0.000006  -0.000020  -0.020750  -0.000238   0.005757   0.000009
    23  O   -0.005062  -0.027619  -0.039753   0.003787  -0.000283  -0.000255
    24  H    0.007592  -0.003793   0.006698   0.000075  -0.000305   0.000118
    25  O    0.000071   0.000295   0.000001   0.004359   0.000025  -0.013715
    26  H   -0.000752  -0.001299  -0.000013  -0.004210   0.000427   0.044957
    27  H   -0.000008   0.000013  -0.000000  -0.000338  -0.000011   0.000714
    28  O   -0.000000   0.000000   0.000293   0.000062   0.003059   0.000000
    29  H    0.000000  -0.000021  -0.002731   0.000101  -0.001658  -0.000000
    30  H   -0.000000  -0.000000   0.000275  -0.000003  -0.000321  -0.000000
               7          8          9         10         11         12
     1  H   -0.043638  -0.000233  -0.000026  -0.002455  -0.059904  -0.006990
     2  C    0.309877   0.002001   0.001253  -0.051629   0.298803  -0.035085
     3  C    0.242244  -0.003804  -0.055351  -0.052374  -0.006888  -0.000187
     4  C   -0.006180   0.372222  -0.035567   0.000542  -0.000999   0.000126
     5  C   -0.028236  -0.053183   0.335734   0.002263  -0.001519  -0.000095
     6  O   -0.041404  -0.054284   0.000089   0.003251  -0.044810   0.005726
     7  C    5.053321   0.000921   0.000652   0.352263  -0.044882   0.006281
     8  H    0.000921   0.631784   0.007765   0.000010  -0.000150   0.000055
     9  H    0.000652   0.007765   0.624237  -0.000276  -0.002433   0.000266
    10  H    0.352263   0.000010  -0.000276   0.625606   0.002816   0.000337
    11  C   -0.044882  -0.000150  -0.002433   0.002816   5.023532   0.347217
    12  H    0.006281   0.000055   0.000266   0.000337   0.347217   0.632497
    13  H   -0.012089   0.000024   0.007625   0.000130   0.360248  -0.050776
    14  O   -0.000245  -0.048760   0.000751   0.000006   0.001880   0.000346
    15  H    0.000025  -0.005554  -0.000162  -0.000000  -0.000080   0.000027
    16  H   -0.052566   0.002208   0.006643   0.002025  -0.000041   0.000009
    17  O    0.001346   0.000002   0.000044   0.010815   0.206403  -0.033762
    18  H    0.000110  -0.000000  -0.000018  -0.000221  -0.017633  -0.002444
    19  O    0.004311   0.002384  -0.031647  -0.000064   0.000026  -0.000004
    20  H   -0.000155  -0.000327  -0.006897   0.000003   0.000001   0.000000
    21  O   -0.031038  -0.000057  -0.003275   0.001930   0.000839   0.000043
    22  H   -0.002740   0.000009   0.000070   0.006069   0.000004  -0.000004
    23  O    0.201477   0.000766  -0.000059  -0.034484   0.003871  -0.000069
    24  H   -0.027168  -0.000042   0.000013  -0.002363   0.000053  -0.000010
    25  O   -0.000011   0.000150  -0.000000   0.000000  -0.000024  -0.000025
    26  H    0.000316  -0.000159  -0.000013  -0.000006   0.000084   0.000509
    27  H    0.000002   0.000039   0.000001  -0.000000  -0.000008   0.000090
    28  O   -0.000004   0.000000   0.001357   0.000001   0.000000   0.000000
    29  H    0.000615  -0.000004   0.000015  -0.000017  -0.000010  -0.000000
    30  H    0.000006   0.000000  -0.000045  -0.000000  -0.000000   0.000000
              13         14         15         16         17         18
     1  H    0.006646  -0.000183   0.000007  -0.000257   0.007481  -0.000357
     2  C   -0.032296   0.002168  -0.000096   0.004102  -0.044834   0.004719
     3  C    0.002511   0.003285  -0.000246   0.347581   0.000151  -0.000036
     4  C    0.000954   0.273739  -0.022047  -0.002573   0.000006   0.000001
     5  C   -0.002088  -0.041453   0.006228  -0.030724   0.000019   0.000001
     6  O    0.001763  -0.062374   0.002818   0.000090   0.001170  -0.000104
     7  C   -0.012089  -0.000245   0.000025  -0.052566   0.001346   0.000110
     8  H    0.000024  -0.048760  -0.005554   0.002208   0.000002  -0.000000
     9  H    0.007625   0.000751  -0.000162   0.006643   0.000044  -0.000018
    10  H    0.000130   0.000006  -0.000000   0.002025   0.010815  -0.000221
    11  C    0.360248   0.001880  -0.000080  -0.000041   0.206403  -0.017633
    12  H   -0.050776   0.000346   0.000027   0.000009  -0.033762  -0.002444
    13  H    0.603322  -0.000311   0.000005   0.000098  -0.033119  -0.005304
    14  O   -0.000311   8.311458   0.208407  -0.000084   0.000001   0.000000
    15  H    0.000005   0.208407   0.343455   0.000006  -0.000000  -0.000000
    16  H    0.000098  -0.000084   0.000006   0.583524  -0.000005   0.000000
    17  O   -0.033119   0.000001  -0.000000  -0.000005   8.276242   0.233054
    18  H   -0.005304   0.000000  -0.000000   0.000000   0.233054   0.386616
    19  O    0.000024   0.001935  -0.000194   0.003898  -0.000000  -0.000000
    20  H   -0.000017  -0.000105   0.000024  -0.000302  -0.000000  -0.000000
    21  O    0.003757  -0.000008   0.000001  -0.033776  -0.000054   0.000012
    22  H   -0.000089   0.000001  -0.000000  -0.004010  -0.000018   0.000003
    23  O    0.000033   0.000009   0.000001   0.005951  -0.000003   0.000002
    24  H    0.000018  -0.000000   0.000000  -0.000124  -0.000001   0.000000
    25  O    0.000001  -0.019925   0.063715  -0.000000   0.000000  -0.000000
    26  H   -0.000025   0.004029  -0.008031   0.000001  -0.000001   0.000000
    27  H   -0.000001   0.001892  -0.002917   0.000000   0.000000  -0.000000
    28  O   -0.000007  -0.000000  -0.000000   0.000059  -0.000000   0.000000
    29  H    0.000056  -0.000002   0.000000   0.000014   0.000000  -0.000000
    30  H    0.000000  -0.000000   0.000000   0.000037   0.000000  -0.000000
              19         20         21         22         23         24
     1  H    0.000002  -0.000000  -0.000103   0.000006  -0.005062   0.007592
     2  C    0.000058   0.000008   0.000303  -0.000020  -0.027619  -0.003793
     3  C   -0.047133   0.000333   0.182467  -0.020750  -0.039753   0.006698
     4  C   -0.041553   0.004966   0.002318  -0.000238   0.003787   0.000075
     5  C    0.238458  -0.019149  -0.037014   0.005757  -0.000283  -0.000305
     6  O    0.001007  -0.000049   0.000023   0.000009  -0.000255   0.000118
     7  C    0.004311  -0.000155  -0.031038  -0.002740   0.201477  -0.027168
     8  H    0.002384  -0.000327  -0.000057   0.000009   0.000766  -0.000042
     9  H   -0.031647  -0.006897  -0.003275   0.000070  -0.000059   0.000013
    10  H   -0.000064   0.000003   0.001930   0.006069  -0.034484  -0.002363
    11  C    0.000026   0.000001   0.000839   0.000004   0.003871   0.000053
    12  H   -0.000004   0.000000   0.000043  -0.000004  -0.000069  -0.000010
    13  H    0.000024  -0.000017   0.003757  -0.000089   0.000033   0.000018
    14  O    0.001935  -0.000105  -0.000008   0.000001   0.000009  -0.000000
    15  H   -0.000194   0.000024   0.000001  -0.000000   0.000001   0.000000
    16  H    0.003898  -0.000302  -0.033776  -0.004010   0.005951  -0.000124
    17  O   -0.000000  -0.000000  -0.000054  -0.000018  -0.000003  -0.000001
    18  H   -0.000000  -0.000000   0.000012   0.000003   0.000002   0.000000
    19  O    8.346074   0.206550   0.000872  -0.000287  -0.000032   0.000003
    20  H    0.206550   0.332306   0.000910  -0.000023  -0.000000  -0.000000
    21  O    0.000872   0.000910   8.298854   0.229767   0.001178  -0.000123
    22  H   -0.000287  -0.000023   0.229767   0.383743  -0.000099  -0.000031
    23  O   -0.000032  -0.000000   0.001178  -0.000099   8.296176   0.232371
    24  H    0.000003  -0.000000  -0.000123  -0.000031   0.232371   0.391410
    25  O    0.000000  -0.000000  -0.000000   0.000000   0.000000   0.000000
    26  H   -0.000006   0.000000   0.000000  -0.000000  -0.000010  -0.000008
    27  H   -0.000000  -0.000000   0.000000  -0.000000  -0.000000  -0.000000
    28  O   -0.023978   0.073063  -0.018086   0.000858   0.000000  -0.000000
    29  H    0.005131  -0.009111   0.054111  -0.002864  -0.000004   0.000000
    30  H    0.001917  -0.003678   0.000760  -0.000041  -0.000000   0.000000
              25         26         27         28         29         30
     1  H    0.000071  -0.000752  -0.000008  -0.000000   0.000000  -0.000000
     2  C    0.000295  -0.001299   0.000013   0.000000  -0.000021  -0.000000
     3  C    0.000001  -0.000013  -0.000000   0.000293  -0.002731   0.000275
     4  C    0.004359  -0.004210  -0.000338   0.000062   0.000101  -0.000003
     5  C    0.000025   0.000427  -0.000011   0.003059  -0.001658  -0.000321
     6  O   -0.013715   0.044957   0.000714   0.000000  -0.000000  -0.000000
     7  C   -0.000011   0.000316   0.000002  -0.000004   0.000615   0.000006
     8  H    0.000150  -0.000159   0.000039   0.000000  -0.000004   0.000000
     9  H   -0.000000  -0.000013   0.000001   0.001357   0.000015  -0.000045
    10  H    0.000000  -0.000006  -0.000000   0.000001  -0.000017  -0.000000
    11  C   -0.000024   0.000084  -0.000008   0.000000  -0.000010  -0.000000
    12  H   -0.000025   0.000509   0.000090   0.000000  -0.000000   0.000000
    13  H    0.000001  -0.000025  -0.000001  -0.000007   0.000056   0.000000
    14  O   -0.019925   0.004029   0.001892  -0.000000  -0.000002  -0.000000
    15  H    0.063715  -0.008031  -0.002917  -0.000000   0.000000   0.000000
    16  H   -0.000000   0.000001   0.000000   0.000059   0.000014   0.000037
    17  O    0.000000  -0.000001   0.000000  -0.000000   0.000000   0.000000
    18  H   -0.000000   0.000000  -0.000000   0.000000  -0.000000  -0.000000
    19  O    0.000000  -0.000006  -0.000000  -0.023978   0.005131   0.001917
    20  H   -0.000000   0.000000  -0.000000   0.073063  -0.009111  -0.003678
    21  O   -0.000000   0.000000   0.000000  -0.018086   0.054111   0.000760
    22  H    0.000000  -0.000000  -0.000000   0.000858  -0.002864  -0.000041
    23  O    0.000000  -0.000010  -0.000000   0.000000  -0.000004  -0.000000
    24  H    0.000000  -0.000008  -0.000000  -0.000000   0.000000   0.000000
    25  O    8.303513   0.216870   0.239142   0.000000   0.000000  -0.000000
    26  H    0.216870   0.344347  -0.015704  -0.000000  -0.000000   0.000000
    27  H    0.239142  -0.015704   0.383564  -0.000000  -0.000000   0.000000
    28  O    0.000000  -0.000000  -0.000000   8.314938   0.211649   0.238656
    29  H    0.000000  -0.000000  -0.000000   0.211649   0.334783  -0.014600
    30  H   -0.000000   0.000000   0.000000   0.238656  -0.014600   0.384048
 Mulliken charges:
               1
     1  H    0.138217
     2  C    0.099927
     3  C    0.097633
     4  C    0.350376
     5  C    0.074326
     6  O   -0.545161
     7  C    0.116587
     8  H    0.146213
     9  H    0.149255
    10  H    0.135823
    11  C   -0.066394
    12  H    0.135923
    13  H    0.148907
    14  O   -0.636454
    15  H    0.414611
    16  H    0.168217
    17  O   -0.624938
    18  H    0.401597
    19  O   -0.667751
    20  H    0.421650
    21  O   -0.654613
    22  H    0.404919
    23  O   -0.637889
    24  H    0.395618
    25  O   -0.794442
    26  H    0.418696
    27  H    0.393530
    28  O   -0.801922
    29  H    0.424548
    30  H    0.392990
 Sum of Mulliken charges =  -0.00000
 Mulliken charges with hydrogens summed into heavy atoms:
               1
     2  C    0.238144
     3  C    0.265851
     4  C    0.496589
     5  C    0.223580
     6  O   -0.545161
     7  C    0.252410
    11  C    0.218437
    14  O   -0.221843
    17  O   -0.223340
    19  O   -0.246101
    21  O   -0.249695
    23  O   -0.242272
    25  O    0.017785
    28  O    0.015616
 APT charges:
               1
     1  H    0.505080
     2  C   -0.446143
     3  C   -0.220135
     4  C   -0.223016
     5  C   -0.211834
     6  O   -0.395201
     7  C   -0.289158
     8  H    0.431160
     9  H    0.294305
    10  H    0.427071
    11  C   -0.390703
    12  H    0.421528
    13  H    0.227076
    14  O   -0.740760
    15  H    0.656221
    16  H    0.437170
    17  O   -0.995961
    18  H    0.830088
    19  O   -0.794132
    20  H    0.602376
    21  O   -0.971382
    22  H    0.779353
    23  O   -0.833709
    24  H    0.725640
    25  O   -0.775681
    26  H    0.111946
    27  H    0.758821
    28  O   -0.977630
    29  H    0.176532
    30  H    0.881079
 Sum of APT charges =  -0.00000
 APT charges with hydrogens summed into heavy atoms:
               1
     2  C    0.058936
     3  C    0.217035
     4  C    0.208144
     5  C    0.082471
     6  O   -0.395201
     7  C    0.137912
    11  C    0.257901
    14  O   -0.084538
    17  O   -0.165873
    19  O   -0.191756
    21  O   -0.192029
    23  O   -0.108069
    25  O    0.095086
    28  O    0.079980
 Electronic spatial extent (au):  <R**2>=           3306.3768
 Charge=              0.0000 electrons
 Dipole moment (field-independent basis, Debye):
    X=              0.6080    Y=              5.1722    Z=             -0.7761  Tot=              5.2654
 Quadrupole moment (field-independent basis, Debye-Ang):
   XX=            -70.2762   YY=            -89.1142   ZZ=            -81.6817
   XY=              1.7076   XZ=             10.3596   YZ=             -1.3371
 Traceless Quadrupole moment (field-independent basis, Debye-Ang):
   XX=             10.0812   YY=             -8.7569   ZZ=             -1.3243
   XY=              1.7076   XZ=             10.3596   YZ=             -1.3371
 Octapole moment (field-independent basis, Debye-Ang**2):
  XXX=             46.7062  YYY=             20.5639  ZZZ=            -24.2977  XYY=             13.6808
  XXY=             12.3460  XXZ=              7.1025  XZZ=            -23.3839  YZZ=             22.1072
  YYZ=             -5.2051  XYZ=            -19.5584
 Hexadecapole moment (field-independent basis, Debye-Ang**3):
 XXXX=          -1532.0081 YYYY=          -1368.4204 ZZZZ=           -551.3671 XXXY=            -39.5745
 XXXZ=            227.3382 YYYX=             26.5253 YYYZ=            -11.1495 ZZZX=              1.5688
 ZZZY=            -58.1373 XXYY=           -530.4336 XXZZ=           -415.3593 YYZZ=           -251.8330
 XXYZ=             48.4270 YYXZ=             15.0359 ZZXY=              2.8210
 N-N= 1.095832942890D+03 E-N=-4.164488559180D+03  KE= 8.328958741842D+02
  Exact polarizability:   0.000   0.000   0.000   0.000   0.000   0.000
 Approx polarizability: 129.213  -1.431 131.932  -2.720   0.816 121.963
 Calling FoFJK, ICntrl=    100147 FMM=F ISym2X=0 I1Cent= 0 IOpClX= 0 NMat=1 NMatS=1 NMatT=0.
 ***** Axes restored to original set *****
 -------------------------------------------------------------------
 Center     Atomic                   Forces (Hartrees/Bohr)
 Number     Number              X              Y              Z
 -------------------------------------------------------------------
      1        1           0.000010838   -0.000001962   -0.000003732
      2        6          -0.000003823    0.000005463    0.000005653
      3        6           0.000006215   -0.000003494    0.000001277
      4        6          -0.000010166   -0.000005596    0.000010961
      5        6          -0.000002451   -0.000010011    0.000006470
      6        8           0.000006241    0.000006223    0.000001046
      7        6           0.000004004    0.000003067   -0.000003445
      8        1          -0.000000491    0.000004081   -0.000008624
      9        1          -0.000000722   -0.000000861   -0.000004668
     10        1           0.000004130   -0.000001321   -0.000002835
     11        6           0.000006258    0.000004100    0.000001402
     12        1          -0.000003906    0.000000543   -0.000002119
     13        1          -0.000000107   -0.000001654   -0.000001498
     14        8           0.000001098    0.000015767    0.000011967
     15        1          -0.000009016    0.000003732    0.000003523
     16        1          -0.000002266    0.000000212   -0.000005499
     17        8           0.000009730   -0.000000090   -0.000009390
     18        1           0.000001278   -0.000001232    0.000002791
     19        8          -0.000017041   -0.000000874    0.000005290
     20        1           0.000006109   -0.000004042   -0.000004650
     21        8           0.000003033   -0.000011219   -0.000004741
     22        1           0.000002790   -0.000001011   -0.000000945
     23        8          -0.000014672    0.000017463   -0.000000442
     24        1           0.000022150   -0.000012166   -0.000005191
     25        8          -0.000022789   -0.000002375    0.000014167
     26        1           0.000005929    0.000016136   -0.000001335
     27        1          -0.000000268    0.000008439    0.000004792
     28        8           0.000027076   -0.000034627    0.000006874
     29        1          -0.000004675    0.000006978    0.000003929
     30        1          -0.000024484    0.000000330   -0.000021024
 -------------------------------------------------------------------
 Cartesian Forces:  Max     0.000034627 RMS     0.000009255

 GradGradGradGradGradGradGradGradGradGradGradGradGradGradGradGradGradGrad
 Berny optimization.
 Search for a saddle point.
 Step number   1 out of a maximum of  180
 All quantities printed in internal units (Hartrees-Bohrs-Radians)
 Swapping is turned off.
 Second derivative matrix not updated -- analytic derivatives used.
 ITU=  0
     Eigenvalues ---   -0.00072   0.00025   0.00031   0.00063   0.00109
     Eigenvalues ---    0.00164   0.00227   0.00265   0.00269   0.00349
     Eigenvalues ---    0.00388   0.00421   0.00673   0.00778   0.00866
     Eigenvalues ---    0.01109   0.01217   0.01403   0.01575   0.01712
     Eigenvalues ---    0.01870   0.02185   0.02305   0.02797   0.03203
     Eigenvalues ---    0.03392   0.03722   0.03900   0.04192   0.04499
     Eigenvalues ---    0.04749   0.05219   0.05524   0.05782   0.06069
     Eigenvalues ---    0.06826   0.06960   0.07105   0.07503   0.08222
     Eigenvalues ---    0.09005   0.09871   0.10629   0.11935   0.12969
     Eigenvalues ---    0.14249   0.15560   0.16492   0.17136   0.17217
     Eigenvalues ---    0.19660   0.20165   0.20920   0.22581   0.26483
     Eigenvalues ---    0.28741   0.32327   0.39691   0.42162   0.45878
     Eigenvalues ---    0.50286   0.53861   0.59037   0.62133   0.64357
     Eigenvalues ---    0.66882   0.68050   0.71442   0.76199   0.77643
     Eigenvalues ---    0.79056   0.80558   0.81840   0.84919   0.87165
     Eigenvalues ---    0.90085   0.92520   0.94597   0.99015   1.03920
     Eigenvalues ---    1.04593   1.06211   1.08224   1.09453
 Eigenvectors required to have negative eigenvalues:
                          Z15       Z14       Y24       Z6        Y8
   1                    0.31772   0.28522  -0.27532  -0.25315   0.24714
                          Y23       Y14       Y12       Z8        Z22
   1                   -0.23939  -0.22827   0.19377   0.18674  -0.17849
 RFO step:  Lambda0=1.523824287D-10 Lambda=-2.63699198D-08.
 Linear search not attempted -- option 19 set.
 B after Tr=     0.000032    0.000012   -0.000023
         Rot=    1.000000    0.000001   -0.000001    0.000001 Ang=   0.00 deg.
 Variable       Old X    -DE/DX   Delta X   Delta X   Delta X     New X
                                 (Linear)    (Quad)   (Total)
    X1       -3.65131   0.00001   0.00000   0.00009   0.00013  -3.65118
    Y1        3.46338  -0.00000   0.00000   0.00006   0.00008   3.46346
    Z1        0.82042  -0.00000   0.00000  -0.00027  -0.00029   0.82013
    X2       -2.10988  -0.00000   0.00000   0.00005   0.00008  -2.10980
    Y2        2.23834   0.00001   0.00000   0.00003   0.00005   2.23839
    Z2        0.15792   0.00001   0.00000  -0.00024  -0.00026   0.15767
    X3        2.32622   0.00001   0.00000  -0.00004   0.00000   2.32622
    Y3        0.77702  -0.00000   0.00000  -0.00011  -0.00010   0.77692
    Z3        1.38863   0.00000   0.00000  -0.00004  -0.00007   1.38855
    X4       -1.25956  -0.00001   0.00000  -0.00001   0.00002  -1.25954
    Y4       -2.38877  -0.00001   0.00000   0.00003   0.00005  -2.38872
    Z4        0.50233   0.00001   0.00000  -0.00022  -0.00024   0.50209
    X5        1.49638  -0.00000   0.00000  -0.00001   0.00002   1.49640
    Y5       -1.65062  -0.00001   0.00000   0.00003   0.00004  -1.65058
    Z5        0.01185   0.00001   0.00000  -0.00030  -0.00032   0.01153
    X6       -3.00695   0.00001   0.00000   0.00003   0.00006  -3.00689
    Y6       -0.26590   0.00001   0.00000   0.00006   0.00008  -0.26583
    Z6        0.54037   0.00000   0.00000  -0.00021  -0.00023   0.54014
    X7        0.22388   0.00000   0.00000  -0.00005  -0.00001   0.22387
    Y7        2.76006   0.00000   0.00000  -0.00009  -0.00008   2.75998
    Z7        1.78959  -0.00000   0.00000  -0.00009  -0.00012   1.78947
    X8       -1.42064  -0.00000   0.00000   0.00003   0.00006  -1.42058
    Y8       -3.24995   0.00000   0.00000   0.00002   0.00004  -3.24991
    Z8        2.38236  -0.00001   0.00000  -0.00026  -0.00027   2.38209
    X9        1.66237  -0.00000   0.00000  -0.00009  -0.00006   1.66231
    Y9       -1.31842  -0.00000   0.00000   0.00025   0.00026  -1.31817
    Z9       -2.03174  -0.00000   0.00000  -0.00028  -0.00031  -2.03205
   X10        0.94902   0.00000   0.00000   0.00001   0.00006   0.94908
   Y10        4.64166  -0.00000   0.00000  -0.00005  -0.00004   4.64162
   Z10        1.27555  -0.00000   0.00000   0.00015   0.00012   1.27566
   X11       -1.74839   0.00001   0.00000   0.00002   0.00005  -1.74834
   Y11        2.89910   0.00000   0.00000   0.00008   0.00009   2.89919
   Z11       -2.64497   0.00000   0.00000  -0.00023  -0.00025  -2.64523
   X12       -3.34888  -0.00000   0.00000  -0.00012  -0.00010  -3.34898
   Y12        2.10105   0.00000   0.00000   0.00026   0.00028   2.10133
   Z12       -3.70383  -0.00000   0.00000  -0.00018  -0.00020  -3.70402
   X13       -0.00227  -0.00000   0.00000  -0.00010  -0.00008  -0.00234
   Y13        2.07851  -0.00000   0.00000  -0.00007  -0.00007   2.07844
   Z13       -3.40423  -0.00000   0.00000  -0.00035  -0.00038  -3.40461
   X14       -1.97847   0.00000   0.00000  -0.00017  -0.00015  -1.97861
   Y14       -4.04605   0.00002   0.00000   0.00012   0.00013  -4.04593
   Z14       -1.39692   0.00001   0.00000  -0.00019  -0.00020  -1.39713
   X15       -3.68920  -0.00001   0.00000  -0.00015  -0.00013  -3.68933
   Y15       -4.62543   0.00000   0.00000   0.00016   0.00017  -4.62525
   Z15       -0.97032   0.00000   0.00000  -0.00006  -0.00006  -0.97038
   X16        3.00729  -0.00000   0.00000  -0.00030  -0.00026   3.00703
   Y16        0.22603   0.00000   0.00000  -0.00028  -0.00026   0.22577
   Z16        3.26511  -0.00001   0.00000  -0.00001  -0.00005   3.26506
   X17       -1.69248   0.00001   0.00000   0.00026   0.00029  -1.69219
   Y17        5.58956  -0.00000   0.00000   0.00007   0.00008   5.58964
   Z17       -2.78228  -0.00001   0.00000  -0.00014  -0.00017  -2.78245
   X18       -1.20037   0.00000   0.00000   0.00001   0.00004  -1.20034
   Y18        6.06103  -0.00000   0.00000   0.00010   0.00010   6.06114
   Z18       -4.48096   0.00000   0.00000  -0.00019  -0.00022  -4.48118
   X19        3.00260  -0.00002   0.00000   0.00004   0.00006   3.00267
   Y19       -3.72389  -0.00000   0.00000  -0.00002  -0.00001  -3.72390
   Z19        0.74812   0.00001   0.00000  -0.00057  -0.00060   0.74753
   X20        4.54579   0.00001   0.00000   0.00015   0.00017   4.54597
   Y20       -3.66783  -0.00000   0.00000   0.00020   0.00020  -3.66763
   Z20       -0.28321  -0.00000   0.00000  -0.00043  -0.00046  -0.28367
   X21        4.38057   0.00000   0.00000   0.00016   0.00020   4.38077
   Y21        1.80752  -0.00001   0.00000  -0.00008  -0.00007   1.80745
   Z21       -0.08772  -0.00000   0.00000   0.00029   0.00025  -0.08747
   X22        5.08992   0.00000   0.00000  -0.00003   0.00001   5.08993
   Y22        3.21800  -0.00000   0.00000  -0.00005  -0.00004   3.21795
   Z22        0.84592  -0.00000   0.00000   0.00040   0.00036   0.84627
   X23       -0.37823  -0.00001   0.00000  -0.00036  -0.00031  -0.37854
   Y23        2.63825   0.00002   0.00000  -0.00036  -0.00034   2.63791
   Z23        4.41257  -0.00000   0.00000  -0.00017  -0.00020   4.41237
   X24       -1.91582   0.00002   0.00000  -0.00100  -0.00095  -1.91677
   Y24        3.59598  -0.00001   0.00000  -0.00142  -0.00139   3.59459
   Z24        4.69502  -0.00001   0.00000  -0.00042  -0.00045   4.69458
   X25       -7.05973  -0.00002   0.00000  -0.00024  -0.00022  -7.05995
   Y25       -3.70075  -0.00000   0.00000   0.00018   0.00020  -3.70054
   Z25        0.02039   0.00001   0.00000   0.00119   0.00119   0.02158
   X26       -6.23833   0.00001   0.00000   0.00012   0.00015  -6.23818
   Y26       -2.08099   0.00002   0.00000   0.00018   0.00021  -2.08078
   Z26        0.36734  -0.00000   0.00000   0.00047   0.00046   0.36781
   X27       -7.85822  -0.00000   0.00000  -0.00090  -0.00088  -7.85910
   Y27       -3.45107   0.00001   0.00000  -0.00003  -0.00000  -3.45108
   Z27       -1.60993   0.00000   0.00000   0.00148   0.00148  -1.60845
   X28        7.37689   0.00003   0.00000   0.00085   0.00087   7.37776
   Y28       -2.25297  -0.00003   0.00000   0.00025   0.00025  -2.25272
   Z28       -1.77538   0.00001   0.00000   0.00032   0.00028  -1.77510
   X29        6.67049  -0.00000   0.00000   0.00062   0.00065   6.67114
   Y29       -0.60192   0.00001   0.00000   0.00016   0.00015  -0.60176
   Z29       -1.31173   0.00000   0.00000   0.00043   0.00039  -1.31135
   X30        8.67483  -0.00002   0.00000   0.00019   0.00022   8.67504
   Y30       -2.56695   0.00000   0.00000  -0.00003  -0.00004  -2.56698
   Z30       -0.52104  -0.00002   0.00000   0.00085   0.00081  -0.52023
         Item               Value     Threshold  Converged?
 Maximum Force            0.000035     0.000450     YES
 RMS     Force            0.000009     0.000300     YES
 Maximum Displacement     0.001484     0.001800     YES
 RMS     Displacement     0.000375     0.001200     YES
 Predicted change in Energy=-1.610466D-08
 Optimization completed.
    -- Stationary point found.
 GradGradGradGradGradGradGradGradGradGradGradGradGradGradGradGradGradGrad

                          Input orientation:                          
 ---------------------------------------------------------------------
 Center     Atomic      Atomic             Coordinates (Angstroms)
 Number     Number       Type             X           Y           Z
 ---------------------------------------------------------------------
      1          1           0       -1.932190    1.832740    0.434150
      2          6           0       -1.116500    1.184480    0.083570
      3          6           0        1.230980    0.411180    0.734830
      4          6           0       -0.666530   -1.264080    0.265820
      5          6           0        0.791850   -0.873470    0.006270
      6          8           0       -1.591210   -0.140710    0.285950
      7          6           0        0.118470    1.460560    0.947010
      8          1           0       -0.751770   -1.719800    1.260690
      9          1           0        0.879690   -0.697680   -1.075150
     10          1           0        0.502200    2.456260    0.674990
     11          6           0       -0.925210    1.534140   -1.399660
     12          1           0       -1.772150    1.111830   -1.959980
     13          1           0       -0.001200    1.099900   -1.801440
     14          8           0       -1.046960   -2.141080   -0.739220
     15          1           0       -1.952240   -2.447670   -0.513470
     16          1           0        1.591390    0.119610    1.727820
     17          8           0       -0.895620    2.957870   -1.472320
     18          1           0       -0.635210    3.207360   -2.371220
     19          8           0        1.588910   -1.970600    0.395890
     20          1           0        2.405530   -1.940930   -0.149870
     21          8           0        2.318100    0.956500   -0.046420
     22          1           0        2.693470    1.702890    0.447640
     23          8           0       -0.200150    1.396100    2.335030
     24          1           0       -1.013810    1.902910    2.484500
     25          8           0       -3.735850   -1.958350    0.010790
     26          1           0       -3.301180   -1.101210    0.194390
     27          1           0       -4.158390   -1.826230   -0.851940
     28          8           0        3.903680   -1.192220   -0.939490
     29          1           0        3.529870   -0.318520   -0.694140
     30          1           0        4.590520   -1.358370   -0.275720
 ---------------------------------------------------------------------
                    Distance matrix (angstroms):
                    1          2          3          4          5
     1  H    0.000000
     2  C    1.099317   0.000000
     3  C    3.480932   2.555933   0.000000
     4  C    3.349705   2.496224   2.574298   0.000000
     5  C    3.863554   2.807656   1.540766   1.531932   0.000000
     6  O    2.008167   1.422124   2.910469   1.455128   2.508811
     7  C    2.146334   1.531959   1.543987   2.916146   2.605020
     8  H    3.833680   3.154914   2.957854   1.097594   2.161621
     9  H    4.072798   2.978243   2.151512   2.123630   1.099130
    10  H    2.524487   2.141820   2.171878   3.921005   3.408546
    11  C    2.113298   1.535847   3.235157   3.266615   3.274373
    12  H    2.505431   2.147382   4.095327   3.438245   3.792315
    13  H    3.043623   2.191874   2.902631   3.210082   2.791224
    14  O    4.236942   3.426539   3.725032   1.387069   2.354530
    15  H    4.384096   3.774577   4.456923   1.913434   3.205973
    16  H    4.126017   3.342181   1.095873   3.024937   2.142243
    17  O    2.444386   2.369492   3.984918   4.571485   4.439927
    18  H    3.382579   3.217091   4.576990   5.191217   4.933775
    19  O    5.183146   4.167891   2.432256   2.367086   1.410958
    20  H    5.779055   4.714592   2.773929   3.173086   1.941086
    21  O    4.366201   3.444612   1.445529   3.733160   2.383486
    22  H    4.627502   3.862275   1.972275   4.486153   3.232429
    23  O    2.608440   2.439990   2.361957   3.402308   3.399726
    24  H    2.247728   2.508217   3.213360   3.882392   4.136462
    25  O    4.219572   4.091903   5.550523   3.157179   4.655862
    26  H    3.246487   3.163777   4.808313   2.640646   4.103675
    27  H    4.471919   4.380942   6.047243   3.709243   5.113624
    28  O    6.715255   5.647793   3.538017   4.727024   3.267958
    29  H    5.977881   4.944957   2.803447   4.407423   2.880156
    30  H    7.296084   6.258215   3.929253   5.285710   3.839862
                    6          7          8          9         10
     6  O    0.000000
     7  C    2.433942   0.000000
     8  H    2.036738   3.312160   0.000000
     9  H    2.875440   3.053946   3.026969   0.000000
    10  H    3.358269   1.101209   4.399428   3.626683   0.000000
    11  C    2.467784   2.569347   4.206622   2.888597   2.681786
    12  H    2.577944   3.485204   4.408176   3.330091   3.731384
    13  H    2.902489   2.774594   4.229740   2.129497   2.868071
    14  O    2.312717   4.144081   2.065007   2.430686   5.053259
    15  H    2.468092   4.657800   2.262425   3.376059   5.611171
    16  H    3.503669   2.139464   3.015301   3.005182   2.784730
    17  O    3.629953   3.020509   5.419468   4.083199   2.610834
    18  H    4.379961   3.824918   6.122194   4.384525   3.337252
    19  O    3.670660   3.773432   2.507900   2.070574   4.566829
    20  H    4.405072   4.243103   3.465129   2.174857   4.861927
    21  O    4.073947   2.465634   4.277291   2.421491   2.463170
    22  H    4.667278   2.634145   4.923976   3.372154   2.328287
    23  O    2.914715   1.425578   3.341755   4.144792   2.091164
    24  H    3.056697   1.960002   3.832806   4.797866   2.424626
    25  O    2.824714   5.236529   3.244054   4.906298   6.155567
    26  H    1.963400   4.338561   2.831809   4.387966   5.229940
    27  H    3.275085   5.686013   4.009937   5.167756   6.510940
    28  O    5.727233   4.992388   5.176132   3.067163   5.242902
    29  H    5.217054   4.182840   4.910946   2.704142   4.329054
    30  H    6.325500   5.425925   5.570570   3.853032   5.671826
                   11         12         13         14         15
    11  C    0.000000
    12  H    1.099823   0.000000
    13  H    1.097172   1.778072   0.000000
    14  O    3.736074   3.549307   3.567335   0.000000
    15  H    4.206535   3.846409   4.248609   0.982086   0.000000
    16  H    4.256207   5.088985   3.994119   4.261208   4.916464
    17  O    1.425890   2.100948   2.088147   5.153604   5.590680
    18  H    1.956449   2.419297   2.273325   5.607029   6.096324
    19  O    4.672045   5.133052   4.096911   2.874952   3.687041
    20  H    4.973119   5.481683   4.215054   3.508145   4.402176
    21  O    3.561458   4.518405   2.912012   4.625862   5.481087
    22  H    4.066428   5.107617   3.561349   5.493228   6.303452
    23  O    3.806925   4.582478   4.151831   4.762325   5.094933
    24  H    3.902632   4.577586   4.476548   5.171782   5.366192
    25  O    4.699633   4.143194   5.156033   2.797505   1.922381
    26  H    3.889897   3.446272   4.440506   2.652257   2.033140
    27  H    4.695267   3.943867   5.171655   3.129350   2.316862
    28  O    5.564438   6.210080   4.609215   5.044728   6.004119
    29  H    4.876253   5.635572   3.963141   4.926574   5.883830
    30  H    6.328754   7.030092   5.427228   5.710398   6.637078
                   16         17         18         19         20
    16  H    0.000000
    17  O    4.947912   0.000000
    18  H    5.594111   0.968545   0.000000
    19  O    2.478512   5.826913   6.278127   0.000000
    20  H    2.904198   6.053487   6.378510   0.982651   0.000000
    21  O    2.091989   4.045574   4.380994   3.048815   2.900594
    22  H    2.315214   4.259435   4.614056   3.836308   3.703694
    23  O    2.282049   4.173574   5.061495   4.277344   4.909182
    24  H    3.246504   4.096747   5.042117   5.112780   5.779870
    25  O    5.970393   5.868197   6.478619   5.338682   6.143506
    26  H    5.270583   5.004075   5.679219   4.970857   5.778424
    27  H    6.595561   5.823929   6.329142   5.882974   6.602356
    28  O    3.765916   6.367137   6.481333   2.783393   1.851626
    29  H    3.132978   5.561048   5.708968   2.772158   2.047580
    30  H    3.897868   7.082338   7.248811   3.136168   2.264817
                   21         22         23         24         25
    21  O    0.000000
    22  H    0.970616   0.000000
    23  O    3.493728   3.468342   0.000000
    24  H    4.289857   4.234706   0.970175   0.000000
    25  O    6.719370   7.411590   5.399593   5.332736   0.000000
    26  H    5.989029   6.622910   4.520540   4.416039   0.978435
    27  H    7.094883   7.816110   6.017296   5.909882   0.969690
    28  O    2.815783   3.430802   5.853486   6.744275   7.736434
    29  H    1.874461   2.467656   5.101847   5.973569   7.481755
    30  H    3.251937   3.673331   6.111762   7.047218   8.352874
                   26         27         28         29         30
    26  H    0.000000
    27  H    1.534689   0.000000
    28  O    7.294105   8.087435   0.000000
    29  H    6.932917   7.836289   0.981469   0.000000
    30  H    7.909871   8.780339   0.969508   1.543160   0.000000
 Stoichiometry    C6H16O8
 Framework group  C1[X(C6H16O8)]
 Deg. of freedom    84
 Full point group                 C1      NOp   1
 Largest Abelian subgroup         C1      NOp   1
 Largest concise Abelian subgroup C1      NOp   1
                         Standard orientation:                         
 ---------------------------------------------------------------------
 Center     Atomic      Atomic             Coordinates (Angstroms)
 Number     Number       Type             X           Y           Z
 ---------------------------------------------------------------------
      1          1           0       -1.932191    1.832739    0.434150
      2          6           0       -1.116501    1.184480    0.083570
      3          6           0        1.230979    0.411180    0.734830
      4          6           0       -0.666531   -1.264080    0.265820
      5          6           0        0.791849   -0.873470    0.006270
      6          8           0       -1.591211   -0.140711    0.285950
      7          6           0        0.118469    1.460560    0.947010
      8          1           0       -0.751770   -1.719800    1.260690
      9          1           0        0.879689   -0.697680   -1.075150
     10          1           0        0.502199    2.456260    0.674990
     11          6           0       -0.925211    1.534140   -1.399660
     12          1           0       -1.772151    1.111829   -1.959980
     13          1           0       -0.001201    1.099900   -1.801440
     14          8           0       -1.046960   -2.141080   -0.739220
     15          1           0       -1.952240   -2.447671   -0.513470
     16          1           0        1.591389    0.119610    1.727820
     17          8           0       -0.895621    2.957870   -1.472320
     18          1           0       -0.635211    3.207360   -2.371220
     19          8           0        1.588910   -1.970600    0.395890
     20          1           0        2.405530   -1.940930   -0.149870
     21          8           0        2.318099    0.956500   -0.046420
     22          1           0        2.693469    1.702890    0.447640
     23          8           0       -0.200151    1.396100    2.335030
     24          1           0       -1.013811    1.902910    2.484500
     25          8           0       -3.735850   -1.958351    0.010790
     26          1           0       -3.301181   -1.101211    0.194390
     27          1           0       -4.158390   -1.826231   -0.851940
     28          8           0        3.903679   -1.192220   -0.939490
     29          1           0        3.529869   -0.318520   -0.694140
     30          1           0        4.590519   -1.358369   -0.275720
 ---------------------------------------------------------------------
 Rotational constants (GHZ):      0.6539352      0.4904288      0.3693406
 1\1\GINC-N159\FTS\RB3LYP\6-31G(d)\C6H16O8\ROOT\31-Jan-2017\0\\# opt=(c
 alcfc,ts,noeigentest,maxcycle=1000,cartesian) b3lyp 6-31g(d) freq\\./1
 /glo_1w_beta_boat1_b3lyp_631Gd_iopt.out\\0,1\H,-1.93219,1.83274,0.4341
 5\C,-1.1165,1.18448,0.08357\C,1.23098,0.41118,0.73483\C,-0.66653,-1.26
 408,0.26582\C,0.79185,-0.87347,0.00627\O,-1.59121,-0.14071,0.28595\C,0
 .11847,1.46056,0.94701\H,-0.75177,-1.7198,1.26069\H,0.87969,-0.69768,-
 1.07515\H,0.5022,2.45626,0.67499\C,-0.92521,1.53414,-1.39966\H,-1.7721
 5,1.11183,-1.95998\H,-0.0012,1.0999,-1.80144\O,-1.04696,-2.14108,-0.73
 922\H,-1.95224,-2.44767,-0.51347\H,1.59139,0.11961,1.72782\O,-0.89562,
 2.95787,-1.47232\H,-0.63521,3.20736,-2.37122\O,1.58891,-1.9706,0.39589
 \H,2.40553,-1.94093,-0.14987\O,2.3181,0.9565,-0.04642\H,2.69347,1.7028
 9,0.44764\O,-0.20015,1.3961,2.33503\H,-1.01381,1.90291,2.4845\O,-3.735
 85,-1.95835,0.01079\H,-3.30118,-1.10121,0.19439\H,-4.15839,-1.82623,-0
 .85194\O,3.90368,-1.19222,-0.93949\H,3.52987,-0.31852,-0.69414\H,4.590
 52,-1.35837,-0.27572\\Version=ES64L-G09RevE.01\State=1-A\HF=-839.97945
 77\RMSD=9.277e-09\RMSF=9.255e-06\Dipole=0.2392076,2.0349149,-0.3053506
 \Polar=0.,0.,0.,0.,0.,0.\Quadrupole=7.4951046,-6.510506,-0.9845986,1.2
 69544,7.7020762,-0.994122\PG=C01 [X(C6H16O8)]\\@


 A warm smile is the universal language of kindness.
                             -- William Arthur Ward
 Job cpu time:       0 days  0 hours 33 minutes 50.3 seconds.
 File lengths (MBytes):  RWF=    220 Int=      0 D2E=      0 Chk=      6 Scr=      1
 Normal termination of Gaussian 09 at Tue Jan 31 07:15:19 2017.
 Link1:  Proceeding to internal job step number  2.
 --------------------------------------------------------------------
 #N Geom=AllCheck Guess=TCheck SCRF=Check GenChk RB3LYP/6-31G(d) Freq
 --------------------------------------------------------------------
 1/5=1,6=1000,10=4,11=1,29=7,30=1,38=1,40=1/1,3;
 2/12=2,40=1/2;
 3/5=1,6=6,7=1,11=2,14=-4,16=1,25=1,30=1,70=2,71=2,74=-5,116=1,140=1/1,2,3;
 4/5=101/1;
 5/5=2,38=6,98=1/2;
 8/6=4,10=90,11=11/1;
 11/6=1,8=1,9=11,15=111,16=1/1,2,10;
 10/6=1/2;
 6/7=2,8=2,9=2,10=2,18=1,28=1/1;
 7/8=1,10=1,25=1/1,2,3,16;
 1/5=1,6=1000,10=4,11=1,30=1/3;
 99//99;
 Structure from the checkpoint file:  "/scratch/10501394.yak.local/Gau-19249.chk"
 ------------------------------------------
 ./1/glo_1w_beta_boat1_b3lyp_631Gd_iopt.out
 ------------------------------------------
 Charge =  0 Multiplicity = 1
 No Z-Matrix found in file; cartesian coordinates used.
  H                                                -1.932190000000      1.832740000000      0.434150000000
  C                                                -1.116500000000      1.184480000000      0.083570000000
  C                                                 1.230980000000      0.411180000000      0.734830000000
  C                                                -0.666530000000     -1.264080000000      0.265820000000
  C                                                 0.791850000000     -0.873470000000      0.006270000000
  O                                                -1.591210000000     -0.140710000000      0.285950000000
  C                                                 0.118470000000      1.460560000000      0.947010000000
  H                                                -0.751770000000     -1.719800000000      1.260690000000
  H                                                 0.879690000000     -0.697680000000     -1.075150000000
  H                                                 0.502200000000      2.456260000000      0.674990000000
  C                                                -0.925210000000      1.534140000000     -1.399660000000
  H                                                -1.772150000000      1.111830000000     -1.959980000000
  H                                                -0.001200000000      1.099900000000     -1.801440000000
  O                                                -1.046960000000     -2.141080000000     -0.739220000000
  H                                                -1.952240000000     -2.447670000000     -0.513470000000
  H                                                 1.591390000000      0.119610000000      1.727820000000
  O                                                -0.895620000000      2.957870000000     -1.472320000000
  H                                                -0.635210000000      3.207360000000     -2.371220000000
  O                                                 1.588910000000     -1.970600000000      0.395890000000
  H                                                 2.405530000000     -1.940930000000     -0.149870000000
  O                                                 2.318100000000      0.956500000000     -0.046420000000
  H                                                 2.693470000000      1.702890000000      0.447640000000
  O                                                -0.200150000000      1.396100000000      2.335030000000
  H                                                -1.013810000000      1.902910000000      2.484500000000
  O                                                -3.735850000000     -1.958350000000      0.010790000000
  H                                                -3.301180000000     -1.101210000000      0.194390000000
  H                                                -4.158390000000     -1.826230000000     -0.851940000000
  O                                                 3.903680000000     -1.192220000000     -0.939490000000
  H                                                 3.529870000000     -0.318520000000     -0.694140000000
  H                                                 4.590520000000     -1.358370000000     -0.275720000000
 Recover connectivity data from disk.

 GradGradGradGradGradGradGradGradGradGradGradGradGradGradGradGradGradGrad
 Berny optimization.
 Initialization pass.
 Trust Radius=3.00D-01 FncErr=1.00D-07 GrdErr=1.00D-07
 Number of steps in this run=      2 maximum allowed number of steps=      2.
 Search for a saddle point of order  1.
 GradGradGradGradGradGradGradGradGradGradGradGradGradGradGradGradGradGrad

                          Input orientation:                          
 ---------------------------------------------------------------------
 Center     Atomic      Atomic             Coordinates (Angstroms)
 Number     Number       Type             X           Y           Z
 ---------------------------------------------------------------------
      1          1           0       -1.932190    1.832740    0.434150
      2          6           0       -1.116500    1.184480    0.083570
      3          6           0        1.230980    0.411180    0.734830
      4          6           0       -0.666530   -1.264080    0.265820
      5          6           0        0.791850   -0.873470    0.006270
      6          8           0       -1.591210   -0.140710    0.285950
      7          6           0        0.118470    1.460560    0.947010
      8          1           0       -0.751770   -1.719800    1.260690
      9          1           0        0.879690   -0.697680   -1.075150
     10          1           0        0.502200    2.456260    0.674990
     11          6           0       -0.925210    1.534140   -1.399660
     12          1           0       -1.772150    1.111830   -1.959980
     13          1           0       -0.001200    1.099900   -1.801440
     14          8           0       -1.046960   -2.141080   -0.739220
     15          1           0       -1.952240   -2.447670   -0.513470
     16          1           0        1.591390    0.119610    1.727820
     17          8           0       -0.895620    2.957870   -1.472320
     18          1           0       -0.635210    3.207360   -2.371220
     19          8           0        1.588910   -1.970600    0.395890
     20          1           0        2.405530   -1.940930   -0.149870
     21          8           0        2.318100    0.956500   -0.046420
     22          1           0        2.693470    1.702890    0.447640
     23          8           0       -0.200150    1.396100    2.335030
     24          1           0       -1.013810    1.902910    2.484500
     25          8           0       -3.735850   -1.958350    0.010790
     26          1           0       -3.301180   -1.101210    0.194390
     27          1           0       -4.158390   -1.826230   -0.851940
     28          8           0        3.903680   -1.192220   -0.939490
     29          1           0        3.529870   -0.318520   -0.694140
     30          1           0        4.590520   -1.358370   -0.275720
 ---------------------------------------------------------------------
                    Distance matrix (angstroms):
                    1          2          3          4          5
     1  H    0.000000
     2  C    1.099317   0.000000
     3  C    3.480932   2.555933   0.000000
     4  C    3.349705   2.496224   2.574298   0.000000
     5  C    3.863554   2.807656   1.540766   1.531932   0.000000
     6  O    2.008167   1.422124   2.910469   1.455128   2.508811
     7  C    2.146334   1.531959   1.543987   2.916146   2.605020
     8  H    3.833680   3.154914   2.957854   1.097594   2.161621
     9  H    4.072798   2.978243   2.151512   2.123630   1.099130
    10  H    2.524487   2.141820   2.171878   3.921005   3.408546
    11  C    2.113298   1.535847   3.235157   3.266615   3.274373
    12  H    2.505431   2.147382   4.095327   3.438245   3.792315
    13  H    3.043623   2.191874   2.902631   3.210082   2.791224
    14  O    4.236942   3.426539   3.725032   1.387069   2.354530
[...]
 050265,-0.00008545,0.00003053,0.00000677,-0.00001494,-0.00029451,-0.00
 015615,-0.00002930,0.00009008,0.00006943,-0.00003477,0.00012345,-0.000
 35535,-0.00084479,-0.00011735,-0.00002391,0.00006058,0.21995991,-0.140
 08641,-0.03921085,-0.21781087,0.13899444,-0.00250670,0.00090184,-0.000
 72955,0.00192106,-0.00332356,0.00087137,0.00026419,0.00191697,-0.00658
 516,0.00101525,-0.00145744,-0.00009970,0.00071828,-0.00009710,0.000478
 18,-0.00072956,0.00182266,0.00001643,0.03930303,-0.02499311,-0.0124722
 0,-0.00016318,0.00012791,-0.00005844,0.00000936,0.00006533,-0.00002471
 ,0.00010105,0.00052002,0.00047699,0.00013310,0.00122009,0.00004831,0.0
 0000146,-0.00007217,0.00038544,-0.00016283,-0.00009307,0.00050317,-0.0
 0008606,0.00063177,0.00025309,-0.00010657,-0.00017978,0.00002280,0.000
 40959,-0.00000282,0.00005474,-0.00009627,-0.00029717,0.00009278,0.0000
 1022,0.00013566,0.00001087,-0.00032343,-0.00009185,-0.00005021,0.00013
 075,0.00003059,-0.00004967,0.00176227,-0.00106544,-0.00053997,-0.00008
 041,-0.00008429,-0.00006842,0.02728722,-0.00945033,-0.05019064,-0.0685
 8962,0.03388859,0.06761803,0.00012055,-0.00065213,-0.00013510,-0.00087
 280,0.00436285,-0.00114960,0.00018067,0.00077591,0.00012356,0.00208678
 ,0.00614586,0.00659993,0.00073546,-0.00082908,-0.00059700,-0.00330529,
 -0.01043824,-0.00066374,-0.00028973,-0.00066470,0.00097943,-0.00014302
 ,-0.00038569,-0.00081553,0.00016094,0.00012841,-0.00011159,-0.00037971
 ,-0.00023951,-0.00032229,-0.00028626,0.00022286,-0.00056527,-0.0000034
 7,0.00010667,-0.00001013,0.00011635,0.00002463,-0.00002789,-0.01846464
 ,-0.00194488,0.00141022,0.00369848,-0.00450256,-0.00156561,-0.00011627
 ,-0.00009481,-0.00007709,0.00013633,-0.00091066,0.00051494,-0.00008997
 ,0.00004053,-0.00004060,-0.00124129,0.00008965,-0.00013408,0.00065485,
 0.00003921,-0.00026569,-0.00070584,-0.00054604,0.00007983,0.00005898,-
 0.00003552,0.00001948,0.00003499,-0.00028852,-0.00067284,-0.00002949,0
 .00009591,0.00029927,0.22108660,0.00009035,0.00018817,0.00004201,-0.00
 094669,0.00268927,-0.00077967,0.00062739,-0.00019040,-0.00010571,0.001
 34230,-0.00755479,-0.00287950,0.00028929,0.00078185,0.00025527,-0.0078
 2586,-0.00187172,-0.00053906,0.00004594,-0.00067062,0.00055727,-0.0002
 1532,0.00043400,0.00020198,-0.00009284,-0.00005920,0.00003873,-0.00032
 640,-0.00008423,-0.00019266,0.00029024,0.00014792,-0.00024213,-0.00000
 312,-0.00002892,-0.00019147,-0.00017185,-0.00005401,0.00006479,0.00453
 730,0.00572723,0.00163064,-0.00480585,-0.00502369,-0.00116811,-0.00005
 907,0.00007114,0.00001777,-0.00023008,-0.00037209,0.00024309,0.0000636
 8,-0.00000015,-0.00001187,-0.00052476,0.00057215,0.00019542,-0.0000317
 6,-0.00004867,-0.00015553,-0.00029459,0.00020864,0.00013191,0.00014569
 ,-0.00001620,-0.00000184,-0.00020239,-0.00003434,-0.00028443,0.0000922
 0,0.00015177,0.00017704,0.15835816,0.43064927,0.00002047,0.00018921,-0
 .00003991,-0.00053670,0.00036816,0.00019235,0.00026511,-0.00019600,-0.
 00012648,0.00067795,-0.00337456,-0.00462919,0.00002120,0.00055839,0.00
 058338,-0.00226400,-0.00048558,0.00291528,0.00009099,-0.00010565,-0.00
 024435,0.00042494,0.00018637,0.00100581,-0.00026914,-0.00010444,0.0000
 8250,-0.00006488,-0.00000925,0.00001207,-0.00036722,-0.00050870,-0.000
 41274,0.00016937,-0.00003979,0.00015407,-0.00002401,0.00000710,0.00007
 342,0.00613441,0.00075675,0.00525231,-0.00418095,0.00082364,-0.0078878
 8,0.00004043,0.00004355,0.00004680,0.00007082,0.00028472,0.00021150,-0
 .00002852,-0.00007797,0.00001088,0.00009890,0.00011716,0.00018640,-0.0
 0011886,-0.00003611,-0.00003450,0.00002624,0.00013733,0.00011248,0.000
 03552,0.00002079,-0.00002576,-0.00020669,-0.00010401,0.00032537,0.0001
 0027,0.00016794,-0.00006866,0.23714106,-0.00659334,0.45326777,-0.00018
 628,0.00062314,0.00020152,0.00205532,-0.00689001,0.00102297,-0.0008324
 8,-0.00025739,-0.00004101,-0.00629851,0.00628648,0.00034554,-0.0007623
 0,-0.00048709,-0.00007315,-0.00085431,0.00386845,-0.00108658,0.0002985
 6,0.00136646,-0.00124038,0.00017691,-0.00032633,-0.00008462,0.00011720
 ,0.00002582,-0.00003559,0.00064130,0.00028047,0.00047859,0.00035867,0.
 00035968,0.00104203,-0.00008659,-0.00012012,0.00002760,-0.00000541,-0.
 00000995,-0.00006904,-0.00116425,-0.00275413,-0.00111516,0.00188363,0.
 00588227,0.00224909,0.00011302,-0.00002583,0.00001682,-0.00002990,0.00
 087360,-0.00081190,0.00006014,0.00005726,0.00001423,0.00127424,-0.0005
 7353,-0.00015856,-0.00032815,-0.00000735,0.00030947,0.00064963,0.00017
 161,-0.00016807,-0.00015864,0.00002780,-0.00000366,0.00010894,0.000232
 64,0.00072647,0.00001408,-0.00016432,-0.00036443,-0.10249438,-0.154685
 57,-0.05776762,0.11419739,-0.00012892,-0.00017880,-0.00002359,-0.00006
 163,-0.00321691,0.00043520,-0.00059328,0.00015602,0.00011709,0.0020820
 0,0.00990425,0.00201872,-0.00015370,-0.00118973,0.00029753,0.00295372,
 -0.00549250,-0.00051605,-0.00001728,0.00045706,-0.00057019,0.00034618,
 -0.00073329,0.00024873,-0.00001843,0.00004895,-0.00003058,0.00029269,0
 .00009115,0.00017527,-0.00010456,0.00001827,0.00039415,-0.00004087,0.0
 0001268,0.00019757,0.00015469,0.00006380,-0.00008588,-0.00428570,-0.00
 212049,-0.00111193,0.00590883,-0.00393081,-0.00247630,0.00007273,-0.00
 006402,-0.00001580,0.00016490,0.00035666,-0.00034353,-0.00002349,0.000
 02201,0.00000597,0.00074776,-0.00050125,-0.00026483,0.00003260,-0.0000
 0964,0.00019809,0.00027957,-0.00015847,-0.00012812,-0.00013108,0.00001
 377,-0.00000181,0.00019852,0.00005014,0.00032974,-0.00009694,-0.000150
 64,-0.00022155,-0.18171005,-0.37040036,-0.08145223,0.16726406,0.371386
 98,-0.00005813,-0.00016638,0.00011927,0.00044035,-0.00040772,-0.000713
 89,-0.00010467,0.00003799,0.00005631,0.00096573,0.00185912,0.00336325,
 0.00008393,-0.00021694,-0.00013066,0.00024987,0.00034225,-0.00334212,-
 0.00018445,-0.00017738,0.00036107,-0.00039019,0.00011861,-0.00056701,0
 .00013599,0.00003920,-0.00008858,-0.00000244,0.00000248,-0.00006140,0.
 00065790,0.00075982,0.00056775,-0.00020567,0.00004896,-0.00031533,-0.0
 0005377,-0.00003946,-0.00009484,-0.00275068,-0.00012903,-0.00162684,0.
 00319394,-0.00282032,0.00046609,-0.00003934,-0.00000997,-0.00003051,-0
 .00015366,-0.00031045,-0.00029421,0.00005121,0.00008814,-0.00001574,-0
 .00002767,-0.00007553,-0.00014368,0.00005353,0.00002024,0.00004084,0.0
 0001987,-0.00002603,-0.00010005,-0.00001167,-0.00001209,0.00001928,0.0
 0028102,0.00020418,-0.00035055,-0.00014461,-0.00024747,0.00005471,-0.0
 3915125,-0.02864718,-0.05555203,0.05880672,0.07268170,0.06958911,-0.00
 001248,0.00010429,0.00001859,-0.00024492,-0.00062733,0.00000583,-0.000
 03896,-0.00014132,-0.00003391,-0.00013384,-0.00096264,-0.00175937,-0.0
 0019398,0.00017060,0.00014644,0.00014676,0.00033247,0.00095468,0.00001
 220,-0.00002438,-0.00016250,0.00010220,0.00008462,0.00038849,-0.000086
 80,-0.00004009,0.00001950,0.00004170,0.00004051,0.00003299,-0.00020783
 ,-0.00036677,-0.00008739,0.00010905,-0.00003677,0.00012153,0.00000029,
 0.00001377,0.00002905,0.00110238,0.00014099,0.00267709,-0.00279056,0.0
 0123847,-0.00425235,0.00003244,0.00001501,0.00001846,0.00004554,0.0004
 1811,-0.00003049,-0.00000070,-0.00005256,0.00001886,0.00029415,-0.0000
 4995,0.00006006,-0.00014748,-0.00001357,0.00004732,0.00017005,0.000104
 97,-0.00000262,-0.00001984,0.00000622,-0.00000715,0.00002418,0.0000729
 0,0.00020744,0.00000096,-0.00003087,-0.00008357,-0.10049591,0.00448643
 ,-0.17952614,-0.00880213,0.00689449,-0.02164439,0.11106090,0.00001157,
 -0.00007668,-0.00006366,-0.00031902,0.00003768,-0.00003253,-0.00008918
 ,0.00000326,0.00003296,-0.00037763,0.00044399,0.00019431,-0.00007402,0
 .00000812,-0.00009109,-0.00013215,-0.00109884,0.00077275,-0.00005578,-
 0.00008627,-0.00005409,-0.00004079,-0.00006485,-0.00007574,0.00001934,
 0.00001719,0.00001855,0.00000531,0.00000346,-0.00000974,-0.00031776,-0
 .00029297,-0.00016744,0.00005453,0.00004447,0.00015959,0.00009946,0.00
 003243,0.00002430,0.00054917,-0.00040832,-0.00101233,0.00031007,0.0003
 7201,0.00259221,0.00001804,-0.00001108,0.00000165,0.00015208,0.0001962
 9,0.00003963,-0.00005426,-0.00003449,0.00001204,0.00012743,-0.00013862
 ,-0.00001838,-0.00003798,0.00002793,0.00004173,0.00010861,-0.00002797,
 -0.00002290,-0.00003336,0.00000608,-0.00000283,0.00006295,0.00001995,0
 .00010106,-0.00002281,-0.00002377,-0.00004825,0.03296734,-0.05517214,0
 .08942103,-0.02111907,0.00551854,-0.04291821,-0.01180483,0.05069062,-0
 .00000025,-0.00004149,-0.00002467,-0.00008986,-0.00013540,0.00008362,-
 0.00002795,-0.00000239,0.00001801,-0.00023001,0.00027808,-0.00007476,-
 0.00007050,-0.00003279,0.00003351,0.00054065,0.00002159,0.00011736,0.0
 0002431,0.00001049,-0.00000302,-0.00004042,-0.00005335,-0.00002387,0.0
 0002466,0.00001292,-0.00000766,0.00002408,0.00001370,0.00001020,0.0000
 7703,0.00007637,0.00010014,-0.00004969,0.00000857,0.00001076,0.0000183
 8,0.00000335,-0.00001555,0.00118382,0.00004643,-0.00088836,-0.00120375
 ,0.00034349,0.00165643,0.00000386,-0.00000234,-0.00000266,-0.00001008,
 -0.00004657,-0.00006783,0.00001393,0.00002133,0.00000504,0.00005088,-0
 .00003276,-0.00003324,-0.00000730,0.00000650,0.00002794,0.00003881,0.0
 0000434,-0.00002615,-0.00000767,0.00000095,0.00000240,0.00002215,0.000
 00976,-0.00003215,-0.00002282,-0.00001705,-0.00000504,-0.20096381,0.03
 823878,-0.39540082,-0.00215823,0.01015134,-0.01121407,0.20286258,-0.04
 888983,0.40575811,-0.00015982,0.00012392,-0.00000437,0.00006090,-0.000
 64790,0.00027719,0.00077265,0.00061638,-0.00083574,0.00154604,0.000326
 47,0.00017503,0.00332053,-0.00582531,0.00190642,-0.00144468,0.00080743
 ,-0.00016486,0.00039420,-0.00021201,-0.00029536,-0.00007701,0.00005219
 ,-0.00015134,0.00022576,0.00040777,-0.00026878,-0.00004075,0.00012983,
 0.00009287,0.00028235,-0.00043801,0.00013830,-0.00009795,0.00003453,-0
 .00002321,-0.00007655,0.00000084,0.00019273,-0.00108764,-0.00039151,-0
 .00044115,0.00051463,0.00012504,-0.00001151,-0.00007741,-0.00019083,0.
 00000104,-0.00013880,0.00065770,-0.00025144,0.00000289,-0.00011366,0.0
 0005160,-0.01613964,-0.00214394,0.00897260,0.00039074,0.00555198,-0.00
 258175,-0.00064015,0.00702533,0.00314963,-0.00240298,0.00084615,0.0006
 5421,-0.00035262,0.00034319,0.00053125,-0.00006607,-0.00003840,-0.0000
 8713,-0.00067571,-0.00010105,0.00007382,0.00047785,0.00011453,-0.00002
 172,0.00015713,0.00006211,0.00001669,0.35775638,0.00015552,0.00011294,
 0.00002534,-0.00037175,-0.00099024,-0.00020270,-0.00395749,-0.00400567
 ,0.00253651,0.00015000,-0.00011779,-0.00039300,0.00175473,-0.00514842,
 0.00186349,-0.00064031,0.00120653,0.00000703,0.00065836,0.00088657,-0.
 00024463,0.00020623,0.00010126,-0.00010193,-0.00049208,0.00045246,-0.0
 0061414,-0.00014165,0.00047763,-0.00004666,-0.00016248,0.00005452,0.00
 003701,0.00011837,-0.00001472,0.00006370,-0.00006601,-0.00010178,-0.00
 009782,-0.00010032,0.00058568,0.00009861,0.00015606,-0.00010167,0.0000
 6223,0.00037124,0.00013050,-0.00055427,0.00025366,0.00014458,0.0000106
 4,-0.00014706,0.00004204,-0.00005268,-0.00960028,0.00512351,0.00266080
 ,0.00763562,-0.00591803,0.00027668,0.01032530,-0.00469382,-0.00568878,
 0.00120800,0.00028958,0.00003471,0.00078485,-0.00004313,-0.00043453,-0
 .00002122,-0.00012993,-0.00010398,-0.00006089,0.00011836,0.00002732,-0
 .00003610,-0.00007737,-0.00001029,0.00001048,-0.00003643,-0.00000591,-
 0.21152560,0.42587082,0.00010550,-0.00004264,0.00005621,-0.00005124,0.
 00031027,-0.00031969,-0.00110810,-0.00034586,0.00055684,-0.00071825,-0
 .00065437,0.00018785,-0.00197551,0.00365139,-0.00261179,0.00092395,-0.
 00034816,0.00020234,-0.00026539,0.00013629,0.00008176,-0.00020110,-0.0
 0006292,0.00011928,0.00065640,-0.00069998,0.00079072,0.00002936,-0.000
 06571,-0.00005516,0.00004775,0.00008778,-0.00016612,0.00003824,-0.0000
 1105,0.00005000,-0.00002062,-0.00000961,-0.00010064,0.00063367,0.00027
 414,0.00042204,-0.00023206,-0.00004448,0.00000497,-0.00012922,0.000234
 49,0.00035285,0.00000469,-0.00023413,0.00020392,0.00005916,0.00000353,
 -0.00002731,0.01055814,0.00101094,0.00037882,-0.00512034,-0.00145806,-
 0.00683240,0.00316478,-0.00380428,0.00172607,0.00021158,0.00055894,0.0
 0003277,0.00029847,-0.00017580,-0.00013846,0.00002336,-0.00000286,0.00
 000285,0.00030202,0.00007161,0.00001179,-0.00024256,-0.00007984,-0.000
 02306,-0.00005722,-0.00003501,-0.00002269,0.20842193,0.06728759,0.3163
 7284,0.00021230,0.00000360,0.00001411,-0.00031804,-0.00023189,-0.00030
 997,-0.00507759,-0.00180684,0.00300802,-0.00101791,-0.00019427,-0.0005
 3455,-0.00067141,-0.00179612,0.00086216,0.00038871,0.00030584,0.000105
 60,0.00008921,0.00061134,0.00016636,0.00027134,0.00010013,-0.00004862,
 -0.00053756,-0.00010767,-0.00072232,-0.00005373,0.00021175,-0.00008367
 ,-0.00028934,0.00039448,-0.00005551,0.00015224,-0.00004475,0.00005090,
 -0.00001673,-0.00007818,-0.00023205,0.00062988,0.00063906,0.00034456,-
 0.00021182,-0.00010943,0.00005710,0.00056160,0.00027073,-0.00053551,0.
 00022863,-0.00039569,0.00018082,-0.00006020,0.00010687,-0.00006675,-0.
 00223857,0.00210164,0.00072180,0.00381048,-0.00535707,-0.00096822,-0.0
 0505679,-0.00082579,-0.00160345,0.00453406,-0.00147728,-0.00167110,0.0
 0072434,-0.00025519,-0.00065795,0.00004194,-0.00006210,-0.00000645,0.0
 0037320,0.00012418,-0.00002670,-0.00031437,-0.00011197,0.00000439,-0.0
 0008923,-0.00005536,-0.00001473,-0.08994598,0.12267680,0.00763817,0.10
 695912,-0.00021214,-0.00010643,-0.00005259,0.00040911,0.00097191,0.000
 35301,0.00420857,0.00706989,-0.00289683,-0.00023732,0.00051760,-0.0000
 7512,-0.00308586,0.00419555,0.00027608,0.00034663,-0.00113818,-0.00007
 156,-0.00088019,-0.00135548,0.00048924,0.00001511,-0.00005315,0.000073
 42,0.00000349,-0.00008628,-0.00005770,0.00021546,-0.00047966,0.0000575
 0,0.00011397,-0.00009991,0.00001385,-0.00013645,0.00002432,-0.00008286
 ,0.00010925,0.00014307,0.00013446,-0.00004250,-0.00056434,-0.00014945,
 -0.00009846,0.00007463,-0.00006974,-0.00082780,-0.00034611,0.00090345,
 -0.00025368,-0.00008442,-0.00007788,0.00013036,-0.00004768,0.00006448,
 0.00569120,-0.00080800,-0.00132750,-0.00666363,-0.00677502,0.00248336,
 -0.00513047,-0.00829064,0.00264610,-0.00066629,-0.00123055,0.00010365,
 -0.00104703,0.00021363,0.00057212,0.00000172,0.00014979,0.00014793,-0.
 00001028,-0.00012330,-0.00002677,0.00009267,0.00009901,0.00001401,0.00
 000573,0.00003666,0.00001015,0.15823445,-0.36047986,-0.08522681,-0.147
 89971,0.37396164,-0.00013918,-0.00002529,-0.00007662,0.00018813,0.0001
 6141,0.00035657,0.00366732,0.00129351,-0.00240187,0.00041952,0.0002069
 2,-0.00009464,0.00102077,-0.00008487,0.00175377,-0.00025266,-0.0001751
 3,-0.00016786,-0.00010391,-0.00033452,0.00008096,0.00006485,0.00001979
 ,-0.00002895,-0.00040358,0.00012109,-0.00039884,0.00005022,-0.00014232
 ,0.00006985,-0.00012349,-0.00002130,0.00014361,-0.00002735,0.00001110,
 -0.00007851,0.00005959,0.00002727,0.00010588,-0.00036737,-0.00030600,-
 0.00026333,0.00007606,0.00003263,-0.00003139,0.00005942,-0.00025645,-0
 .00013013,-0.00000299,0.00006811,-0.00016772,-0.00006561,0.00001106,0.
 00001962,-0.00065583,-0.00107763,-0.00113770,0.00006416,0.00267673,0.0
 0158075,-0.00339046,0.00138779,-0.00246274,-0.00004038,-0.00138181,-0.
 00025085,-0.00053704,0.00012596,0.00021081,-0.00000613,0.00004887,0.00
 006078,-0.00014411,-0.00006184,-0.00001904,0.00013807,0.00005978,0.000
 02224,0.00002541,0.00002272,0.00001581,0.03308450,-0.12660372,-0.06569
 782,-0.01558900,0.08925014,0.06367713,0.00004833,-0.00001805,0.0000113
 8,-0.00002363,0.00009034,-0.00010028,-0.00038727,-0.00002419,0.0000024
 7,-0.00032806,-0.00020266,0.00005128,-0.00047048,0.00095626,-0.0006549
 8,0.00032840,-0.00012434,0.00004263,-0.00011614,0.00005869,0.00011905,
 -0.00005288,-0.00000066,0.00001124,0.00017516,-0.00020017,0.00024030,0
 .00002174,-0.00004683,-0.00001724,-0.00004110,0.00009029,-0.00004927,0
 .00002248,-0.00000715,0.00001399,0.00000675,-0.00000907,-0.00004083,0.
 00025429,0.00008975,0.00011993,-0.00011205,-0.00001657,0.00000378,-0.0
 0005624,0.00009312,0.00016155,0.00003170,-0.00013476,0.00006777,-0.000
 00134,0.00002458,-0.00001217,0.00173253,-0.00058844,0.00154867,-0.0044
 2629,0.00011120,-0.00334604,0.00098373,-0.00033328,0.00060911,-0.00016
 752,0.00033570,-0.00005251,0.00009891,-0.00007954,-0.00009244,0.000013
 17,0.00000036,0.00002011,0.00014962,0.00002406,-0.00001008,-0.00010917
 ,-0.00002939,-0.00000014,-0.00003526,-0.00001402,-0.00000477,-0.252478
 31,0.08085803,-0.22299555,-0.01307778,-0.00238592,-0.01706891,0.268016
 71,-0.00002369,-0.00000833,-0.00000148,0.00005876,0.00009578,0.0000262
 7,0.00051587,0.00006948,-0.00028412,0.00009398,0.00006258,0.00003702,0
 .00014649,0.00016872,-0.00001206,-0.00001743,-0.00013556,-0.00000904,0
 .00003332,-0.00003057,-0.00004198,-0.00004371,-0.00000483,0.00000727,0
 .00025272,-0.00011705,0.00000716,-0.00000406,-0.00003398,0.00001043,0.
 00004435,-0.00001173,0.00000167,-0.00002058,-0.00000074,-0.00001124,-0
 .00000178,0.00000744,0.00002182,-0.00007783,-0.00014834,-0.00003323,0.
 00001272,0.00004404,-0.00001262,0.00004085,0.00001882,-0.00001703,-0.0
 0005546,-0.00000309,-0.00001223,0.00003167,-0.00000724,0.00001251,-0.0
 0061256,-0.00094486,0.00144852,-0.00093389,0.00187584,-0.00310858,-0.0
 0095623,-0.00070673,-0.00110776,0.00068636,-0.00052996,-0.00015535,-0.
 00010469,-0.00001191,0.00006716,0.00001005,0.00002289,-0.00000450,-0.0
 0004442,-0.00003496,0.00000492,0.00004435,0.00002498,-0.00000225,0.000
 01101,0.00001376,0.00000177,0.04616835,-0.05373811,0.01967461,0.033262
 86,-0.00538871,0.03494599,-0.07851735,0.05945236,-0.00001866,0.0000022
 1,-0.00000519,0.00000172,-0.00001517,0.00004236,0.00008925,-0.00024497
 ,0.00027321,0.00008023,0.00004847,0.00001059,0.00014423,-0.00015967,0.
 00008069,-0.00009661,0.00003712,-0.00002961,0.00007270,-0.00001255,-0.
 00004570,0.00002985,0.00000407,-0.00000918,-0.00010701,0.00004399,-0.0
 0008067,-0.00000761,0.00002950,-0.00000115,0.00001488,-0.00004735,0.00
 002411,-0.00000804,0.00000334,-0.00000777,-0.00000236,0.00000029,0.000
 01145,-0.00009758,-0.00004834,-0.00006037,0.00004191,0.00000825,0.0000
 0520,0.00007411,-0.00001485,-0.00013713,-0.00000700,0.00006231,-0.0000
 3075,-0.00000504,-0.00001173,0.00000479,0.00024648,0.00034016,-0.00134
 670,0.00041464,-0.00072813,0.00204985,0.00024464,-0.00029600,-0.000790
 17,0.00013260,-0.00026219,0.00007458,-0.00002642,0.00002262,-0.0000191
 0,-0.00000170,0.00000012,-0.00000817,-0.00005655,-0.00001196,-0.000002
 80,0.00004146,0.00001137,0.00000464,0.00001278,0.00000748,0.00000320,-
 0.25260144,0.06016337,-0.24555878,0.00997257,-0.00747814,0.00531023,0.
 24142195,-0.05145366,0.24023833\\-0.00001082,0.00000195,0.00000372,0.0
 0000380,-0.00000548,-0.00000562,-0.00000614,0.00000354,-0.00000132,0.0
 0001010,0.00000546,-0.00001099,0.00000263,0.00000995,-0.00000648,-0.00
 000628,-0.00000611,-0.00000104,-0.00000406,-0.00000312,0.00000357,0.00
 000050,-0.00000406,0.00000864,0.00000069,0.00000088,0.00000467,-0.0000
 0411,0.00000136,0.00000280,-0.00000634,-0.00000410,-0.00000144,0.00000
 393,-0.00000055,0.00000213,0.00000016,0.00000163,0.00000148,-0.0000011
 3,-0.00001578,-0.00001197,0.00000905,-0.00000371,-0.00000352,0.0000022
 4,-0.00000022,0.00000551,-0.00000974,0.00000014,0.00000943,-0.00000127
 ,0.00000122,-0.00000282,0.00001700,0.00000091,-0.00000528,-0.00000613,
 0.00000404,0.00000465,-0.00000306,0.00001119,0.00000475,-0.00000279,0.
 00000101,0.00000095,0.00001470,-0.00001748,0.00000042,-0.00002217,0.00
 001218,0.00000518,0.00002282,0.00000238,-0.00001415,-0.00000595,-0.000
 01616,0.00000133,0.00000026,-0.00000843,-0.00000480,-0.00002705,0.0000
 3463,-0.00000686,0.00000467,-0.00000698,-0.00000393,0.00002447,-0.0000
 0033,0.00002101\\\@


 HE THAT WALD REACHE THE SWEITE ROSE
 SULD NOW AND THEN BE SCRATCHED WT THE SCHARPE BREERES.
 -- PROVERBS AND REASONS OF THE YEAR 1585
           AS REPRINTED IN PAISLEY MAGAZINE 1828.
 Job cpu time:       0 days  0 hours 33 minutes 38.7 seconds.
 File lengths (MBytes):  RWF=    220 Int=      0 D2E=      0 Chk=      6 Scr=      1
 Normal termination of Gaussian 09 at Tue Jan 31 07:32:12 2017.
