 Entering Gaussian System, Link 0=g09
 Initial command:
 /global/software/gaussian/g09.e01/l1.exe "/scratch/10499774.yak.local/Gau-1346.inp" -scrdir="/scratch/10499774.yak.local/"
 Entering Link 1 = /global/software/gaussian/g09.e01/l1.exe PID=      1347.
  
 Copyright (c) 1988,1990,1992,1993,1995,1998,2003,2009,2015,
            Gaussian, Inc.  All Rights Reserved.
  
 This is part of the Gaussian(R) 09 program.  It is based on
 the Gaussian(R) 03 system (copyright 2003, Gaussian, Inc.),
 the Gaussian(R) 98 system (copyright 1998, Gaussian, Inc.),
 the Gaussian(R) 94 system (copyright 1995, Gaussian, Inc.),
 the Gaussian 92(TM) system (copyright 1992, Gaussian, Inc.),
 the Gaussian 90(TM) system (copyright 1990, Gaussian, Inc.),
 the Gaussian 88(TM) system (copyright 1988, Gaussian, Inc.),
 the Gaussian 86(TM) system (copyright 1986, Carnegie Mellon
 University), and the Gaussian 82(TM) system (copyright 1983,
 Carnegie Mellon University). Gaussian is a federally registered
 trademark of Gaussian, Inc.
  
 This software contains proprietary and confidential information,
 including trade secrets, belonging to Gaussian, Inc.
  
 This software is provided under written license and may be
 used, copied, transmitted, or stored only in accord with that
 written license.
  
 The following legend is applicable only to US Government
 contracts under FAR:
  
                    RESTRICTED RIGHTS LEGEND
  
 Use, reproduction and disclosure by the US Government is
 subject to restrictions as set forth in subparagraphs (a)
 and (c) of the Commercial Computer Software - Restricted
 Rights clause in FAR 52.227-19.
  
 Gaussian, Inc.
 340 Quinnipiac St., Bldg. 40, Wallingford CT 06492
  
  
 ---------------------------------------------------------------
 Warning -- This program may not be used in any manner that
 competes with the business of Gaussian, Inc. or will provide
 assistance to any competitor of Gaussian, Inc.  The licensee
 of this program is prohibited from giving any competitor of
 Gaussian, Inc. access to this program.  By using this program,
 the user acknowledges that Gaussian, Inc. is engaged in the
 business of creating and licensing software in the field of
 computational chemistry and represents and warrants to the
 licensee that it is not a competitor of Gaussian, Inc. and that
 it will not use this program in any manner prohibited above.
 ---------------------------------------------------------------
  

 Cite this work as:
 Gaussian 09, Revision E.01,
 M. J. Frisch, G. W. Trucks, H. B. Schlegel, G. E. Scuseria, 
 M. A. Robb, J. R. Cheeseman, G. Scalmani, V. Barone, B. Mennucci, 
 G. A. Petersson, H. Nakatsuji, M. Caricato, X. Li, H. P. Hratchian, 
 A. F. Izmaylov, J. Bloino, G. Zheng, J. L. Sonnenberg, M. Hada, 
 M. Ehara, K. Toyota, R. Fukuda, J. Hasegawa, M. Ishida, T. Nakajima, 
 Y. Honda, O. Kitao, H. Nakai, T. Vreven, J. A. Montgomery, Jr., 
 J. E. Peralta, F. Ogliaro, M. Bearpark, J. J. Heyd, E. Brothers, 
 K. N. Kudin, V. N. Staroverov, T. Keith, R. Kobayashi, J. Normand, 
 K. Raghavachari, A. Rendell, J. C. Burant, S. S. Iyengar, J. Tomasi, 
 M. Cossi, N. Rega, J. M. Millam, M. Klene, J. E. Knox, J. B. Cross, 
 V. Bakken, C. Adamo, J. Jaramillo, R. Gomperts, R. E. Stratmann, 
 O. Yazyev, A. J. Austin, R. Cammi, C. Pomelli, J. W. Ochterski, 
 R. L. Martin, K. Morokuma, V. G. Zakrzewski, G. A. Voth, 
 P. Salvador, J. J. Dannenberg, S. Dapprich, A. D. Daniels, 
 O. Farkas, J. B. Foresman, J. V. Ortiz, J. Cioslowski, 
 and D. J. Fox, Gaussian, Inc., Wallingford CT, 2013.
 
 ******************************************
 Gaussian 09:  ES64L-G09RevE.01 30-Nov-2015
                30-Jan-2017 
 ******************************************
 %NPROCS=4
 Will use up to    4 processors via shared memory.
 ----------------------------------------------------------------------
 # opt=(calcfc,ts,noeigentest,maxcycle=1000,cartesian) b3lyp 6-31g(d) f
 req
 ----------------------------------------------------------------------
 1/5=1,6=1000,10=4,11=1,14=-1,18=10,26=3,38=1/1,3;
 2/12=2,17=6,18=5,29=2,40=1/2;
 3/5=1,6=6,7=1,11=2,16=1,25=1,30=1,71=2,74=-5,140=1/1,2,3;
 4//1;
 5/5=2,38=5/2;
 8/6=4,10=90,11=11/1;
 11/6=1,8=1,9=11,15=111,16=1/1,2,10;
 10/6=1,13=1/2;
 6/7=2,8=2,9=2,10=2,28=1/1;
 7/7=1,10=1,18=20,25=1/1,2,3,16;
 1/5=1,6=1000,10=4,11=1,14=-1,18=10,26=3/3(2);
 2/29=1/2;
 99/12=1/99;
 2/29=1/2;
 3/5=1,6=6,7=1,11=2,16=1,25=1,30=1,71=1,74=-5/1,2,3;
 4/5=5,16=3,69=1/1;
 5/5=2,38=5/2;
 7/7=1/1,2,3,16;
 1/5=1,6=1000,11=1,14=-1,18=10,26=3/3(-5);
 2/29=1/2;
 6/7=2,8=2,9=2,10=2,19=2,28=1/1;
 99/9=1,12=1/99;
 -------------------------------------------
 ./1/glo_1w_alpha_boat1_b3lyp_631Gd_iopt.out
 -------------------------------------------
 Symbolic Z-matrix:
 Charge =  0 Multiplicity = 1
 H                    -1.33213   1.38188   1.46188 
 C                    -1.24056   0.86942   0.49721 
 C                     0.84267  -0.18386  -0.53381 
 C                    -1.2998   -1.51895  -0.22106 
 C                    -0.20956  -1.05555  -1.22305 
 O                    -1.51217  -0.49647   0.8023 
 C                     0.19983   1.10832  -0.0244 
 H                    -0.6943   -0.4429   -2.00466 
 H                     0.17606   1.83477  -0.84461 
 C                    -2.31423   1.48292  -0.40871 
 H                    -3.30085   1.22249  -0.00049 
 H                    -2.25016   1.08299  -1.43172 
 H                     1.23607  -0.73492   0.331 
 O                    -2.08374   2.88925  -0.38905 
 H                    -2.70754   3.31014  -0.99896 
 O                     0.39764  -2.18551  -1.80267 
 H                     1.2301   -1.8405   -2.17616 
 O                     1.86635   0.04763  -1.48734 
 H                     2.67751   0.31077  -0.99263 
 O                     1.04825   1.61813   1.03385 
 H                     0.71939   2.50006   1.27323 
 H                    -2.24935  -1.68409  -0.74108 
 O                    -1.02354  -2.69737   0.43151 
 H                    -0.17292  -2.60942   0.90637 
 O                     0.49074  -1.56238   2.57215 
 H                    -0.35248  -1.1413    2.31681 
 H                     1.11714  -0.8226    2.60339 
 O                     3.69998   1.14062   0.24989 
 H                     2.87982   1.46962   0.67785 
 H                     4.08543   1.9179   -0.1824 
 

 GradGradGradGradGradGradGradGradGradGradGradGradGradGradGradGradGradGrad
 Berny optimization.
 Initialization pass.
 No Z-matrix variables, so optimization will use Cartesian coordinates.
 Trust Radius=3.00D-01 FncErr=1.00D-07 GrdErr=1.00D-06
 Number of steps in this run=    180 maximum allowed number of steps=    180.
 Search for a saddle point of order  1.
 GradGradGradGradGradGradGradGradGradGradGradGradGradGradGradGradGradGrad

 ---------------------------------------------------------------------------------------------------
                            Z-MATRIX (ANGSTROMS AND DEGREES)
   CD    Cent   Atom    N1       Length/X        N2       Alpha/Y        N3        Beta/Z          J
 ---------------------------------------------------------------------------------------------------
      1      1  H        0  -1.332130          1.381880          1.461880
      2      2  C        0  -1.240560          0.869420          0.497210
      3      3  C        0   0.842670         -0.183860         -0.533810
      4      4  C        0  -1.299800         -1.518950         -0.221060
      5      5  C        0  -0.209560         -1.055550         -1.223050
      6      6  O        0  -1.512170         -0.496470          0.802300
      7      7  C        0   0.199830          1.108320         -0.024400
      8      8  H        0  -0.694300         -0.442900         -2.004660
      9      9  H        0   0.176060          1.834770         -0.844610
     10     10  C        0  -2.314230          1.482920         -0.408710
     11     11  H        0  -3.300850          1.222490         -0.000490
     12     12  H        0  -2.250160          1.082990         -1.431720
     13     13  H        0   1.236070         -0.734920          0.331000
     14     14  O        0  -2.083740          2.889250         -0.389050
     15     15  H        0  -2.707540          3.310140         -0.998960
     16     16  O        0   0.397640         -2.185510         -1.802670
     17     17  H        0   1.230100         -1.840500         -2.176160
     18     18  O        0   1.866350          0.047630         -1.487340
     19     19  H        0   2.677510          0.310770         -0.992630
     20     20  O        0   1.048250          1.618130          1.033850
     21     21  H        0   0.719390          2.500060          1.273230
     22     22  H        0  -2.249350         -1.684090         -0.741080
     23     23  O        0  -1.023540         -2.697370          0.431510
     24     24  H        0  -0.172920         -2.609420          0.906370
     25     25  O        0   0.490740         -1.562380          2.572150
     26     26  H        0  -0.352480         -1.141300          2.316810
     27     27  H        0   1.117140         -0.822600          2.603390
     28     28  O        0   3.699980          1.140620          0.249890
     29     29  H        0   2.879820          1.469620          0.677850
     30     30  H        0   4.085430          1.917900         -0.182400
 ---------------------------------------------------------------------------------------------------
                         Z-Matrix orientation:                         
 ---------------------------------------------------------------------
 Center     Atomic      Atomic             Coordinates (Angstroms)
 Number     Number       Type             X           Y           Z
 ---------------------------------------------------------------------
      1          1           0       -1.332130    1.381880    1.461880
      2          6           0       -1.240560    0.869420    0.497210
      3          6           0        0.842670   -0.183860   -0.533810
      4          6           0       -1.299800   -1.518950   -0.221060
      5          6           0       -0.209560   -1.055550   -1.223050
      6          8           0       -1.512170   -0.496470    0.802300
      7          6           0        0.199830    1.108320   -0.024400
      8          1           0       -0.694300   -0.442900   -2.004660
      9          1           0        0.176060    1.834770   -0.844610
     10          6           0       -2.314230    1.482920   -0.408710
     11          1           0       -3.300850    1.222490   -0.000490
     12          1           0       -2.250160    1.082990   -1.431720
     13          1           0        1.236070   -0.734920    0.331000
     14          8           0       -2.083740    2.889250   -0.389050
     15          1           0       -2.707540    3.310140   -0.998960
     16          8           0        0.397640   -2.185510   -1.802670
     17          1           0        1.230100   -1.840500   -2.176160
     18          8           0        1.866350    0.047630   -1.487340
     19          1           0        2.677510    0.310770   -0.992630
     20          8           0        1.048250    1.618130    1.033850
     21          1           0        0.719390    2.500060    1.273230
     22          1           0       -2.249350   -1.684090   -0.741080
     23          8           0       -1.023540   -2.697370    0.431510
     24          1           0       -0.172920   -2.609420    0.906370
     25          8           0        0.490740   -1.562380    2.572150
     26          1           0       -0.352480   -1.141300    2.316810
     27          1           0        1.117140   -0.822600    2.603390
     28          8           0        3.699980    1.140620    0.249890
     29          1           0        2.879820    1.469620    0.677850
     30          1           0        4.085430    1.917900   -0.182400
 ---------------------------------------------------------------------
                    Distance matrix (angstroms):
                    1          2          3          4          5
     1  H    0.000000
     2  C    1.096170   0.000000
     3  C    3.341269   2.551911   0.000000
     4  C    3.353826   2.494741   2.543709   0.000000
     5  C    3.796061   2.779886   1.530387   1.551563   0.000000
     6  O    1.998914   1.425660   2.725470   1.462133   2.472126
     7  C    2.151921   1.550443   1.530513   3.031520   2.507328
     8  H    3.969074   2.877488   2.143077   2.169272   1.105091
     9  H    2.792784   2.176969   2.148449   3.716775   2.940386
    10  C    2.115145   1.532919   3.572089   3.174193   3.396559
    11  H    2.457598   2.148757   4.408062   3.401227   4.029912
    12  H    3.050416   2.187619   3.460744   3.023074   2.963266
    13  H    3.515022   2.955542   1.098329   2.711109   2.146560
    14  O    2.502603   2.361381   4.246038   4.480514   4.446297
    15  H    3.415505   3.216779   5.002838   5.089889   5.034816
    16  O    5.135724   4.160017   2.411361   2.413938   1.407644
    17  H    5.494005   4.538142   2.364714   3.213441   1.896625
    18  O    4.550648   3.777124   1.418001   3.752618   2.365641
    19  H    4.821733   4.228828   1.954946   4.445469   3.202358
    20  O    2.430068   2.467225   2.397288   4.114536   3.718097
    21  H    2.344067   2.665070   3.237903   4.739459   4.442603
    22  H    3.885164   3.011882   3.442998   1.095143   2.188173
    23  O    4.218669   3.573990   3.276021   1.375079   2.468948
    24  H    4.193189   3.661911   2.998147   1.931342   2.636339
    25  O    3.636512   3.635440   3.416308   3.318123   3.892408
    26  H    2.838496   2.853529   3.235909   2.735109   3.543782
    27  H    3.487363   3.585760   3.213308   3.782066   4.056605
    28  O    5.181627   4.954155   3.245405   5.682685   4.719875
    29  H    4.285198   4.167781   2.889999   5.216207   4.419748
    30  H    5.686909   5.470590   3.880255   6.388594   5.326471
                    6          7          8          9         10
     6  O    0.000000
     7  C    2.487916   0.000000
     8  H    2.924176   2.669678   0.000000
     9  H    3.316190   1.095919   2.700189   0.000000
    10  C    2.455164   2.570704   2.979935   2.552519   0.000000
    11  H    2.607426   3.502623   3.685692   3.629921   1.099039
    12  H    2.833755   2.825534   2.253287   2.606993   1.100272
    13  H    2.798536   2.144210   3.044160   3.018110   4.250955
    14  O    3.634434   2.918797   3.955245   2.534987   1.425228
    15  H    4.377639   3.774994   4.376057   3.242790   1.960056
    16  O    3.645010   3.748425   2.066355   4.138795   4.770193
    17  H    4.265875   3.793029   2.384536   4.048658   5.170230
    18  O    4.117389   2.458159   2.658038   2.542450   4.549808
    19  H    4.628912   2.777130   3.600184   2.932872   5.160656
    20  O    3.328798   1.449005   4.064095   2.082369   3.661357
    21  H    3.765744   1.972492   4.626456   2.285402   3.614740
    22  H    2.082282   3.782812   2.356983   4.275010   3.185064
    23  O    2.284777   4.023402   3.335560   4.858787   4.454961
    24  H    2.503793   3.850567   3.666025   4.789420   4.802280
    25  O    2.877530   3.736220   4.858471   4.828447   5.101689
    26  H    2.013561   3.293494   4.390866   4.373891   4.261860
    27  H    3.203679   3.387505   4.965845   4.453757   5.114926
    28  O    5.491059   3.511030   5.186543   3.754702   6.059839
    29  H    4.813582   2.793929   4.860857   3.124346   5.306500
    30  H    6.175107   3.972187   5.633811   3.965931   6.418417
                   11         12         13         14         15
    11  H    0.000000
    12  H    1.780963   0.000000
    13  H    4.952270   4.308802   0.000000
    14  O    2.100101   2.092231   4.967315   0.000000
    15  H    2.388983   2.314449   5.803737   0.968641   0.000000
    16  O    5.342391   4.222741   2.712881   5.823123   6.363196
    17  H    5.885997   4.605778   2.740108   6.045315   6.589378
    18  O    5.503724   4.245082   2.077498   4.988412   5.639411
    19  H    6.128325   5.007100   2.218832   5.448153   6.164010
    20  O    4.487879   4.152700   2.462949   3.667390   4.593601
    21  H    4.406459   4.259468   3.408790   3.282100   4.190815
    22  H    3.178417   2.851967   3.768081   4.589857   5.021830
    23  O    4.553907   4.389458   2.994520   5.745230   6.400959
    24  H    5.028904   4.838955   2.414550   5.963616   6.715339
    25  O    5.361915   5.526436   2.502591   5.934110   6.835442
    26  H    4.432862   4.753960   2.575282   5.154054   6.029590
    27  H    5.520980   5.590357   2.277189   5.742661   6.684657
    28  O    7.005784   6.183470   3.097593   6.075966   6.879154
    29  H    6.222692   5.560257   2.771681   5.271675   6.117009
    30  H    7.421174   6.511342   3.926816   6.248591   6.982087
                   16         17         18         19         20
    16  O    0.000000
    17  H    0.975457   0.000000
    18  O    2.691367   2.108156   0.000000
    19  H    3.476404   2.850211   0.985881   0.000000
    20  O    4.789240   4.722219   3.080934   2.910378   0.000000
    21  H    5.614201   5.567726   3.866611   3.709629   0.971212
    22  H    2.895678   3.767027   4.527112   5.321343   4.992915
    23  O    2.696908   3.551487   4.423627   4.977434   4.824797
    24  H    2.800738   3.472995   4.116842   4.500962   4.402237
    25  O    4.419956   4.813570   4.578635   4.582391   3.576706
    26  H    4.315457   4.814584   4.561614   4.716115   3.349998
    27  H    4.667823   4.888044   4.248845   4.080520   2.902648
    28  O    5.116795   4.568709   2.752234   1.810511   2.806115
    29  H    5.066969   4.671600   2.781587   2.043127   1.871748
    30  H    5.750047   5.123823   3.181995   2.285077   3.285360
                   21         22         23         24         25
    21  H    0.000000
    22  H    5.511622   0.000000
    23  O    5.546132   1.975934   0.000000
    24  H    5.199768   2.807470   0.978152   0.000000
    25  O    4.271170   4.301209   2.857199   2.076430   0.000000
    26  H    3.936682   3.639152   2.534962   2.043761   0.976487
    27  H    3.601055   4.822955   3.579712   2.781521   0.969859
    28  O    3.432087   6.659995   6.088907   5.430757   4.795657
    29  H    2.466524   6.186084   5.714955   5.100001   4.299895
    30  H    3.713219   7.308618   6.912248   6.309960   5.711540
                   26         27         28         29         30
    26  H    0.000000
    27  H    1.530843   0.000000
    28  O    5.089376   4.008024   0.000000
    29  H    4.466638   3.474049   0.981862   0.000000
    30  H    5.941364   4.907312   0.969335   1.547411   0.000000
 Stoichiometry    C6H16O8
 Framework group  C1[X(C6H16O8)]
 Deg. of freedom    84
 Full point group                 C1      NOp   1
 Largest Abelian subgroup         C1      NOp   1
 Largest concise Abelian subgroup C1      NOp   1
                         Standard orientation:                         
 ---------------------------------------------------------------------
 Center     Atomic      Atomic             Coordinates (Angstroms)
 Number     Number       Type             X           Y           Z
 ---------------------------------------------------------------------
      1          1           0       -1.332129    1.381882    1.461880
      2          6           0       -1.240559    0.869422    0.497210
      3          6           0        0.842670   -0.183860   -0.533810
      4          6           0       -1.299801   -1.518948   -0.221060
      5          6           0       -0.209561   -1.055549   -1.223050
      6          8           0       -1.512170   -0.496468    0.802300
      7          6           0        0.199831    1.108321   -0.024400
      8          1           0       -0.694300   -0.442898   -2.004660
      9          1           0        0.176062    1.834771   -0.844610
     10          6           0       -2.314229    1.482923   -0.408710
     11          1           0       -3.300849    1.222494   -0.000490
     12          1           0       -2.250159    1.082993   -1.431720
     13          1           0        1.236070   -0.734920    0.331000
     14          8           0       -2.083737    2.889253   -0.389050
     15          1           0       -2.707537    3.310143   -0.998960
     16          8           0        0.397638   -2.185509   -1.802670
     17          1           0        1.230099   -1.840500   -2.176160
     18          8           0        1.866350    0.047629   -1.487340
     19          1           0        2.677511    0.310769   -0.992630
     20          8           0        1.048252    1.618130    1.033850
     21          1           0        0.719392    2.500060    1.273230
     22          1           0       -2.249351   -1.684087   -0.741080
     23          8           0       -1.023542   -2.697368    0.431510
     24          1           0       -0.172922   -2.609419    0.906370
     25          8           0        0.490739   -1.562379    2.572150
     26          1           0       -0.352481   -1.141299    2.316810
     27          1           0        1.117140   -0.822600    2.603390
     28          8           0        3.699981    1.140618    0.249890
     29          1           0        2.879821    1.469619    0.677850
     30          1           0        4.085432    1.917898   -0.182400
 ---------------------------------------------------------------------
 Rotational constants (GHZ):      0.5903383      0.5692485      0.4308130
 Standard basis: 6-31G(d) (6D, 7F)
 There are   242 symmetry adapted cartesian basis functions of A   symmetry.
 There are   242 symmetry adapted basis functions of A   symmetry.
   242 basis functions,   456 primitive gaussians,   242 cartesian basis functions
    58 alpha electrons       58 beta electrons
       nuclear repulsion energy      1113.9662326889 Hartrees.
 NAtoms=   30 NActive=   30 NUniq=   30 SFac= 1.00D+00 NAtFMM=   60 NAOKFM=F Big=F
 Integral buffers will be    131072 words long.
 Raffenetti 2 integral format.
 Two-electron integral symmetry is turned on.
 One-electron integrals computed using PRISM.
 NBasis=   242 RedAO= T EigKep=  1.48D-03  NBF=   242
 NBsUse=   242 1.00D-06 EigRej= -1.00D+00 NBFU=   242
 ExpMin= 1.61D-01 ExpMax= 5.48D+03 ExpMxC= 8.25D+02 IAcc=1 IRadAn=         1 AccDes= 0.00D+00
 Harris functional with IExCor=  402 and IRadAn=       1 diagonalized for initial guess.
 HarFok:  IExCor=  402 AccDes= 0.00D+00 IRadAn=         1 IDoV= 1 UseB2=F ITyADJ=14
 ICtDFT=  3500011 ScaDFX=  1.000000  1.000000  1.000000  1.000000
 FoFCou: FMM=F IPFlag=           0 FMFlag=      100000 FMFlg1=           0
         NFxFlg=           0 DoJE=T BraDBF=F KetDBF=T FulRan=T
         wScrn=  0.000000 ICntrl=     500 IOpCl=  0 I1Cent=   200000004 NGrid=           0
         NMat0=    1 NMatS0=      1 NMatT0=    0 NMatD0=    1 NMtDS0=    0 NMtDT0=    0
 Petite list used in FoFCou.
 Requested convergence on RMS density matrix=1.00D-08 within 128 cycles.
 Requested convergence on MAX density matrix=1.00D-06.
 Requested convergence on             energy=1.00D-06.
 No special actions if energy rises.
 Integral accuracy reduced to 1.0D-05 until final iterations.
 Initial convergence to 1.0D-05 achieved.  Increase integral accuracy.
 SCF Done:  E(RB3LYP) =  -839.985172006     A.U. after   14 cycles
            NFock= 14  Conv=0.36D-08     -V/T= 2.0085
 DoSCS=F DFT=T ScalE2(SS,OS)=  1.000000  1.000000
 Range of M.O.s used for correlation:     1   242
 NBasis=   242 NAE=    58 NBE=    58 NFC=     0 NFV=     0
 NROrb=    242 NOA=    58 NOB=    58 NVA=   184 NVB=   184
 Symmetrizing basis deriv contribution to polar:
 IMax=3 JMax=2 DiffMx= 0.00D+00
 G2DrvN: will do    31 centers at a time, making    1 passes.
 Calling FoFCou, ICntrl=  3107 FMM=F I1Cent=   0 AccDes= 0.00D+00.
 End of G2Drv F.D. properties file   721 does not exist.
 End of G2Drv F.D. properties file   722 does not exist.
 End of G2Drv F.D. properties file   788 does not exist.
          IDoAtm=111111111111111111111111111111
          Differentiating once with respect to nuclear coordinates.
          There are    93 degrees of freedom in the 1st order CPHF.  IDoFFX=6 NUNeed=     0.
     87 vectors produced by pass  0 Test12= 1.15D-14 1.08D-09 XBig12= 1.23D-01 8.17D-02.
 AX will form    87 AO Fock derivatives at one time.
     87 vectors produced by pass  1 Test12= 1.15D-14 1.08D-09 XBig12= 1.78D-02 1.94D-02.
     87 vectors produced by pass  2 Test12= 1.15D-14 1.08D-09 XBig12= 1.60D-04 2.00D-03.
     87 vectors produced by pass  3 Test12= 1.15D-14 1.08D-09 XBig12= 3.23D-07 5.98D-05.
     87 vectors produced by pass  4 Test12= 1.15D-14 1.08D-09 XBig12= 4.07D-10 1.69D-06.
     68 vectors produced by pass  5 Test12= 1.15D-14 1.08D-09 XBig12= 3.40D-13 4.69D-08.
      2 vectors produced by pass  6 Test12= 1.15D-14 1.08D-09 XBig12= 2.71D-16 1.54D-09.
 InvSVY:  IOpt=1 It=  1 EMax= 1.05D-15
 Solved reduced A of dimension   505 with    93 vectors.
 End of Minotr F.D. properties file   721 does not exist.
 End of Minotr F.D. properties file   722 does not exist.
 End of Minotr F.D. properties file   788 does not exist.

 **********************************************************************

            Population analysis using the SCF density.

 **********************************************************************

 Orbital symmetries:
       Occupied  (A) (A) (A) (A) (A) (A) (A) (A) (A) (A) (A) (A)
                 (A) (A) (A) (A) (A) (A) (A) (A) (A) (A) (A) (A)
                 (A) (A) (A) (A) (A) (A) (A) (A) (A) (A) (A) (A)
                 (A) (A) (A) (A) (A) (A) (A) (A) (A) (A) (A) (A)
                 (A) (A) (A) (A) (A) (A) (A) (A) (A) (A)
       Virtual   (A) (A) (A) (A) (A) (A) (A) (A) (A) (A) (A) (A)
                 (A) (A) (A) (A) (A) (A) (A) (A) (A) (A) (A) (A)
                 (A) (A) (A) (A) (A) (A) (A) (A) (A) (A) (A) (A)
                 (A) (A) (A) (A) (A) (A) (A) (A) (A) (A) (A) (A)
                 (A) (A) (A) (A) (A) (A) (A) (A) (A) (A) (A) (A)
                 (A) (A) (A) (A) (A) (A) (A) (A) (A) (A) (A) (A)
                 (A) (A) (A) (A) (A) (A) (A) (A) (A) (A) (A) (A)
                 (A) (A) (A) (A) (A) (A) (A) (A) (A) (A) (A) (A)
                 (A) (A) (A) (A) (A) (A) (A) (A) (A) (A) (A) (A)
                 (A) (A) (A) (A) (A) (A) (A) (A) (A) (A) (A) (A)
                 (A) (A) (A) (A) (A) (A) (A) (A) (A) (A) (A) (A)
                 (A) (A) (A) (A) (A) (A) (A) (A) (A) (A) (A) (A)
                 (A) (A) (A) (A) (A) (A) (A) (A) (A) (A) (A) (A)
                 (A) (A) (A) (A) (A) (A) (A) (A) (A) (A) (A) (A)
                 (A) (A) (A) (A) (A) (A) (A) (A) (A) (A) (A) (A)
                 (A) (A) (A) (A)
 The electronic state is 1-A.
 Alpha  occ. eigenvalues --  -19.19051 -19.17212 -19.16818 -19.16058 -19.14174
 Alpha  occ. eigenvalues --  -19.14126 -19.13923 -19.13597 -10.28776 -10.25844
 Alpha  occ. eigenvalues --  -10.25537 -10.25288 -10.24093 -10.23806  -1.07226
 Alpha  occ. eigenvalues --   -1.05512  -1.04282  -1.03044  -1.01767  -1.00611
 Alpha  occ. eigenvalues --   -0.99782  -0.99503  -0.79339  -0.76583  -0.70625
 Alpha  occ. eigenvalues --   -0.64884  -0.63359  -0.57314  -0.56854  -0.54683
 Alpha  occ. eigenvalues --   -0.54012  -0.53335  -0.51586  -0.50389  -0.49097
 Alpha  occ. eigenvalues --   -0.48328  -0.47253  -0.46082  -0.45026  -0.44493
 Alpha  occ. eigenvalues --   -0.42547  -0.40569  -0.39397  -0.38295  -0.37866
 Alpha  occ. eigenvalues --   -0.36717  -0.35668  -0.35296  -0.34404  -0.32333
 Alpha  occ. eigenvalues --   -0.31512  -0.30973  -0.30116  -0.29512  -0.28553
 Alpha  occ. eigenvalues --   -0.27277  -0.26480  -0.25994
 Alpha virt. eigenvalues --    0.03470   0.04538   0.06567   0.07243   0.07908
 Alpha virt. eigenvalues --    0.09445   0.10401   0.12190   0.13994   0.14451
 Alpha virt. eigenvalues --    0.15355   0.15432   0.17292   0.18045   0.18783
 Alpha virt. eigenvalues --    0.19975   0.20226   0.20832   0.21439   0.23010
 Alpha virt. eigenvalues --    0.23437   0.25010   0.26302   0.27057   0.30320
 Alpha virt. eigenvalues --    0.31609   0.32908   0.35476   0.50820   0.52224
 Alpha virt. eigenvalues --    0.54540   0.55002   0.56505   0.56832   0.58735
 Alpha virt. eigenvalues --    0.61032   0.61948   0.64136   0.66020   0.66709
 Alpha virt. eigenvalues --    0.67961   0.69714   0.73267   0.74484   0.76368
 Alpha virt. eigenvalues --    0.76952   0.77470   0.78271   0.80747   0.81595
 Alpha virt. eigenvalues --    0.82211   0.82394   0.83239   0.84977   0.85430
 Alpha virt. eigenvalues --    0.86352   0.86497   0.87982   0.88348   0.88646
 Alpha virt. eigenvalues --    0.89944   0.90503   0.91957   0.94136   0.95476
 Alpha virt. eigenvalues --    0.97031   0.98110   0.99167   0.99732   1.01521
 Alpha virt. eigenvalues --    1.03444   1.05354   1.05939   1.06635   1.08183
 Alpha virt. eigenvalues --    1.08464   1.09519   1.11591   1.14227   1.17018
 Alpha virt. eigenvalues --    1.17894   1.20116   1.20702   1.24032   1.25818
 Alpha virt. eigenvalues --    1.27439   1.29208   1.29924   1.30970   1.34182
 Alpha virt. eigenvalues --    1.38044   1.39556   1.40542   1.46805   1.46868
 Alpha virt. eigenvalues --    1.48733   1.52743   1.55386   1.56714   1.59042
 Alpha virt. eigenvalues --    1.62676   1.63976   1.66964   1.68427   1.69194
 Alpha virt. eigenvalues --    1.70541   1.71201   1.71627   1.73110   1.73366
 Alpha virt. eigenvalues --    1.75051   1.76200   1.76569   1.78414   1.79969
 Alpha virt. eigenvalues --    1.80558   1.81893   1.83804   1.84629   1.86012
 Alpha virt. eigenvalues --    1.86605   1.88845   1.90725   1.92144   1.95854
 Alpha virt. eigenvalues --    1.97577   2.00275   2.01356   2.03616   2.05066
 Alpha virt. eigenvalues --    2.07204   2.10152   2.10647   2.13358   2.15730
 Alpha virt. eigenvalues --    2.20469   2.22397   2.25094   2.27369   2.29890
 Alpha virt. eigenvalues --    2.31014   2.31727   2.33472   2.35284   2.37878
 Alpha virt. eigenvalues --    2.39411   2.42287   2.44596   2.45202   2.46743
 Alpha virt. eigenvalues --    2.48888   2.50526   2.54211   2.57634   2.58017
 Alpha virt. eigenvalues --    2.59663   2.61112   2.64076   2.66589   2.69496
 Alpha virt. eigenvalues --    2.71882   2.75183   2.79881   2.87025   2.89629
 Alpha virt. eigenvalues --    2.93486   2.95178   2.98726   3.05129   3.10491
 Alpha virt. eigenvalues --    3.67393   3.71364   3.73834   3.79822   3.88814
 Alpha virt. eigenvalues --    3.93813   4.04007   4.13229   4.29500   4.34738
 Alpha virt. eigenvalues --    4.41164   4.56181   4.68480   4.78159
          Condensed to atoms (all electrons):
               1          2          3          4          5          6
     1  H    0.601038   0.360724   0.001707   0.004377  -0.000078  -0.033774
     2  C    0.360724   4.990106  -0.032761  -0.018487   0.002038   0.219824
     3  C    0.001707  -0.032761   5.025653  -0.013281   0.309062  -0.002041
     4  C    0.004377  -0.018487  -0.013281   4.665261   0.265752   0.178057
     5  C   -0.000078   0.002038   0.309062   0.265752   5.055123  -0.045377
     6  O   -0.033774   0.219824  -0.002041   0.178057  -0.045377   8.354162
     7  C   -0.048587   0.244779   0.273085  -0.016434  -0.030142  -0.040155
     8  H    0.000070  -0.002169  -0.059789  -0.050899   0.338208   0.003871
     9  H    0.003830  -0.053469  -0.034604   0.000788  -0.003758   0.002755
    10  C   -0.046655   0.314188   0.001141  -0.005129  -0.005192  -0.040358
    11  H   -0.008406  -0.031037  -0.000091  -0.000352   0.000425   0.004841
    12  H    0.006739  -0.034984   0.000272   0.002118  -0.001042   0.000968
    13  H   -0.000120  -0.001033   0.317830  -0.002297  -0.045987   0.000133
    14  O    0.005806  -0.048881   0.000391   0.000021   0.000073   0.001128
    15  H   -0.000234   0.005221  -0.000015  -0.000007  -0.000003  -0.000097
    16  O    0.000001  -0.000030  -0.030550  -0.048351   0.258290   0.001027
    17  H    0.000001  -0.000112  -0.014889   0.006167  -0.037978  -0.000082
    18  O   -0.000067   0.003791   0.223627   0.002040  -0.046259   0.000073
    19  H    0.000006  -0.000047  -0.020966  -0.000093   0.004887   0.000009
    20  O    0.000549  -0.028900  -0.030384   0.000035   0.001806   0.001285
    21  H    0.005035  -0.003854   0.005188   0.000010  -0.000206  -0.000055
    22  H   -0.000300   0.000071   0.006066   0.390383  -0.066330  -0.045044
    23  O   -0.000100   0.002486  -0.005196   0.320533  -0.031244  -0.056468
    24  H   -0.000032  -0.000265  -0.000285  -0.029452  -0.009338   0.002032
    25  O    0.000386   0.001007  -0.008420   0.002529  -0.000833  -0.012124
    26  H   -0.001462  -0.000673   0.002024  -0.001503   0.000301   0.037793
    27  H    0.000110   0.000386   0.000113   0.000055   0.000048   0.000527
    28  O    0.000001   0.000004   0.003201   0.000000   0.000046   0.000000
    29  H   -0.000017   0.000538  -0.001771  -0.000002   0.000109  -0.000010
    30  H   -0.000000   0.000003  -0.000279  -0.000000  -0.000002  -0.000000
               7          8          9         10         11         12
     1  H   -0.048587   0.000070   0.003830  -0.046655  -0.008406   0.006739
     2  C    0.244779  -0.002169  -0.053469   0.314188  -0.031037  -0.034984
     3  C    0.273085  -0.059789  -0.034604   0.001141  -0.000091   0.000272
     4  C   -0.016434  -0.050899   0.000788  -0.005129  -0.000352   0.002118
     5  C   -0.030142   0.338208  -0.003758  -0.005192   0.000425  -0.001042
     6  O   -0.040155   0.003871   0.002755  -0.040358   0.004841   0.000968
     7  C    5.157158  -0.002746   0.351375  -0.042362   0.006219  -0.009709
     8  H   -0.002746   0.687477   0.004348  -0.001626  -0.000026   0.007485
     9  H    0.351375   0.004348   0.590599  -0.000603   0.000581   0.000179
    10  C   -0.042362  -0.001626  -0.000603   4.981533   0.355235   0.356719
    11  H    0.006219  -0.000026   0.000581   0.355235   0.609847  -0.051401
    12  H   -0.009709   0.007485   0.000179   0.356719  -0.051401   0.625088
    13  H   -0.048191   0.008132   0.006248  -0.000030   0.000007   0.000013
    14  O    0.003401  -0.000092   0.009158   0.216776  -0.033091  -0.035411
    15  H   -0.000065   0.000005  -0.000235  -0.018464  -0.002887  -0.004670
    16  O    0.003871  -0.042462  -0.000058   0.000026  -0.000002   0.000000
    17  H    0.001264   0.000077  -0.000030  -0.000001   0.000000   0.000002
    18  O   -0.046488  -0.000728   0.002757  -0.000039   0.000001  -0.000069
    19  H   -0.000357  -0.000296  -0.000224   0.000002  -0.000000   0.000001
    20  O    0.166101  -0.000056  -0.036345   0.002977  -0.000092  -0.000001
    21  H   -0.015717   0.000016  -0.003180  -0.000579  -0.000000   0.000053
    22  H   -0.000671  -0.004743   0.000042   0.003114  -0.000157  -0.000606
    23  O    0.000544   0.003545  -0.000003  -0.000107   0.000002   0.000021
    24  H    0.000122   0.000318   0.000002   0.000019   0.000000   0.000001
    25  O    0.000402  -0.000009  -0.000008  -0.000004   0.000000   0.000000
    26  H   -0.000368  -0.000015  -0.000002   0.000447  -0.000006  -0.000009
    27  H   -0.001070   0.000002   0.000059   0.000019   0.000000  -0.000000
    28  O    0.000583   0.000000  -0.000006   0.000000  -0.000000  -0.000000
    29  H   -0.003033  -0.000002   0.000244  -0.000015   0.000000  -0.000000
    30  H    0.000225   0.000000   0.000032  -0.000000   0.000000   0.000000
              13         14         15         16         17         18
     1  H   -0.000120   0.005806  -0.000234   0.000001   0.000001  -0.000067
     2  C   -0.001033  -0.048881   0.005221  -0.000030  -0.000112   0.003791
     3  C    0.317830   0.000391  -0.000015  -0.030550  -0.014889   0.223627
     4  C   -0.002297   0.000021  -0.000007  -0.048351   0.006167   0.002040
     5  C   -0.045987   0.000073  -0.000003   0.258290  -0.037978  -0.046259
     6  O    0.000133   0.001128  -0.000097   0.001027  -0.000082   0.000073
     7  C   -0.048191   0.003401  -0.000065   0.003871   0.001264  -0.046488
     8  H    0.008132  -0.000092   0.000005  -0.042462   0.000077  -0.000728
     9  H    0.006248   0.009158  -0.000235  -0.000058  -0.000030   0.002757
    10  C   -0.000030   0.216776  -0.018464   0.000026  -0.000001  -0.000039
    11  H    0.000007  -0.033091  -0.002887  -0.000002   0.000000   0.000001
    12  H    0.000013  -0.035411  -0.004670   0.000000   0.000002  -0.000069
    13  H    0.639233  -0.000005   0.000000   0.001155   0.000048  -0.034123
    14  O   -0.000005   8.273685   0.235203  -0.000000   0.000000  -0.000000
    15  H    0.000000   0.235203   0.380807  -0.000000  -0.000000   0.000000
    16  O    0.001155  -0.000000  -0.000000   8.263360   0.233711  -0.010902
    17  H    0.000048   0.000000  -0.000000   0.233711   0.365158   0.036057
    18  O   -0.034123  -0.000000   0.000000  -0.010902   0.036057   8.377101
    19  H   -0.004954  -0.000000   0.000000  -0.000029  -0.000561   0.205734
    20  O   -0.003308  -0.000360   0.000013  -0.000011  -0.000009   0.001177
    21  H    0.000053   0.001277  -0.000039   0.000001   0.000001  -0.000236
    22  H    0.000031  -0.000018   0.000002   0.001642  -0.000400  -0.000049
    23  O    0.001002   0.000000  -0.000000  -0.001128   0.000181  -0.000007
    24  H    0.006448  -0.000000   0.000000   0.004202  -0.000288  -0.000053
    25  O    0.024004   0.000000  -0.000000  -0.000005   0.000001   0.000032
    26  H   -0.003385  -0.000002   0.000000  -0.000007   0.000002  -0.000002
    27  H    0.002627  -0.000000   0.000000  -0.000004  -0.000002  -0.000021
    28  O    0.000875  -0.000000   0.000000  -0.000001   0.000014  -0.026663
    29  H    0.000063  -0.000000  -0.000000  -0.000001  -0.000008   0.004988
    30  H   -0.000029   0.000000  -0.000000   0.000000  -0.000001   0.001741
              19         20         21         22         23         24
     1  H    0.000006   0.000549   0.005035  -0.000300  -0.000100  -0.000032
     2  C   -0.000047  -0.028900  -0.003854   0.000071   0.002486  -0.000265
     3  C   -0.020966  -0.030384   0.005188   0.006066  -0.005196  -0.000285
     4  C   -0.000093   0.000035   0.000010   0.390383   0.320533  -0.029452
     5  C    0.004887   0.001806  -0.000206  -0.066330  -0.031244  -0.009338
     6  O    0.000009   0.001285  -0.000055  -0.045044  -0.056468   0.002032
     7  C   -0.000357   0.166101  -0.015717  -0.000671   0.000544   0.000122
     8  H   -0.000296  -0.000056   0.000016  -0.004743   0.003545   0.000318
     9  H   -0.000224  -0.036345  -0.003180   0.000042  -0.000003   0.000002
    10  C    0.000002   0.002977  -0.000579   0.003114  -0.000107   0.000019
    11  H   -0.000000  -0.000092  -0.000000  -0.000157   0.000002   0.000000
    12  H    0.000001  -0.000001   0.000053  -0.000606   0.000021   0.000001
    13  H   -0.004954  -0.003308   0.000053   0.000031   0.001002   0.006448
    14  O   -0.000000  -0.000360   0.001277  -0.000018   0.000000  -0.000000
    15  H    0.000000   0.000013  -0.000039   0.000002  -0.000000   0.000000
    16  O   -0.000029  -0.000011   0.000001   0.001642  -0.001128   0.004202
    17  H   -0.000561  -0.000009   0.000001  -0.000400   0.000181  -0.000288
    18  O    0.205734   0.001177  -0.000236  -0.000049  -0.000007  -0.000053
    19  H    0.322501   0.001160  -0.000036   0.000004   0.000002   0.000004
    20  O    0.001160   8.317279   0.228181   0.000004   0.000001  -0.000010
    21  H   -0.000036   0.228181   0.375107  -0.000001   0.000000  -0.000000
    22  H    0.000004   0.000004  -0.000001   0.620145  -0.051731   0.007052
    23  O    0.000002   0.000001   0.000000  -0.051731   8.204256   0.222736
    24  H    0.000004  -0.000010  -0.000000   0.007052   0.222736   0.344084
    25  O   -0.000001  -0.000813   0.000027  -0.000066  -0.010325   0.037111
    26  H   -0.000001   0.000750  -0.000022   0.000424   0.005264  -0.006968
    27  H   -0.000007   0.006382  -0.000166   0.000008   0.000583  -0.001998
    28  O    0.077435  -0.018707   0.000817  -0.000000  -0.000000  -0.000000
    29  H   -0.009358   0.054904  -0.002702  -0.000000   0.000000  -0.000000
    30  H   -0.003675   0.000686  -0.000041   0.000000   0.000000   0.000000
              25         26         27         28         29         30
     1  H    0.000386  -0.001462   0.000110   0.000001  -0.000017  -0.000000
     2  C    0.001007  -0.000673   0.000386   0.000004   0.000538   0.000003
     3  C   -0.008420   0.002024   0.000113   0.003201  -0.001771  -0.000279
     4  C    0.002529  -0.001503   0.000055   0.000000  -0.000002  -0.000000
     5  C   -0.000833   0.000301   0.000048   0.000046   0.000109  -0.000002
     6  O   -0.012124   0.037793   0.000527   0.000000  -0.000010  -0.000000
     7  C    0.000402  -0.000368  -0.001070   0.000583  -0.003033   0.000225
     8  H   -0.000009  -0.000015   0.000002   0.000000  -0.000002   0.000000
     9  H   -0.000008  -0.000002   0.000059  -0.000006   0.000244   0.000032
    10  C   -0.000004   0.000447   0.000019   0.000000  -0.000015  -0.000000
    11  H    0.000000  -0.000006   0.000000  -0.000000   0.000000   0.000000
    12  H    0.000000  -0.000009  -0.000000  -0.000000  -0.000000   0.000000
    13  H    0.024004  -0.003385   0.002627   0.000875   0.000063  -0.000029
    14  O    0.000000  -0.000002  -0.000000  -0.000000  -0.000000   0.000000
    15  H   -0.000000   0.000000   0.000000   0.000000  -0.000000  -0.000000
    16  O   -0.000005  -0.000007  -0.000004  -0.000001  -0.000001   0.000000
    17  H    0.000001   0.000002  -0.000002   0.000014  -0.000008  -0.000001
    18  O    0.000032  -0.000002  -0.000021  -0.026663   0.004988   0.001741
    19  H   -0.000001  -0.000001  -0.000007   0.077435  -0.009358  -0.003675
    20  O   -0.000813   0.000750   0.006382  -0.018707   0.054904   0.000686
    21  H    0.000027  -0.000022  -0.000166   0.000817  -0.002702  -0.000041
    22  H   -0.000066   0.000424   0.000008  -0.000000  -0.000000   0.000000
    23  O   -0.010325   0.005264   0.000583  -0.000000   0.000000   0.000000
    24  H    0.037111  -0.006968  -0.001998  -0.000000  -0.000000   0.000000
    25  O    8.314963   0.217859   0.236207  -0.000001  -0.000002   0.000000
    26  H    0.217859   0.347741  -0.016368   0.000000  -0.000007  -0.000000
    27  H    0.236207  -0.016368   0.377307   0.000019   0.000087  -0.000001
    28  O   -0.000001   0.000000   0.000019   8.314999   0.209739   0.239593
    29  H   -0.000002  -0.000007   0.000087   0.209739   0.334971  -0.013439
    30  H    0.000000  -0.000000  -0.000001   0.239593  -0.013439   0.378301
 Mulliken charges:
               1
     1  H    0.149454
     2  C    0.111534
     3  C    0.085963
     4  C    0.348159
     5  C    0.087599
     6  O   -0.532900
     7  C    0.096965
     8  H    0.112104
     9  H    0.159529
    10  C   -0.071034
    11  H    0.150388
    12  H    0.138243
    13  H    0.135559
    14  O   -0.629059
    15  H    0.405463
    16  O   -0.633744
    17  H    0.411677
    18  O   -0.693411
    19  H    0.428862
    20  O   -0.664292
    21  H    0.411067
    22  H    0.141128
    23  O   -0.604848
    24  H    0.424560
    25  O   -0.801918
    26  H    0.418194
    27  H    0.395096
    28  O   -0.801949
    29  H    0.424723
    30  H    0.396886
 Sum of Mulliken charges =  -0.00000
 Mulliken charges with hydrogens summed into heavy atoms:
               1
     2  C    0.260989
     3  C    0.221522
     4  C    0.489287
     5  C    0.199703
     6  O   -0.532900
     7  C    0.256494
    10  C    0.217597
    14  O   -0.223596
    16  O   -0.222067
    18  O   -0.264549
    20  O   -0.253225
    23  O   -0.180288
    25  O    0.011372
    28  O    0.019660
 APT charges:
               1
     1  H    0.447629
     2  C   -0.343330
     3  C   -0.141866
     4  C   -0.390908
     5  C   -0.210073
     6  O   -0.388563
     7  C   -0.207594
     8  H    0.334415
     9  H    0.400289
    10  C   -0.547458
    11  H    0.528554
    12  H    0.299425
    13  H    0.247774
    14  O   -1.129320
    15  H    0.965916
    16  O   -0.682098
    17  H    0.580306
    18  O   -0.802423
    19  H    0.575476
    20  O   -0.961052
    21  H    0.751464
    22  H    0.548264
    23  O   -0.423104
    24  H    0.423707
    25  O   -0.686976
    26  H    0.297749
    27  H    0.442002
    28  O   -1.013878
    29  H    0.202414
    30  H    0.883259
 Sum of APT charges =  -0.00000
 APT charges with hydrogens summed into heavy atoms:
               1
     2  C    0.104299
     3  C    0.105908
     4  C    0.157356
     5  C    0.124342
     6  O   -0.388563
     7  C    0.192695
    10  C    0.280521
    14  O   -0.163404
    16  O   -0.101792
    18  O   -0.226947
    20  O   -0.209589
    23  O    0.000603
    25  O    0.052775
    28  O    0.071795
 Electronic spatial extent (au):  <R**2>=           3048.5668
 Charge=              0.0000 electrons
 Dipole moment (field-independent basis, Debye):
    X=             -0.8010    Y=              7.6666    Z=             -1.1850  Tot=              7.7989
 Quadrupole moment (field-independent basis, Debye-Ang):
   XX=            -75.8443   YY=            -85.9438   ZZ=            -86.9444
   XY=             -0.8987   XZ=              3.7781   YZ=              1.5351
 Traceless Quadrupole moment (field-independent basis, Debye-Ang):
   XX=              7.0665   YY=             -3.0330   ZZ=             -4.0335
   XY=             -0.8987   XZ=              3.7781   YZ=              1.5351
 Octapole moment (field-independent basis, Debye-Ang**2):
  XXX=             -3.2197  YYY=             72.7491  ZZZ=              0.0463  XYY=             23.6727
  XXY=             43.6519  XXZ=            -25.1226  XZZ=             -0.3435  YZZ=             25.7551
  YYZ=             -5.6584  XYZ=             10.6621
 Hexadecapole moment (field-independent basis, Debye-Ang**3):
 XXXX=          -1357.0900 YYYY=          -1347.2846 ZZZZ=           -759.1500 XXXY=             35.4879
 XXXZ=            -22.6067 YYYX=            -15.1844 YYYZ=            -29.6951 ZZZX=              0.5736
 ZZZY=             41.1974 XXYY=           -331.5630 XXZZ=           -342.2527 YYZZ=           -357.4092
 XXYZ=            -39.7365 YYXZ=             31.9290 ZZXY=            -15.5073
 N-N= 1.113966232689D+03 E-N=-4.200089631759D+03  KE= 8.328861032319D+02
  Exact polarizability:   0.000   0.000   0.000   0.000   0.000   0.000
 Approx polarizability: 129.445   1.224 136.041   3.108   2.554 121.862
 Calling FoFJK, ICntrl=    100147 FMM=F ISym2X=0 I1Cent= 0 IOpClX= 0 NMat=1 NMatS=1 NMatT=0.
 ***** Axes restored to original set *****
 -------------------------------------------------------------------
 Center     Atomic                   Forces (Hartrees/Bohr)
 Number     Number              X              Y              Z
 -------------------------------------------------------------------
      1        1          -0.000000654    0.000002012   -0.000002778
      2        6          -0.000002524    0.000005433   -0.000010740
      3        6          -0.000003651   -0.000002993   -0.000002680
      4        6           0.000011626   -0.000002596    0.000004207
      5        6           0.000004132   -0.000002050    0.000010429
      6        8          -0.000004603    0.000013914    0.000001638
      7        6           0.000000041   -0.000001931   -0.000002492
      8        1           0.000000668   -0.000006083    0.000000258
      9        1           0.000003215   -0.000002451   -0.000002991
     10        6           0.000008397    0.000004541   -0.000011831
     11        1          -0.000001011    0.000000837   -0.000003511
     12        1           0.000001103   -0.000000002   -0.000003794
     13        1           0.000000669    0.000001222    0.000003297
     14        8           0.000004440    0.000004641   -0.000022092
     15        1           0.000005725   -0.000002240   -0.000006000
     16        8          -0.000004704   -0.000013533    0.000015053
     17        1           0.000003099   -0.000003656    0.000002893
     18        8          -0.000002160   -0.000012646    0.000005293
     19        1           0.000004467   -0.000003532    0.000001831
     20        8          -0.000002167    0.000003664   -0.000006072
     21        1           0.000001979    0.000000948   -0.000004510
     22        1          -0.000005226   -0.000001537   -0.000001077
     23        8          -0.000011763    0.000008150    0.000009664
     24        1          -0.000001709   -0.000000212    0.000007500
     25        8          -0.000006954    0.000016245    0.000010280
     26        1          -0.000002237    0.000003060    0.000003895
     27        1          -0.000004811    0.000001408    0.000002704
     28        8           0.000000485   -0.000003873    0.000002927
     29        1           0.000003895   -0.000001362   -0.000001804
     30        1           0.000000232   -0.000005378    0.000000500
 -------------------------------------------------------------------
 Cartesian Forces:  Max     0.000022092 RMS     0.000006112

 GradGradGradGradGradGradGradGradGradGradGradGradGradGradGradGradGradGrad
 Berny optimization.
 Search for a saddle point.
 Step number   1 out of a maximum of  180
 All quantities printed in internal units (Hartrees-Bohrs-Radians)
 Swapping is turned off.
 Second derivative matrix not updated -- analytic derivatives used.
 ITU=  0
     Eigenvalues ---   -0.00037   0.00032   0.00052   0.00160   0.00178
     Eigenvalues ---    0.00220   0.00280   0.00297   0.00369   0.00409
     Eigenvalues ---    0.00435   0.00485   0.00743   0.00836   0.00854
     Eigenvalues ---    0.00994   0.01232   0.01426   0.01704   0.01853
     Eigenvalues ---    0.01903   0.02200   0.02404   0.02697   0.02910
     Eigenvalues ---    0.03076   0.03522   0.04107   0.04699   0.04837
     Eigenvalues ---    0.05210   0.05375   0.05489   0.05902   0.06110
     Eigenvalues ---    0.06940   0.07018   0.07460   0.07830   0.08664
     Eigenvalues ---    0.09310   0.10636   0.11244   0.12109   0.13488
     Eigenvalues ---    0.14570   0.15504   0.16918   0.17182   0.17502
     Eigenvalues ---    0.17694   0.20284   0.22762   0.23164   0.26288
     Eigenvalues ---    0.27781   0.31583   0.38271   0.42172   0.46551
     Eigenvalues ---    0.49539   0.53773   0.60141   0.63159   0.66041
     Eigenvalues ---    0.66791   0.68443   0.71790   0.75309   0.77099
     Eigenvalues ---    0.78438   0.80954   0.82815   0.84573   0.84776
     Eigenvalues ---    0.90021   0.91135   0.94396   0.99529   1.02572
     Eigenvalues ---    1.04310   1.07231   1.08134   1.13061
 Eigenvectors required to have negative eigenvalues:
                          Y27       Y25       Z21       Y21       Y20
   1                    0.46976   0.30976   0.30370  -0.25863  -0.23118
                          Y22       X27       Z20       Z9        X23
   1                   -0.19345  -0.18400   0.18390   0.17132   0.15846
 RFO step:  Lambda0=1.118129075D-10 Lambda= 0.00000000D+00.
 Linear search not attempted -- option 19 set.
 B after Tr=    -0.000010    0.000004    0.000016
         Rot=    1.000000    0.000001   -0.000001    0.000000 Ang=   0.00 deg.
 Variable       Old X    -DE/DX   Delta X   Delta X   Delta X     New X
                                 (Linear)    (Quad)   (Total)
    X1       -2.51736  -0.00000   0.00000  -0.00010  -0.00011  -2.51747
    Y1        2.61137   0.00000   0.00000   0.00010   0.00011   2.61148
    Z1        2.76255  -0.00000   0.00000  -0.00007  -0.00006   2.76250
    X2       -2.34432  -0.00000   0.00000  -0.00003  -0.00003  -2.34435
    Y2        1.64297   0.00001   0.00000   0.00008   0.00009   1.64305
    Z2        0.93959  -0.00001   0.00000  -0.00006  -0.00004   0.93955
    X3        1.59242  -0.00000   0.00000   0.00002   0.00000   1.59242
    Y3       -0.34745  -0.00000   0.00000   0.00010   0.00010  -0.34735
    Z3       -1.00875  -0.00000   0.00000  -0.00001   0.00000  -1.00875
    X4       -2.45627   0.00001   0.00000  -0.00001  -0.00002  -2.45629
    Y4       -2.87040  -0.00000   0.00000   0.00005   0.00006  -2.87034
    Z4       -0.41774   0.00000   0.00000   0.00002   0.00005  -0.41770
    X5       -0.39601   0.00000   0.00000   0.00012   0.00011  -0.39590
    Y5       -1.99470  -0.00000   0.00000  -0.00009  -0.00009  -1.99479
    Z5       -2.31123   0.00001   0.00000   0.00012   0.00014  -2.31109
    X6       -2.85759  -0.00000   0.00000  -0.00000  -0.00001  -2.85760
    Y6       -0.93819   0.00001   0.00000   0.00010   0.00011  -0.93809
    Z6        1.51613   0.00000   0.00000   0.00000   0.00002   1.51615
    X7        0.37762   0.00000   0.00000  -0.00001  -0.00002   0.37761
    Y7        2.09442  -0.00000   0.00000   0.00007   0.00007   2.09449
    Z7       -0.04611  -0.00000   0.00000   0.00003   0.00005  -0.04606
    X8       -1.31204   0.00000   0.00000   0.00017   0.00016  -1.31188
    Y8       -0.83696  -0.00001   0.00000  -0.00031  -0.00031  -0.83727
    Z8       -3.78826   0.00000   0.00000  -0.00008  -0.00006  -3.78832
    X9        0.33271   0.00000   0.00000   0.00007   0.00006   0.33277
    Y9        3.46721  -0.00000   0.00000   0.00012   0.00012   3.46734
    Z9       -1.59608  -0.00000   0.00000   0.00008   0.00009  -1.59599
   X10       -4.37326   0.00001   0.00000   0.00006   0.00005  -4.37321
   Y10        2.80231   0.00000   0.00000   0.00009   0.00009   2.80241
   Z10       -0.77235  -0.00001   0.00000  -0.00013  -0.00011  -0.77246
   X11       -6.23770  -0.00000   0.00000   0.00002   0.00001  -6.23769
   Y11        2.31017   0.00000   0.00000  -0.00006  -0.00005   2.31012
   Z11       -0.00093  -0.00000   0.00000  -0.00030  -0.00027  -0.00120
   X12       -4.25219   0.00000   0.00000   0.00022   0.00021  -4.25198
   Y12        2.04655  -0.00000   0.00000   0.00024   0.00024   2.04680
   Z12       -2.70556  -0.00000   0.00000  -0.00018  -0.00016  -2.70572
   X13        2.33583   0.00000   0.00000   0.00016   0.00016   2.33599
   Y13       -1.38880   0.00000   0.00000   0.00019   0.00020  -1.38860
   Z13        0.62550   0.00000   0.00000  -0.00001  -0.00000   0.62550
   X14       -3.93770   0.00000   0.00000  -0.00006  -0.00007  -3.93777
   Y14        5.45989   0.00000   0.00000   0.00011   0.00011   5.46000
   Z14       -0.73520  -0.00002   0.00000   0.00009   0.00010  -0.73510
   X15       -5.11651   0.00001   0.00000   0.00006   0.00005  -5.11646
   Y15        6.25526  -0.00000   0.00000   0.00011   0.00011   6.25537
   Z15       -1.88776  -0.00001   0.00000  -0.00003  -0.00001  -1.88777
   X16        0.75143  -0.00000   0.00000   0.00023   0.00021   0.75164
   Y16       -4.13002  -0.00001   0.00000  -0.00021  -0.00021  -4.13023
   Z16       -3.40655   0.00002   0.00000   0.00043   0.00045  -3.40610
   X17        2.32455   0.00000   0.00000   0.00014   0.00012   2.32467
   Y17       -3.47804  -0.00000   0.00000  -0.00020  -0.00020  -3.47824
   Z17       -4.11235   0.00000   0.00000   0.00022   0.00024  -4.11211
   X18        3.52689  -0.00000   0.00000  -0.00010  -0.00011   3.52678
   Y18        0.09001  -0.00001   0.00000   0.00015   0.00015   0.09016
   Z18       -2.81067   0.00001   0.00000  -0.00012  -0.00011  -2.81077
   X19        5.05976   0.00000   0.00000  -0.00004  -0.00006   5.05970
   Y19        0.58727  -0.00000   0.00000   0.00018   0.00018   0.58745
   Z19       -1.87580   0.00000   0.00000  -0.00021  -0.00020  -1.87600
   X20        1.98091  -0.00000   0.00000  -0.00003  -0.00003   1.98087
   Y20        3.05782   0.00000   0.00000  -0.00005  -0.00005   3.05778
   Z20        1.95369  -0.00001   0.00000   0.00010   0.00011   1.95380
   X21        1.35945   0.00000   0.00000   0.00002   0.00001   1.35946
   Y21        4.72443   0.00000   0.00000  -0.00005  -0.00004   4.72438
   Z21        2.40606  -0.00000   0.00000   0.00015   0.00016   2.40621
   X22       -4.25066  -0.00001   0.00000   0.00001  -0.00001  -4.25066
   Y22       -3.18247  -0.00000   0.00000   0.00020   0.00020  -3.18227
   Z22       -1.40044  -0.00000   0.00000  -0.00010  -0.00007  -1.40051
   X23       -1.93421  -0.00001   0.00000  -0.00032  -0.00033  -1.93454
   Y23       -5.09729   0.00001   0.00000   0.00002   0.00002  -5.09727
   Z23        0.81544   0.00001   0.00000   0.00005   0.00007   0.81551
   X24       -0.32677  -0.00000   0.00000  -0.00031  -0.00031  -0.32709
   Y24       -4.93109  -0.00000   0.00000  -0.00022  -0.00021  -4.93130
   Z24        1.71279   0.00001   0.00000   0.00008   0.00010   1.71289
   X25        0.92736  -0.00001   0.00000  -0.00002  -0.00002   0.92735
   Y25       -2.95247   0.00002   0.00000  -0.00052  -0.00050  -2.95298
   Z25        4.86066   0.00001   0.00000  -0.00002   0.00000   4.86066
   X26       -0.66609  -0.00000   0.00000   0.00002   0.00002  -0.66607
   Y26       -2.15674   0.00000   0.00000  -0.00031  -0.00030  -2.15704
   Z26        4.37814   0.00000   0.00000   0.00020   0.00023   4.37836
   X27        2.11109  -0.00000   0.00000   0.00013   0.00013   2.11122
   Y27       -1.55449   0.00000   0.00000  -0.00065  -0.00064  -1.55513
   Z27        4.91969   0.00000   0.00000   0.00002   0.00003   4.91972
   X28        6.99195   0.00000   0.00000   0.00001   0.00000   6.99195
   Y28        2.15546  -0.00000   0.00000   0.00024   0.00024   2.15570
   Z28        0.47222   0.00000   0.00000  -0.00027  -0.00027   0.47195
   X29        5.44207   0.00000   0.00000   0.00005   0.00004   5.44211
   Y29        2.77718  -0.00000   0.00000   0.00011   0.00012   2.77730
   Z29        1.28095  -0.00000   0.00000  -0.00013  -0.00013   1.28082
   X30        7.72034   0.00000   0.00000  -0.00019  -0.00020   7.72014
   Y30        3.62431  -0.00001   0.00000   0.00029   0.00030   3.62460
   Z30       -0.34469   0.00000   0.00000  -0.00034  -0.00034  -0.34503
         Item               Value     Threshold  Converged?
 Maximum Force            0.000022     0.000450     YES
 RMS     Force            0.000006     0.000300     YES
 Maximum Displacement     0.000642     0.001800     YES
 RMS     Displacement     0.000174     0.001200     YES
 Predicted change in Energy=-3.579418D-09
 Optimization completed.
    -- Stationary point found.
 GradGradGradGradGradGradGradGradGradGradGradGradGradGradGradGradGradGrad

                          Input orientation:                          
 ---------------------------------------------------------------------
 Center     Atomic      Atomic             Coordinates (Angstroms)
 Number     Number       Type             X           Y           Z
 ---------------------------------------------------------------------
      1          1           0       -1.332130    1.381880    1.461880
      2          6           0       -1.240560    0.869420    0.497210
      3          6           0        0.842670   -0.183860   -0.533810
      4          6           0       -1.299800   -1.518950   -0.221060
      5          6           0       -0.209560   -1.055550   -1.223050
      6          8           0       -1.512170   -0.496470    0.802300
      7          6           0        0.199830    1.108320   -0.024400
      8          1           0       -0.694300   -0.442900   -2.004660
      9          1           0        0.176060    1.834770   -0.844610
     10          6           0       -2.314230    1.482920   -0.408710
     11          1           0       -3.300850    1.222490   -0.000490
     12          1           0       -2.250160    1.082990   -1.431720
     13          1           0        1.236070   -0.734920    0.331000
     14          8           0       -2.083740    2.889250   -0.389050
     15          1           0       -2.707540    3.310140   -0.998960
     16          8           0        0.397640   -2.185510   -1.802670
     17          1           0        1.230100   -1.840500   -2.176160
     18          8           0        1.866350    0.047630   -1.487340
     19          1           0        2.677510    0.310770   -0.992630
     20          8           0        1.048250    1.618130    1.033850
     21          1           0        0.719390    2.500060    1.273230
     22          1           0       -2.249350   -1.684090   -0.741080
     23          8           0       -1.023540   -2.697370    0.431510
     24          1           0       -0.172920   -2.609420    0.906370
     25          8           0        0.490740   -1.562380    2.572150
     26          1           0       -0.352480   -1.141300    2.316810
     27          1           0        1.117140   -0.822600    2.603390
     28          8           0        3.699980    1.140620    0.249890
     29          1           0        2.879820    1.469620    0.677850
     30          1           0        4.085430    1.917900   -0.182400
 ---------------------------------------------------------------------
                    Distance matrix (angstroms):
                    1          2          3          4          5
     1  H    0.000000
     2  C    1.096170   0.000000
     3  C    3.341269   2.551911   0.000000
     4  C    3.353826   2.494741   2.543709   0.000000
     5  C    3.796061   2.779886   1.530387   1.551563   0.000000
     6  O    1.998914   1.425660   2.725470   1.462133   2.472126
     7  C    2.151921   1.550443   1.530513   3.031520   2.507328
     8  H    3.969074   2.877488   2.143077   2.169272   1.105091
     9  H    2.792784   2.176969   2.148449   3.716775   2.940386
    10  C    2.115145   1.532919   3.572089   3.174193   3.396559
    11  H    2.457598   2.148757   4.408062   3.401227   4.029912
    12  H    3.050416   2.187619   3.460744   3.023074   2.963266
    13  H    3.515022   2.955542   1.098329   2.711109   2.146560
    14  O    2.502603   2.361381   4.246038   4.480514   4.446297
    15  H    3.415505   3.216779   5.002838   5.089889   5.034816
    16  O    5.135724   4.160017   2.411361   2.413938   1.407644
    17  H    5.494005   4.538142   2.364714   3.213441   1.896625
    18  O    4.550648   3.777124   1.418001   3.752618   2.365641
    19  H    4.821733   4.228828   1.954946   4.445469   3.202358
    20  O    2.430068   2.467225   2.397288   4.114536   3.718097
    21  H    2.344067   2.665070   3.237903   4.739459   4.442603
    22  H    3.885164   3.011882   3.442998   1.095143   2.188173
    23  O    4.218669   3.573990   3.276021   1.375079   2.468948
    24  H    4.193189   3.661911   2.998147   1.931342   2.636339
    25  O    3.636512   3.635440   3.416308   3.318123   3.892408
    26  H    2.838496   2.853529   3.235909   2.735109   3.543782
    27  H    3.487363   3.585760   3.213308   3.782066   4.056605
    28  O    5.181627   4.954155   3.245405   5.682685   4.719875
    29  H    4.285198   4.167781   2.889999   5.216207   4.419748
    30  H    5.686909   5.470590   3.880255   6.388594   5.326471
                    6          7          8          9         10
     6  O    0.000000
     7  C    2.487916   0.000000
     8  H    2.924176   2.669678   0.000000
     9  H    3.316190   1.095919   2.700189   0.000000
    10  C    2.455164   2.570704   2.979935   2.552519   0.000000
    11  H    2.607426   3.502623   3.685692   3.629921   1.099039
    12  H    2.833755   2.825534   2.253287   2.606993   1.100272
    13  H    2.798536   2.144210   3.044160   3.018110   4.250955
    14  O    3.634434   2.918797   3.955245   2.534987   1.425228
    15  H    4.377639   3.774994   4.376057   3.242790   1.960056
    16  O    3.645010   3.748425   2.066355   4.138795   4.770193
    17  H    4.265875   3.793029   2.384536   4.048658   5.170230
    18  O    4.117389   2.458159   2.658038   2.542450   4.549808
    19  H    4.628912   2.777130   3.600184   2.932872   5.160656
    20  O    3.328798   1.449005   4.064095   2.082369   3.661357
    21  H    3.765744   1.972492   4.626456   2.285402   3.614740
    22  H    2.082282   3.782812   2.356983   4.275010   3.185064
    23  O    2.284777   4.023402   3.335560   4.858787   4.454961
    24  H    2.503793   3.850567   3.666025   4.789420   4.802280
    25  O    2.877530   3.736220   4.858471   4.828447   5.101689
    26  H    2.013561   3.293494   4.390866   4.373891   4.261860
    27  H    3.203679   3.387505   4.965845   4.453757   5.114926
    28  O    5.491059   3.511030   5.186543   3.754702   6.059839
    29  H    4.813582   2.793929   4.860857   3.124346   5.306500
    30  H    6.175107   3.972187   5.633811   3.965931   6.418417
                   11         12         13         14         15
    11  H    0.000000
    12  H    1.780963   0.000000
    13  H    4.952270   4.308802   0.000000
    14  O    2.100101   2.092231   4.967315   0.000000
    15  H    2.388983   2.314449   5.803737   0.968641   0.000000
    16  O    5.342391   4.222741   2.712881   5.823123   6.363196
    17  H    5.885997   4.605778   2.740108   6.045315   6.589378
    18  O    5.503724   4.245082   2.077498   4.988412   5.639411
    19  H    6.128325   5.007100   2.218832   5.448153   6.164010
    20  O    4.487879   4.152700   2.462949   3.667390   4.593601
    21  H    4.406459   4.259468   3.408790   3.282100   4.190815
    22  H    3.178417   2.851967   3.768081   4.589857   5.021830
    23  O    4.553907   4.389458   2.994520   5.745230   6.400959
    24  H    5.028904   4.838955   2.414550   5.963616   6.715339
    25  O    5.361915   5.526436   2.502591   5.934110   6.835442
    26  H    4.432862   4.753960   2.575282   5.154054   6.029590
    27  H    5.520980   5.590357   2.277189   5.742661   6.684657
    28  O    7.005784   6.183470   3.097593   6.075966   6.879154
    29  H    6.222692   5.560257   2.771681   5.271675   6.117009
    30  H    7.421174   6.511342   3.926816   6.248591   6.982087
                   16         17         18         19         20
    16  O    0.000000
    17  H    0.975457   0.000000
    18  O    2.691367   2.108156   0.000000
    19  H    3.476404   2.850211   0.985881   0.000000
    20  O    4.789240   4.722219   3.080934   2.910378   0.000000
    21  H    5.614201   5.567726   3.866611   3.709629   0.971212
    22  H    2.895678   3.767027   4.527112   5.321343   4.992915
    23  O    2.696908   3.551487   4.423627   4.977434   4.824797
    24  H    2.800738   3.472995   4.116842   4.500962   4.402237
    25  O    4.419956   4.813570   4.578635   4.582391   3.576706
    26  H    4.315457   4.814584   4.561614   4.716115   3.349998
    27  H    4.667823   4.888044   4.248845   4.080520   2.902648
    28  O    5.116795   4.568709   2.752234   1.810511   2.806115
    29  H    5.066969   4.671600   2.781587   2.043127   1.871748
    30  H    5.750047   5.123823   3.181995   2.285077   3.285360
                   21         22         23         24         25
    21  H    0.000000
    22  H    5.511622   0.000000
    23  O    5.546132   1.975934   0.000000
    24  H    5.199768   2.807470   0.978152   0.000000
    25  O    4.271170   4.301209   2.857199   2.076430   0.000000
    26  H    3.936682   3.639152   2.534962   2.043761   0.976487
    27  H    3.601055   4.822955   3.579712   2.781521   0.969859
    28  O    3.432087   6.659995   6.088907   5.430757   4.795657
    29  H    2.466524   6.186084   5.714955   5.100001   4.299895
    30  H    3.713219   7.308618   6.912248   6.309960   5.711540
                   26         27         28         29         30
    26  H    0.000000
    27  H    1.530843   0.000000
    28  O    5.089376   4.008024   0.000000
    29  H    4.466638   3.474049   0.981862   0.000000
    30  H    5.941364   4.907312   0.969335   1.547411   0.000000
 Stoichiometry    C6H16O8
 Framework group  C1[X(C6H16O8)]
 Deg. of freedom    84
 Full point group                 C1      NOp   1
 Largest Abelian subgroup         C1      NOp   1
 Largest concise Abelian subgroup C1      NOp   1
                         Standard orientation:                         
 ---------------------------------------------------------------------
 Center     Atomic      Atomic             Coordinates (Angstroms)
 Number     Number       Type             X           Y           Z
 ---------------------------------------------------------------------
      1          1           0       -1.332129    1.381882    1.461880
      2          6           0       -1.240559    0.869422    0.497210
      3          6           0        0.842670   -0.183860   -0.533810
      4          6           0       -1.299801   -1.518948   -0.221060
      5          6           0       -0.209561   -1.055549   -1.223050
      6          8           0       -1.512170   -0.496468    0.802300
      7          6           0        0.199831    1.108321   -0.024400
      8          1           0       -0.694300   -0.442898   -2.004660
      9          1           0        0.176062    1.834771   -0.844610
     10          6           0       -2.314229    1.482923   -0.408710
     11          1           0       -3.300849    1.222494   -0.000490
     12          1           0       -2.250159    1.082993   -1.431720
     13          1           0        1.236070   -0.734920    0.331000
     14          8           0       -2.083737    2.889253   -0.389050
     15          1           0       -2.707537    3.310143   -0.998960
     16          8           0        0.397638   -2.185509   -1.802670
     17          1           0        1.230099   -1.840500   -2.176160
     18          8           0        1.866350    0.047629   -1.487340
     19          1           0        2.677511    0.310769   -0.992630
     20          8           0        1.048252    1.618130    1.033850
     21          1           0        0.719392    2.500060    1.273230
     22          1           0       -2.249351   -1.684087   -0.741080
     23          8           0       -1.023542   -2.697368    0.431510
     24          1           0       -0.172922   -2.609419    0.906370
     25          8           0        0.490739   -1.562379    2.572150
     26          1           0       -0.352481   -1.141299    2.316810
     27          1           0        1.117140   -0.822600    2.603390
     28          8           0        3.699981    1.140618    0.249890
     29          1           0        2.879821    1.469619    0.677850
     30          1           0        4.085432    1.917898   -0.182400
 ---------------------------------------------------------------------
 Rotational constants (GHZ):      0.5903383      0.5692485      0.4308130
 1\1\GINC-N110\FTS\RB3LYP\6-31G(d)\C6H16O8\ROOT\30-Jan-2017\0\\# opt=(c
 alcfc,ts,noeigentest,maxcycle=1000,cartesian) b3lyp 6-31g(d) freq\\./1
 /glo_1w_alpha_boat1_b3lyp_631Gd_iopt.out\\0,1\H,-1.33213,1.38188,1.461
 88\C,-1.24056,0.86942,0.49721\C,0.84267,-0.18386,-0.53381\C,-1.2998,-1
 .51895,-0.22106\C,-0.20956,-1.05555,-1.22305\O,-1.51217,-0.49647,0.802
 3\C,0.19983,1.10832,-0.0244\H,-0.6943,-0.4429,-2.00466\H,0.17606,1.834
 77,-0.84461\C,-2.31423,1.48292,-0.40871\H,-3.30085,1.22249,-0.00049\H,
 -2.25016,1.08299,-1.43172\H,1.23607,-0.73492,0.331\O,-2.08374,2.88925,
 -0.38905\H,-2.70754,3.31014,-0.99896\O,0.39764,-2.18551,-1.80267\H,1.2
 301,-1.8405,-2.17616\O,1.86635,0.04763,-1.48734\H,2.67751,0.31077,-0.9
 9263\O,1.04825,1.61813,1.03385\H,0.71939,2.50006,1.27323\H,-2.24935,-1
 .68409,-0.74108\O,-1.02354,-2.69737,0.43151\H,-0.17292,-2.60942,0.9063
 7\O,0.49074,-1.56238,2.57215\H,-0.35248,-1.1413,2.31681\H,1.11714,-0.8
 226,2.60339\O,3.69998,1.14062,0.24989\H,2.87982,1.46962,0.67785\H,4.08
 543,1.9179,-0.1824\\Version=ES64L-G09RevE.01\State=1-A\HF=-839.985172\
 RMSD=3.602e-09\RMSF=6.112e-06\Dipole=-0.3151424,3.0162733,-0.4662312\P
 olar=0.,0.,0.,0.,0.,0.\Quadrupole=5.2537969,-2.2549584,-2.9988385,-0.6
 681613,2.8088897,1.1412845\PG=C01 [X(C6H16O8)]\\@


 ... IT IS NO ONE DREAME THAT
     CAN PLEASE THESE ALL ...

                -- BEN JONSON
 Job cpu time:       0 days  0 hours 38 minutes 46.9 seconds.
 File lengths (MBytes):  RWF=    220 Int=      0 D2E=      0 Chk=      6 Scr=      1
 Normal termination of Gaussian 09 at Mon Jan 30 07:12:00 2017.
 Link1:  Proceeding to internal job step number  2.
 --------------------------------------------------------------------
 #N Geom=AllCheck Guess=TCheck SCRF=Check GenChk RB3LYP/6-31G(d) Freq
 --------------------------------------------------------------------
 1/5=1,6=1000,10=4,11=1,29=7,30=1,38=1,40=1/1,3;
 2/12=2,40=1/2;
 3/5=1,6=6,7=1,11=2,14=-4,16=1,25=1,30=1,70=2,71=2,74=-5,116=1,140=1/1,2,3;
 4/5=101/1;
 5/5=2,38=6,98=1/2;
 8/6=4,10=90,11=11/1;
 11/6=1,8=1,9=11,15=111,16=1/1,2,10;
 10/6=1/2;
 6/7=2,8=2,9=2,10=2,18=1,28=1/1;
 7/8=1,10=1,25=1/1,2,3,16;
 1/5=1,6=1000,10=4,11=1,30=1/3;
 99//99;
 Structure from the checkpoint file:  "/scratch/10499774.yak.local/Gau-1347.chk"
 -------------------------------------------
 ./1/glo_1w_alpha_boat1_b3lyp_631Gd_iopt.out
 -------------------------------------------
 Charge =  0 Multiplicity = 1
 No Z-Matrix found in file; cartesian coordinates used.
  H                                                -1.332130000000      1.381880000000      1.461880000000
  C                                                -1.240560000000      0.869420000000      0.497210000000
  C                                                 0.842670000000     -0.183860000000     -0.533810000000
  C                                                -1.299800000000     -1.518950000000     -0.221060000000
  C                                                -0.209560000000     -1.055550000000     -1.223050000000
  O                                                -1.512170000000     -0.496470000000      0.802300000000
  C                                                 0.199830000000      1.108320000000     -0.024400000000
  H                                                -0.694300000000     -0.442900000000     -2.004660000000
  H                                                 0.176060000000      1.834770000000     -0.844610000000
  C                                                -2.314230000000      1.482920000000     -0.408710000000
  H                                                -3.300850000000      1.222490000000     -0.000490000000
  H                                                -2.250160000000      1.082990000000     -1.431720000000
  H                                                 1.236070000000     -0.734920000000      0.331000000000
  O                                                -2.083740000000      2.889250000000     -0.389050000000
  H                                                -2.707540000000      3.310140000000     -0.998960000000
  O                                                 0.397640000000     -2.185510000000     -1.802670000000
  H                                                 1.230100000000     -1.840500000000     -2.176160000000
  O                                                 1.866350000000      0.047630000000     -1.487340000000
  H                                                 2.677510000000      0.310770000000     -0.992630000000
  O                                                 1.048250000000      1.618130000000      1.033850000000
  H                                                 0.719390000000      2.500060000000      1.273230000000
  H                                                -2.249350000000     -1.684090000000     -0.741080000000
  O                                                -1.023540000000     -2.697370000000      0.431510000000
  H                                                -0.172920000000     -2.609420000000      0.906370000000
  O                                                 0.490740000000     -1.562380000000      2.572150000000
  H                                                -0.352480000000     -1.141300000000      2.316810000000
  H                                                 1.117140000000     -0.822600000000      2.603390000000
  O                                                 3.699980000000      1.140620000000      0.249890000000
  H                                                 2.879820000000      1.469620000000      0.677850000000
  H                                                 4.085430000000      1.917900000000     -0.182400000000
 Recover connectivity data from disk.

 GradGradGradGradGradGradGradGradGradGradGradGradGradGradGradGradGradGrad
 Berny optimization.
 Initialization pass.
 Trust Radius=3.00D-01 FncErr=1.00D-07 GrdErr=1.00D-07
 Number of steps in this run=      2 maximum allowed number of steps=      2.
 Search for a saddle point of order  1.
 GradGradGradGradGradGradGradGradGradGradGradGradGradGradGradGradGradGrad

                          Input orientation:                          
 ---------------------------------------------------------------------
 Center     Atomic      Atomic             Coordinates (Angstroms)
 Number     Number       Type             X           Y           Z
 ---------------------------------------------------------------------
      1          1           0       -1.332130    1.381880    1.461880
      2          6           0       -1.240560    0.869420    0.497210
      3          6           0        0.842670   -0.183860   -0.533810
      4          6           0       -1.299800   -1.518950   -0.221060
      5          6           0       -0.209560   -1.055550   -1.223050
      6          8           0       -1.512170   -0.496470    0.802300
      7          6           0        0.199830    1.108320   -0.024400
      8          1           0       -0.694300   -0.442900   -2.004660
      9          1           0        0.176060    1.834770   -0.844610
     10          6           0       -2.314230    1.482920   -0.408710
     11          1           0       -3.300850    1.222490   -0.000490
     12          1           0       -2.250160    1.082990   -1.431720
     13          1           0        1.236070   -0.734920    0.331000
     14          8           0       -2.083740    2.889250   -0.389050
     15          1           0       -2.707540    3.310140   -0.998960
     16          8           0        0.397640   -2.185510   -1.802670
     17          1           0        1.230100   -1.840500   -2.176160
     18          8           0        1.866350    0.047630   -1.487340
     19          1           0        2.677510    0.310770   -0.992630
     20          8           0        1.048250    1.618130    1.033850
     21          1           0        0.719390    2.500060    1.273230
     22          1           0       -2.249350   -1.684090   -0.741080
     23          8           0       -1.023540   -2.697370    0.431510
     24          1           0       -0.172920   -2.609420    0.906370
     25          8           0        0.490740   -1.562380    2.572150
     26          1           0       -0.352480   -1.141300    2.316810
     27          1           0        1.117140   -0.822600    2.603390
     28          8           0        3.699980    1.140620    0.249890
     29          1           0        2.879820    1.469620    0.677850
     30          1           0        4.085430    1.917900   -0.182400
 ---------------------------------------------------------------------
                    Distance matrix (angstroms):
                    1          2          3          4          5
     1  H    0.000000
     2  C    1.096170   0.000000
     3  C    3.341269   2.551911   0.000000
     4  C    3.353826   2.494741   2.543709   0.000000
     5  C    3.796061   2.779886   1.530387   1.551563   0.000000
     6  O    1.998914   1.425660   2.725470   1.462133   2.472126
     7  C    2.151921   1.550443   1.530513   3.031520   2.507328
     8  H    3.969074   2.877488   2.143077   2.169272   1.105091
     9  H    2.792784   2.176969   2.148449   3.716775   2.940386
    10  C    2.115145   1.532919   3.572089   3.174193   3.396559
    11  H    2.457598   2.148757   4.408062   3.401227   4.029912
    12  H    3.050416   2.187619   3.460744   3.023074   2.963266
    13  H    3.515022   2.955542   1.098329   2.711109   2.146560
    14  O    2.502603   2.361381   4.246038   4.480514   4.446297
[...]
 3951,-0.00146769,-0.00043788,-0.00010032,-0.00021981,0.00022416,-0.000
 20805,-0.00000503,0.00003710,0.00000340,0.00015931,-0.00109367,-0.0000
 5718,0.00004415,0.00024879,0.00011706,0.00041002,0.00033033,-0.0010373
 3,-0.00027017,-0.00011944,-0.00000086,0.00020758,0.00023956,-0.0001351
 0,-0.00005871,-0.00007676,-0.00004142,0.00107578,-0.00453619,0.0037110
 9,-0.07112949,-0.04979315,-0.02407602,0.02917456,0.05946324,0.00011063
 ,-0.00023761,-0.00004255,-0.00019846,-0.00065462,0.00007669,0.00091274
 ,0.00066734,0.00070237,-0.02274541,0.00432293,-0.01468696,-0.00175153,
 0.00028720,-0.00028132,0.00095790,-0.00155131,-0.00097801,0.00005898,0
 .00033613,0.00099552,-0.00006665,-0.00074742,0.00075521,-0.00001114,-0
 .00006051,-0.00015871,-0.00002327,0.00020266,0.00012500,0.00004770,-0.
 00001726,-0.00004205,-0.00008503,0.00003482,-0.00016571,0.00010812,0.0
 0030110,0.00121769,0.00006102,-0.00016935,-0.00013581,-0.00003214,0.00
 005163,0.00004473,0.00064152,-0.00140947,0.00097841,0.00068957,-0.0000
 4273,0.00005052,-0.00098569,-0.00086954,-0.00054685,0.00039740,0.00020
 518,0.00042889,-0.00012353,-0.00015330,-0.00100948,-0.00005000,-0.0000
 7244,0.00001773,-0.00009003,0.00349461,0.00062868,-0.17385442,0.000311
 38,-0.11308944,0.19180307,-0.00339657,0.12640452,0.00010979,0.00016037
 ,0.00007090,-0.00175565,-0.00349390,-0.00002691,-0.00099423,0.00103773
 ,-0.00154915,-0.00129147,0.00062095,0.00262503,-0.00086296,-0.00046333
 ,0.00027819,-0.00266121,0.00425482,-0.00744158,-0.00072189,-0.00003808
 ,0.00009169,0.00041775,0.00019313,0.00009236,0.00030179,-0.00011390,-0
 .00009818,0.00052027,0.00031176,0.00019380,0.00016541,-0.00005062,0.00
 005773,-0.00003901,0.00000876,-0.00008164,0.00016529,-0.00032677,-0.00
 018152,-0.00011914,0.00068476,-0.00039095,-0.00000436,0.00007108,0.000
 03396,0.00100138,-0.00002517,-0.00006623,-0.00022928,-0.00010978,-0.00
 037120,0.00059176,-0.00062619,0.00102680,-0.00011711,0.00036601,-0.000
 39449,0.00108720,0.00003198,0.00026942,-0.00015949,-0.00016618,0.00007
 537,0.00003251,-0.00003205,-0.00057863,-0.00155015,-0.00163653,-0.0061
 3842,-0.00293433,0.00151207,0.00440482,0.59701576,-0.00028155,0.000479
 38,-0.00002636,-0.00055025,0.00116280,-0.00084529,-0.00022967,0.000399
 91,-0.00078984,0.00112932,-0.00814455,0.00042888,0.00004251,-0.0001620
 7,-0.00009496,0.00380378,0.00284756,0.00543133,-0.00045494,0.00022338,
 -0.00138944,0.00019886,0.00021771,-0.00008409,0.00004422,-0.00004775,0
 .00018417,-0.00018228,0.00004710,-0.00017151,0.00006803,-0.00002438,0.
 00001249,0.00004266,-0.00003258,0.00012992,0.00020073,-0.00099184,0.00
 088250,0.00014535,-0.00012947,0.00012880,-0.00000209,0.00001003,-0.000
 01072,-0.00018262,0.00069322,0.00016269,-0.00004032,-0.00018659,-0.000
 08269,-0.00036424,-0.00002990,0.00116732,0.00029929,0.00000666,-0.0000
 1341,-0.00042465,-0.00095106,0.00134903,0.00004660,0.00020409,0.000084
 91,-0.00029483,0.00113372,0.00002189,-0.00429055,0.00172648,-0.0073026
 6,0.00151745,-0.00024752,0.00316659,0.06140046,0.45326167,-0.00011804,
 0.00062435,0.00020048,-0.00004151,-0.00317091,-0.00009440,0.00144079,-
 0.00185926,0.00251633,0.00181456,-0.00170479,0.00206459,0.00006205,0.0
 0075681,0.00109394,-0.00616450,0.00448707,-0.00298288,-0.00049317,-0.0
 0124424,-0.00131438,-0.00027216,-0.00007227,-0.00062110,0.00011881,0.0
 0049023,0.00014815,0.00052978,-0.00000470,0.00014333,-0.00007704,0.000
 01975,0.00001036,0.00007392,-0.00002263,0.00013625,-0.00163673,0.00154
 170,-0.00313688,-0.00042754,0.00087076,-0.00009996,0.00005423,-0.00003
 479,-0.00005263,0.00013757,-0.00049695,-0.00087882,-0.00008815,0.00026
 267,0.00039465,0.00179666,0.00216772,-0.00287707,-0.00121858,-0.000886
 40,-0.00048512,0.00062446,0.00110190,0.00163717,-0.00003579,0.00011469
 ,-0.00059882,-0.00040200,0.00037413,-0.00041985,-0.00472573,-0.0025526
 6,-0.00313398,0.00211098,0.00356819,-0.00212623,0.12562577,-0.05090126
 ,0.05657637,0.00012464,-0.00016158,-0.00018234,0.00210441,0.00343069,0
 .00123638,0.00088961,-0.00094241,0.00109897,0.00203017,-0.00520538,-0.
 00199405,0.00079666,0.00080087,0.00017307,-0.00471939,-0.00028399,0.00
 271283,0.00109710,-0.00040973,0.00127646,-0.00021570,-0.00010994,-0.00
 017973,-0.00033414,0.00004412,-0.00001194,-0.00057393,-0.00055030,-0.0
 0020113,-0.00017143,0.00006385,-0.00007684,0.00000260,0.00001046,0.000
 07622,-0.00084749,0.00025302,0.00032096,0.00016188,-0.00065654,0.00041
 086,0.00000366,-0.00009709,-0.00004325,-0.00078766,-0.00004885,0.00008
 726,0.00008765,0.00017237,0.00023643,-0.00024632,0.00047360,-0.0008804
 0,-0.00004793,-0.00017238,0.00018943,-0.00061558,0.00056980,-0.0011658
 8,0.00015296,0.00005954,-0.00009744,-0.00023370,0.00068648,0.00044101,
 -0.00218205,0.00063663,-0.00080110,0.00269658,0.00176020,0.00190317,-0
 .35716713,0.12908436,-0.09853010,0.38514539,0.00027538,-0.00059168,-0.
 00005296,0.00076830,-0.00201315,0.00208385,-0.00037429,0.00034250,0.00
 041005,-0.00261007,0.00806892,-0.00206149,-0.00017267,-0.00044045,-0.0
 0000114,-0.00018757,-0.00543365,-0.00385892,-0.00020353,-0.00014065,0.
 00102110,-0.00009101,-0.00009332,0.00017110,0.00009437,0.00003253,-0.0
 0013205,0.00015477,-0.00015536,0.00006059,-0.00003924,0.00001105,-0.00
 001497,-0.00007631,0.00006146,-0.00014760,0.00024384,0.00027569,-0.000
 41699,-0.00008102,0.00018192,-0.00012409,0.00000351,-0.00001203,0.0000
 0933,0.00017445,-0.00029508,-0.00016908,0.00004830,0.00000359,0.000036
 45,0.00012998,-0.00027158,-0.00026090,-0.00008482,0.00007121,-0.000000
 83,0.00069902,0.00030105,-0.00079611,-0.00012231,-0.00023516,0.0000659
 2,0.00032083,-0.00099299,-0.00038832,0.00092063,-0.00169887,0.00472091
 ,0.00218850,-0.00339359,-0.00491813,0.18809490,-0.13673878,0.05927278,
 -0.14910923,0.13071305,-0.00006008,-0.00076362,-0.00011827,0.00116712,
 0.00590815,0.00024744,0.00071990,0.00030334,-0.00071666,-0.00081840,-0
 .00400179,-0.00615478,0.00062306,0.00011697,-0.00087883,0.00169026,-0.
 00246113,0.00248070,0.00091556,0.00061261,0.00049882,-0.00010898,-0.00
 005384,0.00018882,-0.00036260,-0.00021232,0.00000088,-0.00085589,-0.00
 050507,-0.00026336,-0.00003120,0.00003228,-0.00003681,-0.00001488,0.00
 004143,-0.00001305,0.00054518,-0.00015485,0.00061200,0.00045851,-0.001
 06233,0.00039370,-0.00004169,-0.00007949,0.00001850,-0.00075760,0.0003
 5478,0.00055393,0.00014577,-0.00002106,0.00002187,-0.00105039,-0.00038
 419,0.00051618,0.00050529,0.00014962,0.00035926,-0.00085349,-0.0003644
 6,-0.00115610,0.00009039,0.00002029,0.00027642,0.00015003,0.00055654,0
 .00067157,-0.00030620,0.00180824,0.00054682,0.00208139,-0.00516791,-0.
 00165809,-0.10633258,0.04761094,-0.03971338,0.10247074,-0.04451763,0.0
 4319145,-0.00018608,0.00023290,0.00007858,-0.00023065,0.00048953,-0.00
 071052,0.00014906,-0.00003000,-0.00003588,0.00013497,-0.00061997,-0.00
 051529,0.00003595,0.00003182,-0.00024284,0.00067720,0.00061246,0.00061
 716,0.00000748,0.00039658,-0.00075921,-0.00004114,-0.00000719,0.000030
 19,-0.00004724,-0.00002702,0.00008127,-0.00009019,0.00020695,-0.000005
 03,0.00000746,-0.00001321,0.00000806,0.00004601,-0.00003947,0.00007135
 ,0.00068233,-0.00017035,0.00030527,0.00001843,-0.00017553,0.00006463,0
 .00000459,0.00002306,-0.00000640,-0.00022334,0.00015213,0.00015496,0.0
 0008526,-0.00002017,0.00003158,-0.00060318,-0.00009848,0.00030547,0.00
 038827,0.00002546,0.00035463,-0.00098830,-0.00072261,0.00068634,0.0000
 2408,0.00017153,-0.00001039,0.00001860,0.00003005,0.00011992,0.0007757
 8,0.00011653,0.00053564,-0.00111913,-0.00061813,-0.00190830,-0.2305764
 6,-0.19098580,-0.02029050,-0.02714324,-0.04076507,0.00000542,0.2578946
 6,0.00018601,-0.00013711,-0.00007801,0.00021076,0.00044848,0.00022661,
 -0.00054606,0.00058610,-0.00040323,-0.00031362,-0.00018808,-0.00019206
 ,0.00001017,0.00005180,0.00001261,0.00026297,-0.00083929,0.00065754,0.
 00095506,0.00089612,0.00146609,0.00008357,0.00001783,0.00009623,-0.000
 20758,-0.00023605,-0.00033824,-0.00001160,-0.00012188,0.00001820,-0.00
 005797,0.00001594,-0.00002304,-0.00003050,0.00001789,-0.00004969,0.000
 19461,0.00021317,0.00006892,-0.00003037,-0.00003469,0.00000300,-0.0000
 0187,-0.00002958,0.00000099,0.00014098,-0.00020168,0.00000352,-0.00004
 843,0.00006028,-0.00006794,0.00002078,-0.00050500,0.00024423,0.0000340
 4,0.00030976,0.00007388,-0.00033461,0.00008099,-0.00143844,-0.00000963
 ,-0.00015190,-0.00026310,0.00000719,0.00007620,-0.00005432,0.00030473,
 0.00036891,-0.00022944,-0.00045776,-0.00055287,0.00107354,-0.25174588,
 -0.31481304,-0.01286753,0.01978628,0.01244271,0.00232573,0.23198344,0.
 30243772,0.00000941,-0.00000600,-0.00004135,-0.00082780,0.00024494,0.0
 0004265,-0.00027007,0.00169208,-0.00231043,-0.00054937,-0.00191937,0.0
 0039345,-0.00021187,-0.00070584,-0.00006460,0.00084210,0.00085603,0.00
 000335,-0.00055268,0.00054246,-0.00046978,0.00032104,0.00019381,0.0002
 4086,0.00010594,-0.00019136,0.00004345,-0.00005960,0.00018603,-0.00006
 826,0.00011715,-0.00004023,0.00002907,-0.00003303,-0.00000725,-0.00002
 921,0.00059152,-0.00097649,-0.00158542,0.00016782,-0.00017999,-0.00005
 985,-0.00001809,0.00005600,0.00002360,0.00018208,0.00044297,0.00035164
 ,-0.00004886,-0.00019475,-0.00029736,-0.00057209,-0.00082175,0.0014757
 0,0.00051609,0.00045155,-0.00004699,0.00014878,-0.00098137,-0.00061136
 ,0.00005322,-0.00018221,0.00079905,0.00006020,0.00024448,-0.00010599,-
 0.00104419,0.00013666,-0.00271878,-0.00036354,0.00047011,0.00266167,-0
 .01132059,0.00105801,-0.00663412,-0.00846845,-0.01001075,0.00026411,0.
 02117082,0.00955414,0.00878907,0.00011905,-0.00008720,-0.00009723,0.00
 017048,0.00059027,-0.00094421,0.00289952,0.00083731,-0.00277517,0.0003
 4695,0.00101738,-0.00038654,-0.00003083,0.00015150,0.00069828,-0.00063
 153,-0.00099175,0.00006134,0.00184696,0.00196408,0.00385952,-0.0000218
 8,-0.00002229,-0.00002756,-0.00004206,-0.00021466,-0.00037942,-0.00003
 934,-0.00056653,0.00028959,-0.00027861,0.00011022,-0.00008274,0.000028
 93,0.00003310,-0.00003951,-0.00002125,0.00013808,0.00022427,-0.0002962
 4,0.00048617,-0.00001789,-0.00000120,-0.00016157,-0.00000852,-0.000432
 63,-0.00113441,-0.00043985,0.00009198,0.00119953,0.00055564,-0.0086061
 2,-0.00783992,-0.00974716,-0.00627760,0.00326603,0.00522232,-0.0126231
 2,0.00238797,0.00290596,-0.00212425,-0.00142021,-0.00037288,-0.0002128
 8,-0.00011155,0.00005731,-0.00000977,-0.00081502,0.00052606,-0.0000639
 5,0.00030028,-0.00024983,0.00017081,-0.00042219,0.00091037,0.00007058,
 0.00023115,-0.00045871,-0.00031346,0.00030167,-0.00063615,0.44238365,-
 0.00020150,0.00007088,0.00016016,0.00035948,-0.00021944,0.00056894,0.0
 0325291,-0.00036825,-0.00288962,0.00041061,-0.00043571,-0.00080058,-0.
 00030295,-0.00014948,0.00042743,-0.00010352,0.00069731,0.00020729,-0.0
 0107985,-0.00149578,-0.00203641,-0.00009232,0.00001920,-0.00010581,-0.
 00000926,0.00005632,0.00007397,0.00012253,-0.00014197,-0.00010655,0.00
 004803,0.00001495,0.00003530,0.00004216,0.00001646,0.00008018,0.000096
 65,0.00025525,0.00002244,0.00001778,0.00030797,0.00000337,-0.00001427,
 -0.00003487,-0.00000662,-0.00058463,-0.00002638,0.00007935,0.00035331,
 0.00067093,0.00033898,-0.01121468,-0.00138273,-0.00627827,0.00289959,-
 0.00304550,0.00406333,0.00421450,0.00466339,0.00057089,-0.00139374,0.0
 0016259,0.00032797,-0.00015537,-0.00000623,0.00012134,-0.00022360,0.00
 000298,0.00029745,0.00013825,0.00004993,-0.00015865,-0.00031602,0.0001
 2661,0.00040542,0.00010553,-0.00011110,-0.00007126,0.00027550,-0.00020
 945,-0.00033676,0.02074526,0.44836156,-0.00035424,0.00009486,0.0002295
 0,0.00066750,0.00013725,0.00072546,0.00440535,0.00075202,-0.00660667,0
 .00036728,-0.00026771,-0.00150166,-0.00082778,-0.00084629,0.00126726,-
 0.00007044,0.00047330,0.00057316,-0.00095391,-0.00166673,-0.00317383,0
 .00016831,0.00017904,0.00003521,0.00059804,-0.00016190,0.00047067,0.00
 017823,-0.00003551,-0.00018799,0.00002150,-0.00000850,0.00004741,0.000
 06547,0.00001892,0.00011096,-0.00057710,-0.00058097,0.00101771,-0.0000
 8567,0.00016061,0.00015441,0.00005829,-0.00002990,-0.00005592,-0.00091
 792,-0.00019706,0.00037371,0.00055610,0.00136644,0.00033450,-0.0151301
 3,-0.00907758,-0.00249112,0.00628044,0.00805631,-0.00521029,0.00627449
 ,0.00046614,0.00401804,0.00042601,0.00034418,-0.00008717,-0.00022298,-
 0.00004313,0.00023714,-0.00011323,-0.00025371,0.00077343,-0.00005756,-
 0.00002245,-0.00051445,0.00037283,0.00000836,0.00081950,-0.00018971,0.
 00000216,-0.00041714,-0.00053386,-0.00019084,-0.00019397,-0.25658554,-
 0.10844149,0.21407431,-0.00048259,0.00014952,0.00029260,0.00039078,-0.
 00071151,0.00185855,0.00258345,-0.00113816,-0.00228234,0.00004943,-0.0
 0160408,-0.00076650,-0.00065537,-0.00065108,-0.00003021,0.00065531,0.0
 0184049,0.00028330,-0.00482633,-0.00459386,-0.00834297,0.00005962,0.00
 008564,-0.00000047,0.00080084,0.00032343,0.00112086,0.00024879,0.00062
 125,-0.00051044,0.00037272,-0.00014201,0.00015463,0.00002353,-0.000031
 05,0.00013776,-0.00010814,-0.00034862,0.00022525,0.00029114,-0.0004063
 5,0.00010046,0.00004640,0.00017675,-0.00001748,-0.00042598,0.00101030,
 0.00076478,0.00032518,0.00003185,-0.00015210,-0.00553492,-0.00096576,-
 0.00016903,0.00738449,0.00211396,0.00178274,-0.00005055,0.00069089,0.0
 0318680,0.00302288,0.00203394,0.00127335,0.00003006,0.00010691,0.00011
 995,-0.00020282,0.00079828,-0.00009022,0.00015302,-0.00026740,0.000022
 59,-0.00037723,0.00061119,-0.00058932,-0.00006854,-0.00038777,0.000384
 43,0.00058011,-0.00064671,0.00057790,-0.31358071,0.09527381,0.16473713
 ,0.32276323,0.00015812,-0.00001667,-0.00010459,-0.00042235,0.00022357,
 -0.00076091,-0.00189571,0.00059022,-0.00080383,-0.00028463,0.00029008,
 0.00029946,0.00006242,-0.00045455,0.00010803,0.00008330,-0.00057681,0.
 00000441,-0.00066976,0.00120711,0.00255316,0.00019841,0.00009553,0.000
 18217,0.00006136,-0.00004698,-0.00006664,-0.00015103,0.00001931,0.0001
 2308,-0.00006434,0.00000550,-0.00004353,-0.00002306,-0.00000781,-0.000
 04960,-0.00009967,-0.00081742,0.00039741,-0.00001652,-0.00018210,0.000
 01450,0.00001564,0.00001447,0.00000340,0.00015194,0.00009625,0.0000777
 4,-0.00007750,-0.00019827,-0.00018740,0.00055599,0.00025535,0.00091031
 ,0.00190725,-0.00172651,-0.00440452,-0.00308638,-0.00760798,-0.0024510
 6,0.00376352,0.00005121,-0.00058391,0.00007123,-0.00000475,-0.00004993
 ,0.00015830,-0.00006143,-0.00002652,-0.00012809,-0.00009132,-0.0000323
 9,0.00043415,-0.00005194,-0.00018961,-0.00019610,0.00011847,-0.0000554
 3,-0.00049838,0.00001964,0.00042278,0.14378646,-0.10566099,-0.07161769
 ,-0.10556813,0.10400438,0.00025507,-0.00004742,-0.00010234,-0.00049265
 ,-0.00014248,-0.00088218,-0.00326301,-0.00115692,0.00212241,-0.0002113
 7,0.00016725,0.00066720,0.00009393,0.00009386,-0.00019595,-0.00002621,
 -0.00030079,-0.00033629,-0.00199144,0.00167037,0.00307196,0.00001898,-
 0.00001466,0.00002146,-0.00058048,-0.00000449,-0.00059298,-0.00017978,
 -0.00010952,0.00021220,-0.00005406,0.00004046,-0.00004456,-0.00002489,
 -0.00000540,-0.00005431,0.00017117,0.00006732,-0.00011935,0.00005980,0
 .00001504,-0.00011375,-0.00004134,-0.00000266,0.00003671,0.00038991,0.
 00015887,-0.00011150,-0.00022704,-0.00054495,-0.00019406,0.00287121,0.
 00308698,0.00102199,0.00052051,-0.00608714,-0.00639171,0.00032403,-0.0
 0237594,-0.00791410,0.00001429,0.00001113,-0.00010761,0.00007849,0.000
 01127,-0.00010846,0.00004625,0.00004945,-0.00037079,0.00001811,0.00005
 240,0.00030020,-0.00021676,-0.00010048,-0.00047968,0.00016623,0.000010
 89,0.00023441,0.00039170,0.00036207,0.00006771,0.15267621,-0.03883025,
 -0.09616632,-0.16892889,0.05378704,0.11592510,0.00002767,0.00000870,-0
 .00001645,-0.00018445,-0.00014491,0.00005238,-0.00036300,-0.00023586,0
 .00062980,-0.00007248,-0.00024132,0.00009172,0.00004854,-0.00002097,-0
 .00022683,0.00015037,0.00023630,-0.00003720,-0.00034918,-0.00034766,-0
 .00004771,-0.00001933,-0.00001256,-0.00000006,-0.00017928,0.00007756,-
 0.00008277,-0.00003791,0.00002715,-0.00003114,0.00005820,-0.00000597,0
 .00000609,-0.00001346,-0.00000186,0.00000327,-0.00002578,0.00007475,-0
 .00014225,0.00011644,-0.00002752,-0.00003771,-0.00002694,0.00002865,0.
 00001443,0.00008108,0.00023080,0.00011459,-0.00004533,-0.00023334,-0.0
 0012818,0.00061884,0.00131669,-0.00060628,-0.00142769,-0.00303662,0.00
 050429,0.00001365,0.00174308,-0.00044361,-0.00077680,-0.00008247,0.000
 38138,0.00004817,0.00002334,-0.00001480,0.00000339,0.00018871,-0.00011
 744,0.00000750,-0.00006776,0.00005619,-0.00001864,0.00007116,-0.000189
 08,-0.00000967,-0.00004301,0.00009964,0.00003216,-0.00003969,0.0001123
 0,-0.10252145,-0.11266416,0.09144311,-0.01346781,-0.03822646,0.0181420
 5,0.11833318,0.00000951,-0.00000131,-0.00000873,-0.00001783,0.00001254
 ,0.00002168,-0.00009030,-0.00004310,0.00047975,-0.00001979,0.00000895,
 0.00010504,0.00002023,0.00005750,-0.00012503,0.00002830,-0.00002284,-0
 .00003983,0.00004272,-0.00005185,-0.00016795,-0.00001008,-0.00002647,0
 .00000384,-0.00000239,0.00004518,0.00004395,0.00000421,0.00007628,-0.0
 0000519,0.00000717,-0.00001360,0.00000319,-0.00000415,-0.00000958,-0.0
 0000826,0.00012827,0.00007952,-0.00011722,-0.00000638,-0.00008686,0.00
 000240,0.00000980,0.00001817,0.00000217,0.00006835,-0.00000999,-0.0000
 3575,-0.00006713,-0.00006580,0.00000553,0.00044842,0.00077143,-0.00085
 630,-0.00126721,-0.00290273,0.00173767,0.00109035,-0.00046973,-0.00008
 408,0.00034296,0.00007536,-0.00005453,0.00001707,0.00000651,-0.0000159
 9,0.00000949,0.00001494,-0.00005156,0.00000741,0.00000479,0.00003621,-
 0.00003851,0.00001112,-0.00005018,0.00000572,-0.00000670,0.00003546,0.
 00004346,-0.00002291,0.00000207,-0.16375919,-0.34218846,0.18138185,0.0
 1159427,0.01051444,-0.00986130,0.15140522,0.33422519,0.00002419,-0.000
 01220,-0.00002431,-0.00006728,0.00001849,-0.00002516,0.00006007,0.0000
 5679,0.00019733,-0.00001813,0.00000088,0.00010404,0.00009553,0.0000693
 9,-0.00005383,0.00002423,-0.00001443,-0.00007344,0.00020005,-0.0000407
 4,0.00038658,-0.00003712,-0.00001970,-0.00000949,-0.00008668,0.0000526
 2,-0.00005092,-0.00001991,-0.00000081,0.00003419,0.00000231,0.00000217
 ,-0.00000755,-0.00000814,-0.00000828,-0.00001764,0.00018360,0.00013332
 ,-0.00008902,0.00002354,-0.00000666,-0.00005255,-0.00002302,0.00000427
 ,0.00002374,0.00002795,-0.00003583,-0.00006781,-0.00004763,-0.00003742
 ,0.00004479,-0.00132769,0.00034609,-0.00272548,-0.00000829,-0.00236961
 ,0.00476054,-0.00002345,-0.00069350,-0.00027923,0.00042037,0.00008256,
 0.00009173,0.00000603,0.00000230,-0.00001472,0.00000225,0.00001806,-0.
 00006469,0.00001024,0.00000833,0.00004783,-0.00002983,-0.00001513,-0.0
 0009181,0.00002234,0.00000685,0.00004961,0.00000523,0.00000858,0.00005
 207,0.10526208,0.15227847,-0.10865587,0.00485692,0.02254406,-0.0093954
 2,-0.10952974,-0.17237891,0.11590652\\0.00000065,-0.00000201,0.0000027
 9,0.00000253,-0.00000545,0.00001074,0.00000362,0.00000300,0.00000267,-
 0.00001164,0.00000265,-0.00000425,-0.00000415,0.00000208,-0.00001045,0
 .00000461,-0.00001392,-0.00000165,-0.00000005,0.00000192,0.00000244,-0
 .00000065,0.00000606,-0.00000023,-0.00000321,0.00000244,0.00000301,-0.
 00000839,-0.00000457,0.00001181,0.00000101,-0.00000083,0.00000351,-0.0
 0000110,0.00000001,0.00000382,-0.00000065,-0.00000123,-0.00000329,-0.0
 0000444,-0.00000463,0.00002209,-0.00000573,0.00000224,0.00000600,0.000
 00471,0.00001355,-0.00001505,-0.00000310,0.00000364,-0.00000289,0.0000
 0214,0.00001264,-0.00000528,-0.00000446,0.00000353,-0.00000183,0.00000
 216,-0.00000365,0.00000607,-0.00000197,-0.00000095,0.00000452,0.000005
 24,0.00000153,0.00000109,0.00001176,-0.00000817,-0.00000965,0.00000172
 ,0.00000021,-0.00000749,0.00000696,-0.00001625,-0.00001027,0.00000223,
 -0.00000306,-0.00000390,0.00000481,-0.00000141,-0.00000270,-0.00000048
 ,0.00000389,-0.00000293,-0.00000390,0.00000136,0.00000181,-0.00000023,
 0.00000537,-0.00000049\\\@


 JUST WHEN YOU THINK YOU'VE GOT THE WORLD ON A STRING,
 YOU FIND OUT IT'S YOUR LEASH.
 Job cpu time:       0 days  0 hours 37 minutes 29.5 seconds.
 File lengths (MBytes):  RWF=    220 Int=      0 D2E=      0 Chk=      6 Scr=      1
 Normal termination of Gaussian 09 at Mon Jan 30 07:30:48 2017.
